Title
81370
    1CHL1    C3    1   5.518   3.752   9.781 -0.1323  0.0916  0.2435
    1CHL1    H3    2   5.448   3.668   9.799  1.2112 -0.8607  1.2165
    1CHL1    O3    3   5.578   3.783   9.905  0.0744  0.2665 -0.1095
    1CHL1   H3'    4   5.611   3.700   9.940 -0.6962  0.2676  0.6602
    1CHL1    C4    5   5.639   3.724   9.696 -0.5320 -0.0607 -0.1969
    1CHL1   H4A    6   5.719   3.801   9.704  0.6609 -1.3435  0.6419
    1CHL1   H4B    7   5.699   3.637   9.728 -0.3267 -0.4945 -1.6887
    1CHL1    C5    8   5.609   3.710   9.552 -0.2872 -0.0937  0.7713
    1CHL1    C6    9   5.653   3.601   9.486 -0.3294 -0.4886  0.4534
    1CHL1    H6   10   5.713   3.524   9.535 -0.1457  0.2543  1.4327
    1CHL1    C7   11   5.613   3.571   9.345 -0.1322 -0.7491 -0.3992
    1CHL1   H7A   12   5.706   3.524   9.307  0.0436 -0.9655  0.2932
    1CHL1   H7B   13   5.534   3.494   9.346  0.8187 -1.7430  0.1470
    1CHL1    C8   14   5.560   3.699   9.269  0.1623  0.1554  1.2081
    1CHL1    H8   15   5.641   3.775   9.262  0.5206 -0.1643  1.7592
    1CHL1   C14   16   5.513   3.663   9.134  0.3612  0.9786  0.4151
    1CHL1   H14   17   5.426   3.602   9.165  0.8460  0.4703  0.7994
    1CHL1   C15   18   5.604   3.573   9.044  0.1780 -0.3680  0.1711
    1CHL1  H15A   19   5.711   3.604   9.050  0.1409 -0.2181  0.0801
    1CHL1  H15B   20   5.594   3.463   9.054  0.9573 -0.4532  0.1342
    1CHL1   C16   21   5.550   3.606   8.905  0.8469  0.0095  0.5247
    1CHL1  H16A   22   5.627   3.657   8.842 -0.6045 -0.2096 -1.5256
    1CHL1  H16B   23   5.537   3.508   8.855  0.3804 -0.0918  0.8395
    1CHL1   C17   24   5.420   3.698   8.923  0.6100  0.0005  0.0022
    1CHL1   H17   25   5.334   3.633   8.947 -1.8155  2.5760 -1.1871
    1CHL1   C13   26   5.456   3.780   9.048 -0.0650  0.8866  0.5390
    1CHL1   C18   27   5.570   3.886   9.031  0.4178 -0.5731 -0.5845
    1CHL1  H18A   28   5.552   3.962   8.952 -1.3167 -0.5228 -0.1657
    1CHL1  H18B   29   5.590   3.939   9.127 -0.6027 -1.8356  0.3490
    1CHL1  H18C   30   5.660   3.840   8.985  1.2720  1.3603 -0.9603
    1CHL1   C12   31   5.333   3.823   9.131 -0.5537 -0.6410  0.0010
    1CHL1  H12A   32   5.274   3.902   9.079  1.4160  1.8792  1.3814
    1CHL1  H12B   33   5.270   3.736   9.161  0.4216 -1.0333  0.9835
    1CHL1   C11   34   5.378   3.875   9.269 -0.1582  0.1536 -0.2470
    1CHL1  H11A   35   5.442   3.965   9.254 -1.2051  1.0830  0.6524
    1CHL1  H11B   36   5.286   3.913   9.318 -0.4102  0.8491 -1.2308
    1CHL1    C9   37   5.452   3.764   9.350 -0.5595 -0.0783  0.0240
    1CHL1    H9   38   5.372   3.689   9.367 -0.9033  0.1555 -0.5013
    1CHL1   C10   39   5.508   3.814   9.492  0.0385  0.6800 -1.0566
    1CHL1   C19   40   5.584   3.942   9.465 -0.1246 -0.1755 -0.9087
    1CHL1  H19A   41   5.635   3.974   9.559  1.6723 -1.9528 -1.1999
    1CHL1  H19B   42   5.670   3.918   9.399  1.2419 -0.7238  0.9896
    1CHL1  H19C   43   5.520   4.022   9.422 -0.8463  1.9991  3.5799
    1CHL1    C1   44   5.392   3.844   9.590  0.5727  0.6922  0.3985
    1CHL1   H1A   45   5.314   3.917   9.561 -0.2532 -0.7388 -1.1773
    1CHL1   H1B   46   5.348   3.744   9.611  2.6834 -0.3654  0.0411
    1CHL1    C2   47   5.442   3.879   9.730 -0.1699  0.0781  0.1198
    1CHL1   H2A   48   5.365   3.913   9.802 -0.0197  0.4114  0.1224
    1CHL1   H2B   49   5.514   3.963   9.743  1.8472 -1.3871 -0.9351
    1CHL1   C20   50   5.400   3.769   8.795  0.4688  0.3285  0.6082
    1CHL1   H20   51   5.490   3.821   8.756 -0.4772  0.6741 -1.1916
    1CHL1   C21   52   5.294   3.880   8.818 -0.2439  0.0295  0.6272
    1CHL1  H21A   53   5.276   3.935   8.723 -0.3552  0.0058  0.6348
    1CHL1  H21B   54   5.340   3.950   8.891  0.3435 -1.9425  2.2357
    1CHL1  H21C   55   5.202   3.839   8.865 -0.2764 -0.9899 -0.2887
    1CHL1   C22   56   5.360   3.676   8.682 -0.1124  0.2058  0.6191
    1CHL1  H22A   57   5.335   3.579   8.730  0.0412 -0.2228 -0.1465
    1CHL1  H22B   58   5.265   3.698   8.629  0.7790 -1.7172 -1.9951
    1CHL1   C23   59   5.454   3.673   8.557 -0.1000  0.0114 -0.8689
    1CHL1  H23A   60   5.434   3.757   8.487  1.0319 -0.4711 -1.7994
    1CHL1  H23B   61   5.558   3.681   8.595 -0.1056 -0.9725 -0.6140
    1CHL1   C24   62   5.437   3.548   8.484 -0.3348 -0.0522  0.4286
    1CHL1  H24A   63   5.485   3.462   8.535 -0.2652  0.6019  1.4872
    1CHL1  H24B   64   5.329   3.528   8.468 -0.6318 -0.4724  2.6891
    1CHL1   C25   65   5.506   3.560   8.349  1.0538 -0.1283 -1.2186
    1CHL1   H25   66   5.471   3.656   8.308  0.8625  0.3380 -0.0103
    1CHL1   C26   67   5.650   3.583   8.360 -0.6087 -0.2858  0.6754
    1CHL1  H26A   68   5.695   3.487   8.393 -2.3628 -1.0137  1.0825
    1CHL1  H26B   69   5.689   3.602   8.257 -3.0443 -0.5250 -0.3722
    1CHL1  H26C   70   5.679   3.665   8.428  0.7681  0.1045 -0.3392
    1CHL1   C27   71   5.470   3.452   8.245  0.3900  0.3101  0.1703
    1CHL1  H27A   72   5.471   3.351   8.292  1.4219  0.5135  0.6171
    1CHL1  H27B   73   5.366   3.481   8.219  0.7976  0.7532 -1.0436
    1CHL1  H27C   74   5.533   3.456   8.154  0.5108 -0.6628  0.2026
    2CHL1    C3   75   5.967   0.739   9.666 -0.1571 -0.0873  0.2864
    2CHL1    H3   76   5.897   0.692   9.594  2.1087 -0.2479 -1.9528
    2CHL1    O3   77   5.931   0.709   9.800  0.1581 -0.1277 -0.4388
    2CHL1   H3'   78   6.004   0.732   9.857  1.6218 -0.9150 -1.9179
    2CHL1    C4   79   6.105   0.694   9.631 -0.4274 -0.2348  0.0474
    2CHL1   H4A   80   6.175   0.746   9.700  1.9488 -2.2596 -0.7183
    2CHL1   H4B   81   6.119   0.586   9.653  1.2091 -1.0629 -4.1723
    2CHL1    C5   82   6.125   0.717   9.485  0.1594  0.3140  0.1029
    2CHL1    C6   83   6.157   0.610   9.406 -0.8423  0.2714 -0.3048
    2CHL1    H6   84   6.159   0.508   9.447  2.2870 -0.2778 -1.5982
    2CHL1    C7   85   6.179   0.624   9.262 -0.8969 -0.3366  0.0995
    2CHL1   H7A   86   6.274   0.575   9.234  0.1363  1.4582  0.3189
    2CHL1   H7B   87   6.100   0.580   9.197  0.2052 -1.7314 -0.3386
    2CHL1    C8   88   6.201   0.773   9.217  1.0231 -0.6783 -0.5653
    2CHL1    H8   89   6.305   0.793   9.250  0.6600 -0.1472  0.3183
    2CHL1   C14   90   6.196   0.796   9.070  0.1709 -0.3281  0.0463
    2CHL1   H14   91   6.092   0.768   9.043 -1.6229  5.4772 -0.4070
    2CHL1   C15   92   6.296   0.701   8.989  0.5675 -0.2968  0.1333
    2CHL1  H15A   93   6.390   0.704   9.048  0.9500  0.8496 -0.4990
    2CHL1  H15B   94   6.261   0.596   8.983  2.5704 -0.9548 -0.6277
    2CHL1   C16   95   6.306   0.767   8.847 -0.1974  0.4251 -0.8941
    2CHL1  H16A   96   6.412   0.770   8.817  0.4435 -3.8116  0.1932
    2CHL1  H16B   97   6.248   0.705   8.775 -1.8896  1.0236 -0.1235
    2CHL1   C17   98   6.234   0.902   8.868  0.2160 -0.8725  0.9288
    2CHL1   H17   99   6.127   0.882   8.850  0.0992 -0.3396  1.0139
    2CHL1   C13  100   6.232   0.934   9.019  0.0731  0.3786 -0.8213
    2CHL1   C18  101   6.366   0.988   9.074 -0.1973 -0.2180 -0.4929
    2CHL1  H18A  102   6.383   0.974   9.183  0.8499 -1.8907 -0.8313
    2CHL1  H18B  103   6.452   0.941   9.021 -0.2369  1.0201 -1.7060
    2CHL1  H18C  104   6.373   1.097   9.056  1.8701 -0.1895  0.2352
    2CHL1   C12  105   6.108   1.024   9.079 -0.0171  0.4261  0.0769
    2CHL1  H12A  106   6.136   1.130   9.061 -1.2993  0.7285 -0.2224
    2CHL1  H12B  107   6.017   1.002   9.020 -0.3075 -0.1046  0.7220
    2CHL1   C11  108   6.089   1.010   9.227 -0.0318  0.0913 -0.3079
    2CHL1  H11A  109   6.169   1.073   9.272  0.2283  0.7337 -1.6059
    2CHL1  H11B  110   5.995   1.065   9.250  0.6127  0.5007  1.5107
    2CHL1    C9  111   6.097   0.867   9.279 -0.9288  0.2096  0.5015
    2CHL1    H9  112   5.999   0.824   9.251 -1.8873  2.2967  0.4613
    2CHL1   C10  113   6.101   0.862   9.432 -0.0373  0.3997 -0.3824
    2CHL1   C19  114   6.227   0.934   9.489  0.6515  0.3757  0.4055
    2CHL1  H19A  115   6.322   0.901   9.442  0.2653  2.7544 -2.3799
    2CHL1  H19B  116   6.203   1.041   9.467  1.3025  1.2573  3.4541
    2CHL1  H19C  117   6.230   0.928   9.600  1.4837 -0.0562  0.3663
    2CHL1    C1  118   5.974   0.924   9.487 -0.4335 -0.1253 -0.0663
    2CHL1   H1A  119   5.977   1.032   9.464  0.9278 -0.1409 -0.1006
    2CHL1   H1B  120   5.888   0.885   9.429 -0.7150  0.2624  0.0928
    2CHL1    C2  121   5.950   0.890   9.638 -0.1614  0.1856 -0.3702
    2CHL1   H2A  122   5.844   0.909   9.663 -0.2508 -2.4595  1.7779
    2CHL1   H2B  123   6.024   0.947   9.698  0.0472 -0.2089 -0.2482
    2CHL1   C20  124   6.275   1.010   8.768  0.5636  0.2657  0.9254
    2CHL1   H20  125   6.372   1.057   8.792  0.4986  2.2502 -2.1746
    2CHL1   C21  126   6.170   1.120   8.770  0.3248  0.7106 -0.1363
    2CHL1  H21A  127   6.067   1.080   8.760 -0.1519  1.3320  1.9487
    2CHL1  H21B  128   6.186   1.194   8.688 -0.7461  1.8386  0.6297
    2CHL1  H21C  129   6.194   1.178   8.861 -0.2416  0.7096  0.0189
    2CHL1   C22  130   6.283   0.953   8.623  0.1795  0.6232 -0.5131
    2CHL1  H22A  131   6.372   0.887   8.633 -0.9503 -0.9639 -0.4398
    2CHL1  H22B  132   6.201   0.888   8.583 -0.4301  1.1194 -0.0899
    2CHL1   C23  133   6.334   1.060   8.529 -0.1241 -1.1699  0.4362
    2CHL1  H23A  134   6.247   1.119   8.492  0.2756 -0.5276  0.5028
    2CHL1  H23B  135   6.401   1.134   8.578  0.1035 -0.8430 -0.3524
    2CHL1   C24  136   6.409   1.007   8.409  0.6576  0.8949  0.9487
    2CHL1  H24A  137   6.492   0.945   8.450 -0.1158 -0.4707  0.5110
    2CHL1  H24B  138   6.351   0.929   8.356  1.0348  0.7246  0.7846
    2CHL1   C25  139   6.462   1.112   8.297 -0.0442  0.1887 -0.5288
    2CHL1   H25  140   6.513   1.049   8.221 -2.2052 -0.3477 -1.6394
    2CHL1   C26  141   6.343   1.173   8.226  0.0486 -0.3542  0.5195
    2CHL1  H26A  142   6.384   1.216   8.132  0.2315 -2.2694 -0.3086
    2CHL1  H26B  143   6.268   1.098   8.196 -0.1071  0.6049 -1.7046
    2CHL1  H26C  144   6.291   1.252   8.285 -0.4655 -1.4798  1.5995
    2CHL1   C27  145   6.552   1.215   8.368  0.2759  0.2606  0.2904
    2CHL1  H27A  146   6.625   1.151   8.422  1.4868 -0.7308 -2.3293
    2CHL1  H27B  147   6.604   1.294   8.309 -0.4222  0.8110  0.4084
    2CHL1  H27C  148   6.482   1.252   8.446  1.8168 -2.7634  3.3944
    3CHL1    C3  149   6.196   5.429  10.019 -0.6780  1.1737  0.1577
    3CHL1    H3  150   6.087   5.453  10.015 -0.4042  2.6358  0.9294
    3CHL1    O3  151   6.231   5.444  10.161  0.4071  0.1453  0.1578
    3CHL1   H3'  152   6.327   5.451  10.164  0.3101  1.3024  0.8849
    3CHL1    C4  153   6.221   5.280   9.981  0.9008 -0.1462  0.5416
    3CHL1   H4A  154   6.326   5.251  10.001  0.6171 -3.4138 -1.9203
    3CHL1   H4B  155   6.156   5.220  10.048  1.9377 -0.4469  1.2920
    3CHL1    C5  156   6.198   5.256   9.837 -0.0078 -0.7852 -0.1133
    3CHL1    C6  157   6.111   5.161   9.797  0.6863  0.1058 -0.4236
    3CHL1    H6  158   6.058   5.098   9.869  0.6418 -0.1803 -0.7015
    3CHL1    C7  159   6.079   5.125   9.649 -0.0022 -0.2818 -0.4025
    3CHL1   H7A  160   6.090   5.017   9.626 -2.2698 -0.3954 -1.1196
    3CHL1   H7B  161   5.974   5.154   9.627  0.0549 -0.6628 -1.1881
    3CHL1    C8  162   6.174   5.201   9.541 -0.1965  0.7476 -0.6691
    3CHL1    H8  163   6.269   5.144   9.529 -0.3188  0.6473 -1.2223
    3CHL1   C14  164   6.107   5.206   9.403 -0.6607  0.1470  0.6364
    3CHL1   H14  165   6.015   5.264   9.424 -0.0371  0.3545  3.2059
    3CHL1   C15  166   6.054   5.081   9.344  0.3938 -0.3352 -0.3244
    3CHL1  H15A  167   6.126   4.997   9.340 -1.5333 -2.0822 -4.1591
    3CHL1  H15B  168   5.966   5.037   9.395  1.5390 -1.1481  1.0252
    3CHL1   C16  169   6.023   5.118   9.200  0.0491 -0.4957  0.7391
    3CHL1  H16A  170   6.047   5.044   9.120  1.1568  2.1552 -1.5534
    3CHL1  H16B  171   5.916   5.142   9.182  0.2722 -1.1404 -1.7906
    3CHL1   C17  172   6.106   5.251   9.175  0.6211 -0.0585 -0.7968
    3CHL1   H17  173   6.022   5.324   9.174  0.7585  0.1101 -2.6312
    3CHL1   C13  174   6.192   5.283   9.301 -0.1438  0.5203  0.0516
    3CHL1   C18  175   6.323   5.194   9.279 -0.3669 -0.2079  0.3049
    3CHL1  H18A  176   6.304   5.094   9.235 -1.6085 -0.0754  0.4838
    3CHL1  H18B  177   6.387   5.243   9.203 -0.7290 -1.2230 -0.6749
    3CHL1  H18C  178   6.386   5.193   9.370 -0.3475 -0.6450  0.2903
    3CHL1   C12  179   6.223   5.427   9.356  0.0943  0.1331  0.5414
    3CHL1  H12A  180   6.298   5.474   9.289  0.0637 -0.2200  0.2558
    3CHL1  H12B  181   6.135   5.494   9.351  0.1655  0.4412  2.7227
    3CHL1   C11  182   6.288   5.427   9.490  0.4677 -0.9677 -0.2226
    3CHL1  H11A  183   6.387   5.381   9.468  0.2521 -0.8554 -1.5221
    3CHL1  H11B  184   6.314   5.530   9.522 -1.0995 -0.3240 -0.8937
    3CHL1    C9  185   6.203   5.346   9.591 -0.1237  0.4574 -0.2529
    3CHL1    H9  186   6.099   5.387   9.593 -0.2288  0.2577 -1.1080
    3CHL1   C10  187   6.271   5.351   9.735 -0.1038 -0.0447  0.1423
    3CHL1   C19  188   6.418   5.301   9.735 -0.0256 -0.1260 -0.0638
    3CHL1  H19A  189   6.477   5.383   9.688 -0.2979  0.3467  0.4118
    3CHL1  H19B  190   6.460   5.293   9.838  0.8388 -1.6979 -0.5004
    3CHL1  H19C  191   6.438   5.204   9.686 -0.6450  0.4084 -1.4138
    3CHL1    C1  192   6.258   5.498   9.787  0.5479  0.9191  0.1812
    3CHL1   H1A  193   6.327   5.565   9.731  2.9300 -0.1717  1.6833
    3CHL1   H1B  194   6.157   5.543   9.772 -0.7892 -1.0422  2.5326
    3CHL1    C2  195   6.283   5.529   9.937  0.9051  0.1685 -0.2138
    3CHL1   H2A  196   6.241   5.627   9.970  0.8961  0.6542 -1.6230
    3CHL1   H2B  197   6.388   5.507   9.967  0.6558 -2.2977 -0.9537
    3CHL1   C20  198   6.165   5.265   9.038  0.2824 -0.1722 -0.8232
    3CHL1   H20  199   6.267   5.223   9.027  0.5735  0.8372 -2.4403
    3CHL1   C21  200   6.196   5.417   9.016 -0.1640 -0.7317  0.1269
    3CHL1  H21A  201   6.109   5.483   9.034  0.4597  0.5257 -1.2004
    3CHL1  H21B  202   6.221   5.445   8.911 -2.5932  0.2094 -0.2467
    3CHL1  H21C  203   6.277   5.454   9.083 -0.4140  0.3881 -0.1739
    3CHL1   C22  204   6.070   5.223   8.924 -1.1111  0.0963  0.3261
    3CHL1  H22A  205   6.061   5.112   8.925 -3.0863  0.1876 -0.7777
    3CHL1  H22B  206   5.974   5.276   8.943 -1.4305 -0.4690  0.3057
    3CHL1   C23  207   6.113   5.260   8.785 -0.1054  0.4556  0.7909
    3CHL1  H23A  208   6.101   5.369   8.768 -0.0791  0.0773 -2.1849
    3CHL1  H23B  209   6.215   5.224   8.758 -0.3565 -0.7496  1.3978
    3CHL1   C24  210   6.011   5.205   8.674 -0.2325  0.6695  0.7751
    3CHL1  H24A  211   6.018   5.097   8.696  0.1242  0.6322  0.4967
    3CHL1  H24B  212   5.906   5.239   8.690 -0.7625 -0.3199 -0.4760
    3CHL1   C25  213   6.050   5.249   8.524 -0.2015  0.4832 -0.4019
    3CHL1   H25  214   5.985   5.185   8.460 -2.1335  0.6574  1.3085
    3CHL1   C26  215   6.015   5.402   8.507 -0.2006  0.5418 -0.0479
    3CHL1  H26A  216   5.916   5.416   8.555 -1.1653 -1.3981 -1.3523
    3CHL1  H26B  217   6.095   5.454   8.563 -2.0178  1.0645  2.2356
    3CHL1  H26C  218   6.009   5.441   8.403 -1.2236 -1.5968 -0.8599
    3CHL1   C27  219   6.199   5.218   8.495 -0.3625  0.0361  0.5006
    3CHL1  H27A  220   6.252   5.293   8.556 -1.0807  0.3393  0.7674
    3CHL1  H27B  221   6.239   5.118   8.523 -0.5778  0.6572  3.2077
    3CHL1  H27C  222   6.223   5.249   8.391 -2.1743  0.0837  0.0502
    4CHL1    C3  223   6.561   3.541  10.072 -0.0760 -0.1113  0.2032
    4CHL1    H3  224   6.576   3.645  10.036 -1.6098 -0.1207 -0.5449
    4CHL1    O3  225   6.575   3.562  10.210 -0.1408 -0.4789  0.1330
    4CHL1   H3'  226   6.659   3.609  10.215  0.7389 -1.9898  0.5049
    4CHL1    C4  227   6.421   3.495  10.045 -0.0654 -0.2408  0.4256
    4CHL1   H4A  228   6.399   3.408  10.110 -1.8023  0.3210  0.6298
    4CHL1   H4B  229   6.350   3.569  10.086  0.2194 -0.1828  0.8192
    4CHL1    C5  230   6.399   3.481   9.893  0.8566  0.3692  0.1389
    4CHL1    C6  231   6.303   3.546   9.824  0.1576  0.1850 -0.2950
    4CHL1    H6  232   6.230   3.612   9.873  0.3198  1.8097 -2.0817
    4CHL1    C7  233   6.272   3.523   9.681 -0.6594  0.4292 -0.2371
    4CHL1   H7A  234   6.165   3.499   9.666 -0.4950 -0.3790 -0.1630
    4CHL1   H7B  235   6.309   3.607   9.618  1.3134 -1.3122 -1.5649
    4CHL1    C8  236   6.350   3.400   9.614 -0.0324  0.7501  0.3259
    4CHL1    H8  237   6.286   3.309   9.626  1.9207 -0.7765 -0.2391
    4CHL1   C14  238   6.376   3.427   9.469 -0.1228 -0.6637  0.4527
    4CHL1   H14  239   6.436   3.520   9.467  0.3740 -0.9422  1.6981
    4CHL1   C15  240   6.254   3.460   9.380  0.8101 -0.5851 -0.0094
    4CHL1  H15A  241   6.169   3.390   9.396 -0.9686  0.7593 -2.8821
    4CHL1  H15B  242   6.220   3.566   9.381  0.3234 -0.7162 -1.3851
    4CHL1   C16  243   6.302   3.444   9.239 -0.6912  1.0561  0.4353
    4CHL1  H16A  244   6.223   3.386   9.187 -0.9960  1.7181  0.1484
    4CHL1  H16B  245   6.315   3.542   9.188 -0.6950  0.9708  0.2677
    4CHL1   C17  246   6.443   3.381   9.252 -0.0464  0.6830  0.2667
    4CHL1   H17  247   6.520   3.461   9.256 -1.2554  2.0800 -2.1716
    4CHL1   C13  248   6.446   3.317   9.387 -0.0533  0.2989 -0.0286
    4CHL1   C18  249   6.365   3.190   9.384  0.8262 -0.1410 -0.6194
    4CHL1  H18A  250   6.424   3.112   9.331 -1.5171 -0.6129 -2.6751
    4CHL1  H18B  251   6.337   3.156   9.486  1.0481  0.8587 -0.2098
    4CHL1  H18C  252   6.275   3.205   9.321  0.6068  0.7371 -0.1177
    4CHL1   C12  253   6.591   3.304   9.457 -0.0850 -0.3861  0.3990
    4CHL1  H12A  254   6.647   3.227   9.401  0.2440 -0.0302  0.2368
    4CHL1  H12B  255   6.650   3.396   9.437 -0.3209 -0.5596 -1.2349
    4CHL1   C11  256   6.571   3.266   9.598  0.7879  0.1173  0.4471
    4CHL1  H11A  257   6.520   3.167   9.604 -0.0685  0.5767  1.0138
    4CHL1  H11B  258   6.661   3.243   9.660 -0.9075 -1.7653  2.4055
    4CHL1    C9  259   6.489   3.377   9.672  0.3686 -0.8245 -0.2915
    4CHL1    H9  260   6.546   3.469   9.646  1.4606 -1.7349 -1.2827
    4CHL1   C10  261   6.498   3.375   9.827 -0.1697 -0.3020 -0.3896
    4CHL1   C19  262   6.453   3.237   9.865 -0.2508  0.2353  0.5188
    4CHL1  H19A  263   6.452   3.222   9.975  1.5355  0.8428  0.6367
    4CHL1  H19B  264   6.346   3.230   9.833 -0.0190 -0.3881 -0.1662
    4CHL1  H19C  265   6.519   3.157   9.825  0.3576  0.6248  0.7388
    4CHL1    C1  266   6.653   3.400   9.869  1.0562  0.3211  0.2500
    4CHL1   H1A  267   6.706   3.304   9.857  0.6816  0.1901 -0.3674
    4CHL1   H1B  268   6.707   3.468   9.800  0.1463  2.4623  1.5392
    4CHL1    C2  269   6.662   3.441  10.021 -0.1720 -0.1195  0.3177
    4CHL1   H2A  270   6.769   3.469  10.028 -0.2538 -0.0158  1.2092
    4CHL1   H2B  271   6.659   3.343  10.073 -1.1058 -1.2527 -1.7382
    4CHL1   C20  272   6.474   3.293   9.129 -0.4095 -0.3189 -0.5949
    4CHL1   H20  273   6.408   3.204   9.139 -0.4867 -0.3663 -1.4959
    4CHL1   C21  274   6.614   3.240   9.138 -1.3116 -0.3844  0.5958
    4CHL1  H21A  275   6.630   3.169   9.223  2.7453  0.3218  0.6241
    4CHL1  H21B  276   6.681   3.328   9.130 -1.0909 -0.6161 -0.1574
    4CHL1  H21C  277   6.639   3.169   9.056 -1.1016 -0.0138  0.3403
    4CHL1   C22  278   6.449   3.369   8.988 -0.1280  1.1535 -0.1092
    4CHL1  H22A  279   6.351   3.420   8.994 -1.8102 -1.8520 -0.4109
    4CHL1  H22B  280   6.532   3.442   8.976 -0.3269  1.3520 -0.2966
    4CHL1   C23  281   6.430   3.280   8.859 -0.0903 -0.0485  0.1686
    4CHL1  H23A  282   6.529   3.235   8.835 -0.1873 -1.2123  1.8011
    4CHL1  H23B  283   6.348   3.207   8.877 -0.4313  0.1940 -0.3881
    4CHL1   C24  284   6.396   3.361   8.727 -0.2057 -0.5006  0.1044
    4CHL1  H24A  285   6.313   3.427   8.762  0.7400  1.1029 -0.5699
    4CHL1  H24B  286   6.491   3.414   8.705 -0.2602 -0.2014  0.5943
    4CHL1   C25  287   6.353   3.273   8.612  0.3144 -0.5808  0.4532
    4CHL1   H25  288   6.278   3.206   8.660 -1.5906  1.8289  1.0486
    4CHL1   C26  289   6.276   3.358   8.501 -0.2911  0.1678 -0.1674
    4CHL1  H26A  290   6.359   3.410   8.448  2.5713 -2.5271  1.3856
    4CHL1  H26B  291   6.219   3.302   8.423 -2.1736  3.2873 -1.2465
    4CHL1  H26C  292   6.204   3.427   8.549  0.9107 -0.8383  3.3745
    4CHL1   C27  293   6.475   3.194   8.556  0.5936  0.4316 -0.4113
    4CHL1  H27A  294   6.521   3.134   8.637 -2.4032 -1.0268  0.3375
    4CHL1  H27B  295   6.445   3.135   8.467 -0.4399 -1.2204  0.9556
    4CHL1  H27C  296   6.559   3.263   8.534  0.2896  0.5250 -1.2915
    5CHL1    C3  297   6.702   6.672  10.026  0.2260 -0.3895  0.0003
    5CHL1    H3  298   6.801   6.623  10.019 -0.1084 -1.5269  2.1698
    5CHL1    O3  299   6.685   6.701  10.164  0.3660  0.4276 -0.0444
    5CHL1   H3'  300   6.591   6.719  10.171  0.9910  4.1264  0.7906
    5CHL1    C4  301   6.679   6.808   9.950 -0.3211  0.8906 -0.4515
    5CHL1   H4A  302   6.572   6.824   9.976 -0.5341 -0.8890 -0.0707
    5CHL1   H4B  303   6.742   6.888   9.994 -1.8512  0.8472  2.0082
    5CHL1    C5  304   6.712   6.779   9.799 -0.4276  0.2190  0.1158
    5CHL1    C6  305   6.808   6.854   9.736  0.3782 -0.0567  0.4161
    5CHL1    H6  306   6.861   6.933   9.790  0.2531 -0.1022  0.6076
    5CHL1    C7  307   6.849   6.817   9.597 -0.1374  0.3197 -0.8716
    5CHL1   H7A  308   6.873   6.906   9.535  2.5942  0.0134 -0.3446
    5CHL1   H7B  309   6.944   6.761   9.595 -1.1777 -1.5095 -1.2304
    5CHL1    C8  310   6.745   6.735   9.513  0.4305 -0.0218  0.3054
    5CHL1    H8  311   6.656   6.799   9.497  0.1788 -0.7085 -1.2458
    5CHL1   C14  312   6.811   6.679   9.393  0.4147 -0.0444  0.0410
    5CHL1   H14  313   6.883   6.608   9.441 -1.4973 -1.5477  0.8444
    5CHL1   C15  314   6.892   6.775   9.302 -1.2422  0.2278 -0.2994
    5CHL1  H15A  315   6.841   6.873   9.292 -1.0324  0.6046  1.7903
    5CHL1  H15B  316   6.999   6.778   9.333 -0.9076 -3.7392 -0.5228
    5CHL1   C16  317   6.896   6.700   9.162 -0.1006  0.2138 -0.1672
    5CHL1  H16A  318   6.849   6.766   9.085  0.5208  0.2131 -0.5529
    5CHL1  H16B  319   7.002   6.687   9.132 -0.0014  1.3354 -0.3787
    5CHL1   C17  320   6.818   6.559   9.191 -0.8890 -0.6487  0.4554
    5CHL1   H17  321   6.885   6.485   9.239 -1.3530 -2.1838 -1.1640
    5CHL1   C13  322   6.724   6.589   9.306 -0.4149  0.1734 -0.0247
    5CHL1   C18  323   6.608   6.674   9.244  0.2226  0.4991 -0.3797
    5CHL1  H18A  324   6.528   6.621   9.187 -1.4564  1.8153  0.6405
    5CHL1  H18B  325   6.555   6.735   9.320  0.2028  0.6679 -0.5295
    5CHL1  H18C  326   6.648   6.754   9.179  0.6272  0.7954  0.2343
    5CHL1   C12  327   6.671   6.474   9.388  0.0306  0.6990  0.2498
    5CHL1  H12A  328   6.598   6.413   9.330 -0.5212  0.2189  1.3995
    5CHL1  H12B  329   6.761   6.423   9.429 -0.5578  0.9820  1.9721
    5CHL1   C11  330   6.600   6.529   9.514 -0.0933 -0.0061 -0.0651
    5CHL1  H11A  331   6.514   6.582   9.469 -0.2070  0.1321  0.3065
    5CHL1  H11B  332   6.555   6.451   9.579 -2.0712  1.4490  0.4048
    5CHL1    C9  333   6.692   6.618   9.600 -0.2180 -0.5160 -0.2693
    5CHL1    H9  334   6.785   6.560   9.618  0.1064  0.6798  2.2125
    5CHL1   C10  335   6.630   6.657   9.735 -0.7687 -0.2724 -0.2921
    5CHL1   C19  336   6.479   6.712   9.717 -0.1671 -0.4823  0.0857
    5CHL1  H19A  337   6.418   6.630   9.674 -0.2622 -0.5169  0.2873
    5CHL1  H19B  338   6.439   6.751   9.814  0.4269 -2.3575  1.1304
    5CHL1  H19C  339   6.491   6.800   9.651  1.1047  1.0953  2.2830
    5CHL1    C1  340   6.631   6.534   9.829  0.4885  0.2366  0.0404
    5CHL1   H1A  341   6.573   6.448   9.790  2.0653  0.2915 -2.6738
    5CHL1   H1B  342   6.738   6.505   9.824  0.4835  0.4443 -3.0121
    5CHL1    C2  343   6.604   6.563   9.978 -0.0110 -0.2219 -0.3161
    5CHL1   H2A  344   6.614   6.467  10.034 -0.1708  0.6606  1.2816
    5CHL1   H2B  345   6.501   6.605   9.984 -1.3980 -3.3425 -0.0693
    5CHL1   C20  346   6.777   6.503   9.054  0.4571 -0.3900  0.5207
    5CHL1   H20  347   6.694   6.561   9.007  0.8095 -1.1716 -1.1526
    5CHL1   C21  348   6.729   6.365   9.071  0.2749  0.4684  0.1865
    5CHL1  H21A  349   6.654   6.344   9.149 -0.8276 -2.6499 -1.5536
    5CHL1  H21B  350   6.818   6.312   9.111  2.3801  2.4175 -1.6085
    5CHL1  H21C  351   6.701   6.308   8.980 -1.4053  0.1410  0.8740
    5CHL1   C22  352   6.895   6.508   8.943 -0.0157 -0.2180 -1.2126
    5CHL1  H22A  353   6.905   6.613   8.911  0.3607 -0.6870 -2.6986
    5CHL1  H22B  354   6.991   6.470   8.982  0.8592  0.6218 -2.4842
    5CHL1   C23  355   6.869   6.429   8.813 -0.7802 -0.3322  0.3726
    5CHL1  H23A  356   6.962   6.443   8.754 -0.7702 -0.7674  0.2816
    5CHL1  H23B  357   6.863   6.320   8.836 -0.5559 -0.7852 -1.5290
    5CHL1   C24  358   6.759   6.481   8.720  0.4036 -0.0762  1.3872
    5CHL1  H24A  359   6.670   6.498   8.785 -1.2707 -0.3800 -0.7171
    5CHL1  H24B  360   6.800   6.577   8.682 -1.3973  0.3424  0.3912
    5CHL1   C25  361   6.715   6.390   8.602 -0.4653  0.3485 -0.0836
    5CHL1   H25  362   6.705   6.286   8.638  4.6952 -1.7709 -3.6569
    5CHL1   C26  363   6.589   6.440   8.525 -0.3400  0.3831 -0.5149
    5CHL1  H26A  364   6.593   6.543   8.481 -0.1659  0.1643 -1.0261
    5CHL1  H26B  365   6.544   6.378   8.444 -0.5992  0.7444 -0.6507
    5CHL1  H26C  366   6.502   6.441   8.594 -0.8801 -1.1272 -1.1362
    5CHL1   C27  367   6.827   6.368   8.506  0.5967 -0.1656 -0.4582
    5CHL1  H27A  368   6.907   6.303   8.547 -1.2882 -2.8123 -0.7016
    5CHL1  H27B  369   6.790   6.312   8.417 -0.2394 -1.8778  0.9046
    5CHL1  H27C  370   6.862   6.466   8.467  1.0172 -0.5633 -1.0959
    6CHL1    C3  371   5.847   5.844   9.993  0.1958  0.1407  0.1552
    6CHL1    H3  372   5.736   5.835   9.984  0.2899 -0.2136 -0.8388
    6CHL1    O3  373   5.872   5.852  10.131 -0.0992 -0.1887 -0.1861
    6CHL1   H3'  374   5.800   5.808  10.178  1.0136 -0.0206  1.7794
    6CHL1    C4  375   5.907   5.721   9.925  0.1255 -0.5902  0.0423
    6CHL1   H4A  376   6.016   5.709   9.941  0.2456 -0.5655 -0.7012
    6CHL1   H4B  377   5.865   5.631   9.975 -1.3910  0.0560 -0.0272
    6CHL1    C5  378   5.878   5.723   9.772  0.4172  0.1867  0.2603
    6CHL1    C6  379   5.805   5.629   9.707 -0.0208 -0.4615  0.0323
    6CHL1    H6  380   5.758   5.552   9.770 -0.8707 -0.7332 -0.9169
    6CHL1    C7  381   5.785   5.632   9.560 -0.0527 -0.4490  0.6372
    6CHL1   H7A  382   5.784   5.529   9.517  2.8637  0.3776 -1.7776
    6CHL1   H7B  383   5.681   5.668   9.552 -0.3856 -1.1148  1.8144
    6CHL1    C8  384   5.879   5.722   9.483  0.6405 -0.0503  0.4481
    6CHL1    H8  385   5.983   5.683   9.490  0.5763  0.0737  2.5940
    6CHL1   C14  386   5.839   5.733   9.337  0.2601  0.0046 -0.0014
    6CHL1   H14  387   5.735   5.771   9.337 -0.1332 -1.0106  0.9762
    6CHL1   C15  388   5.839   5.607   9.250  0.2157 -0.3009  0.3419
    6CHL1  H15A  389   5.936   5.554   9.247 -0.2124 -1.0624 -0.6136
    6CHL1  H15B  390   5.766   5.529   9.280  1.7016 -0.8900  2.6314
    6CHL1   C16  391   5.813   5.663   9.105  0.1451  0.6689  0.0562
    6CHL1  H16A  392   5.891   5.613   9.044 -1.0371  1.0935 -1.8825
    6CHL1  H16B  393   5.715   5.631   9.063 -0.7437  0.1374  2.3421
    6CHL1   C17  394   5.831   5.821   9.105  0.4825 -0.5843  0.2606
    6CHL1   H17  395   5.729   5.861   9.124 -0.3891 -1.5157 -2.1277
    6CHL1   C13  396   5.910   5.849   9.247  0.8557 -0.2792  0.4539
    6CHL1   C18  397   6.060   5.838   9.227 -0.0353 -0.3305  0.1895
    6CHL1  H18A  398   6.089   5.789   9.132  1.9483  2.4026 -0.7432
    6CHL1  H18B  399   6.109   5.938   9.234  1.9828 -1.2845  0.4854
    6CHL1  H18C  400   6.098   5.767   9.303 -0.4941 -1.2331 -0.4072
    6CHL1   C12  401   5.881   5.979   9.325  0.1888 -0.0920 -0.2256
    6CHL1  H12A  402   5.938   6.058   9.271 -0.8624  1.3433  0.6958
    6CHL1  H12B  403   5.776   6.016   9.322  0.0120 -0.2707  2.0359
    6CHL1   C11  404   5.939   5.974   9.466 -0.3634 -0.3315  0.0945
    6CHL1  H11A  405   6.048   5.955   9.462 -0.4534 -0.7003 -0.7389
    6CHL1  H11B  406   5.922   6.072   9.516  1.5103 -0.0710  0.3059
    6CHL1    C9  407   5.870   5.856   9.549 -0.7997 -0.9206 -0.1825
    6CHL1    H9  408   5.761   5.879   9.557 -0.0714  2.4921  1.9049
    6CHL1   C10  409   5.924   5.851   9.705  0.1021  0.7245  0.6851
    6CHL1   C19  410   6.076   5.857   9.687  0.0431 -0.4935 -0.6619
    6CHL1  H19A  411   6.104   5.962   9.666 -0.3528 -0.1777  0.3404
    6CHL1  H19B  412   6.121   5.836   9.786 -0.9603  1.5003  0.2708
    6CHL1  H19C  413   6.129   5.789   9.616  0.2650 -0.9614 -0.0572
    6CHL1    C1  414   5.862   5.979   9.773 -0.4988 -0.2356  0.2398
    6CHL1   H1A  415   5.906   6.069   9.724 -0.8546 -0.1815  0.0143
    6CHL1   H1B  416   5.752   5.990   9.760 -0.3568  1.4548  0.1938
    6CHL1    C2  417   5.894   5.975   9.926 -0.1088 -0.0467 -0.2532
    6CHL1   H2A  418   5.837   6.057   9.974 -2.6583 -1.1929 -1.1577
    6CHL1   H2B  419   6.002   5.988   9.948  0.1656 -0.0271 -1.5076
    6CHL1   C20  420   5.865   5.890   8.975  0.4665  0.3790  0.0771
    6CHL1   H20  421   5.965   5.861   8.936  0.5195  0.2631  0.2993
    6CHL1   C21  422   5.876   6.040   8.994  0.3142  0.3886  0.1501
    6CHL1  H21A  423   5.979   6.053   9.034  0.0432  0.9966  0.6544
    6CHL1  H21B  424   5.807   6.070   9.075  0.2237 -2.0930  1.0710
    6CHL1  H21C  425   5.876   6.098   8.899  0.2961  2.4961  1.3744
    6CHL1   C22  426   5.763   5.848   8.863 -0.1074  0.7265  0.7457
    6CHL1  H22A  427   5.744   5.740   8.882 -0.4047  0.5243 -0.5777
    6CHL1  H22B  428   5.671   5.910   8.873 -0.8253 -0.1887 -0.0560
    6CHL1   C23  429   5.826   5.851   8.729  0.1543  0.1483  1.2936
    6CHL1  H23A  430   5.862   5.950   8.694 -0.7386  0.6810  1.8328
    6CHL1  H23B  431   5.918   5.788   8.731  0.9659  1.1276 -0.9577
    6CHL1   C24  432   5.730   5.790   8.623 -0.1970  0.1768 -0.3152
    6CHL1  H24A  433   5.709   5.684   8.648 -0.5248  0.4426  0.5496
    6CHL1  H24B  434   5.633   5.840   8.639 -0.8062 -1.2791  0.7752
    6CHL1   C25  435   5.770   5.812   8.476 -0.9781 -0.3049  0.8961
    6CHL1   H25  436   5.758   5.921   8.458  1.2555 -0.0350  0.7708
    6CHL1   C26  437   5.917   5.781   8.451  0.5403  0.6621 -0.2773
    6CHL1  H26A  438   5.984   5.869   8.464 -0.3052  1.6369 -2.1223
    6CHL1  H26B  439   5.947   5.685   8.498 -1.1273  0.5104  0.5213
    6CHL1  H26C  440   5.929   5.754   8.344  0.2135 -2.1533  0.3193
    6CHL1   C27  441   5.680   5.737   8.372  0.3137  0.5333  0.3128
    6CHL1  H27A  442   5.577   5.778   8.371  0.1189  0.0569  0.4934
    6CHL1  H27B  443   5.716   5.756   8.269 -1.3309 -1.3972 -0.6975
    6CHL1  H27C  444   5.675   5.627   8.379  0.2657  0.4151 -1.2939
    7CHL1    C3  445   1.464   0.728   9.797  0.2190  1.3801 -0.4007
    7CHL1    H3  446   1.574   0.739   9.791  0.3050  0.6324 -0.3107
    7CHL1    O3  447   1.427   0.710   9.934 -0.3687  0.2436 -0.0951
    7CHL1   H3'  448   1.333   0.709   9.955 -0.2959 -0.2096  0.2213
    7CHL1    C4  449   1.388   0.842   9.743 -0.1012 -0.3342  0.8155
    7CHL1   H4A  450   1.285   0.804   9.758  0.0922 -0.5574  1.6542
    7CHL1   H4B  451   1.385   0.934   9.806 -3.8396  2.0410 -2.3634
    7CHL1    C5  452   1.419   0.883   9.601 -0.3524 -0.4362 -0.6500
    7CHL1    C6  453   1.469   0.997   9.555  0.1887  0.3134 -0.4375
    7CHL1    H6  454   1.479   1.078   9.628 -0.0681  1.0802 -1.2335
    7CHL1    C7  455   1.489   1.026   9.411  0.0386 -0.0267  0.4232
    7CHL1   H7A  456   1.441   1.122   9.381 -0.6578 -1.1813 -2.4640
    7CHL1   H7B  457   1.596   1.040   9.386  0.3044 -0.4762  1.2530
    7CHL1    C8  458   1.427   0.917   9.317 -0.2029 -0.2516 -0.4483
    7CHL1    H8  459   1.316   0.927   9.311 -0.0494  1.3414 -1.2761
    7CHL1   C14  460   1.472   0.952   9.180 -0.5672 -0.3773  0.4558
    7CHL1   H14  461   1.582   0.935   9.174 -0.6502 -0.3390 -3.6437
    7CHL1   C15  462   1.452   1.093   9.122 -0.3144  1.1570 -0.4069
    7CHL1  H15A  463   1.374   1.147   9.179  1.4567  1.6658  1.6673
    7CHL1  H15B  464   1.545   1.154   9.125  0.9732 -0.7796  0.8639
    7CHL1   C16  465   1.421   1.085   8.969 -0.2980 -0.0022 -0.5281
    7CHL1  H16A  466   1.315   1.110   8.949 -0.0958  3.0935  1.5950
    7CHL1  H16B  467   1.489   1.155   8.915 -1.5594  0.6763 -1.2755
    7CHL1   C17  468   1.450   0.931   8.942 -0.7543 -0.2462  0.5448
    7CHL1   H17  469   1.561   0.936   8.933 -0.6381  1.6316  2.2295
    7CHL1   C13  470   1.411   0.854   9.076  0.4711  0.2826  0.2862
    7CHL1   C18  471   1.252   0.850   9.082 -0.5427  0.0260 -0.2989
    7CHL1  H18A  472   1.218   0.785   8.999  1.0622  0.1114 -1.0647
    7CHL1  H18B  473   1.220   0.805   9.179 -0.4162  1.3903  0.4021
    7CHL1  H18C  474   1.190   0.940   9.068 -2.2882 -0.9874  0.5686
    7CHL1   C12  475   1.477   0.718   9.107  0.2943 -0.1076 -0.8540
    7CHL1  H12A  476   1.436   0.636   9.044 -1.2493 -1.5586  1.8097
    7CHL1  H12B  477   1.584   0.739   9.088  0.1812  0.3540 -0.9991
    7CHL1   C11  478   1.447   0.665   9.260 -0.7958 -0.5871  1.1704
    7CHL1  H11A  479   1.340   0.639   9.269 -1.0512  0.1253  0.3625
    7CHL1  H11B  480   1.515   0.582   9.287  0.2083  0.0889  0.8152
    7CHL1    C9  481   1.473   0.779   9.368 -0.1868 -0.4465 -0.1900
    7CHL1    H9  482   1.583   0.787   9.384  0.1032 -0.8132 -1.7972
    7CHL1   C10  483   1.400   0.763   9.503  0.5808 -0.7701 -0.4829
    7CHL1   C19  484   1.253   0.757   9.478 -0.3344 -0.4699  0.1651
    7CHL1  H19A  485   1.215   0.860   9.456 -0.2901 -0.8306 -1.7534
    7CHL1  H19B  486   1.211   0.679   9.411  0.0583 -2.2186  1.8581
    7CHL1  H19C  487   1.208   0.737   9.577  1.4852 -2.2030  0.6999
    7CHL1    C1  488   1.446   0.628   9.566  0.1667  0.4665 -0.2552
    7CHL1   H1A  489   1.404   0.546   9.503 -2.1735  0.7882  0.7811
    7CHL1   H1B  490   1.553   0.627   9.536  0.0293 -0.6558 -0.7636
    7CHL1    C2  491   1.427   0.602   9.720 -0.1680  0.3857  0.0073
    7CHL1   H2A  492   1.482   0.514   9.758  0.2419  0.5806 -0.1299
    7CHL1   H2B  493   1.320   0.580   9.740  0.4846 -1.1885  2.0855
    7CHL1   C20  494   1.410   0.876   8.810 -0.1020 -0.7356 -0.1018
    7CHL1   H20  495   1.313   0.826   8.829 -0.2962  0.0381  1.0580
    7CHL1   C21  496   1.510   0.779   8.756 -0.5320  0.2908 -0.5197
    7CHL1  H21A  497   1.607   0.833   8.748 -0.6724  0.6303  0.0043
    7CHL1  H21B  498   1.468   0.725   8.668 -0.7280  0.5651 -0.5972
    7CHL1  H21C  499   1.521   0.695   8.827  0.0684 -0.4377 -1.4466
    7CHL1   C22  500   1.358   0.983   8.708  0.1841 -0.6318  0.6378
    7CHL1  H22A  501   1.317   0.930   8.619 -2.1443  2.3379 -0.2278
    7CHL1  H22B  502   1.277   1.046   8.750 -0.2296 -1.7196  1.5268
    7CHL1   C23  503   1.461   1.077   8.645 -1.4301  0.1553 -0.1973
    7CHL1  H23A  504   1.518   1.130   8.724 -2.5627 -0.1457  0.8638
    7CHL1  H23B  505   1.531   1.020   8.581 -0.9389  1.7174 -1.1279
    7CHL1   C24  506   1.405   1.178   8.543 -0.1858 -0.3521 -1.2501
    7CHL1  H24A  507   1.366   1.127   8.452  0.1566 -1.5826 -0.7351
    7CHL1  H24B  508   1.321   1.237   8.584  0.7740 -0.0065  0.3304
    7CHL1   C25  509   1.498   1.285   8.485  0.5213 -0.4007 -1.0908
    7CHL1   H25  510   1.540   1.353   8.562 -0.4087 -0.6205 -0.3729
    7CHL1   C26  511   1.629   1.217   8.429 -0.0658  0.6369  1.3838
    7CHL1  H26A  512   1.676   1.174   8.520  0.8406 -0.5547  0.3791
    7CHL1  H26B  513   1.596   1.131   8.367  0.4390 -1.1157  3.3981
    7CHL1  H26C  514   1.695   1.284   8.372  1.3469 -2.9189 -1.5806
    7CHL1   C27  515   1.418   1.354   8.374  0.7069 -0.4633 -0.6436
    7CHL1  H27A  516   1.375   1.281   8.302  0.4584  0.1853 -1.1725
    7CHL1  H27B  517   1.336   1.415   8.418  0.7126  0.4280 -1.8321
    7CHL1  H27C  518   1.487   1.424   8.322  1.7853 -0.3435  0.8941
    8CHL1    C3  519   1.882   3.418   9.587  0.3082  0.8360 -0.3141
    8CHL1    H3  520   1.982   3.459   9.612  0.0035  0.8127  1.0020
    8CHL1    O3  521   1.825   3.397   9.715  1.2349 -0.5467 -0.4531
    8CHL1   H3'  522   1.882   3.349   9.775  0.4288  0.4288  1.1653
    8CHL1    C4  523   1.788   3.510   9.513 -0.3800  0.1962  1.3053
    8CHL1   H4A  524   1.682   3.476   9.514 -0.3292 -0.1490 -0.6843
    8CHL1   H4B  525   1.798   3.603   9.573 -2.3936  0.6177  1.0693
    8CHL1    C5  526   1.842   3.535   9.373  0.9034 -0.0139 -0.6871
    8CHL1    C6  527   1.879   3.659   9.338 -0.2434  0.2266  0.5746
    8CHL1    H6  528   1.871   3.744   9.407 -1.1938  0.0998  0.6278
    8CHL1    C7  529   1.906   3.683   9.189  0.8837 -0.0290 -0.4440
    8CHL1   H7A  530   1.836   3.764   9.158  0.9474 -0.5882 -2.1475
    8CHL1   H7B  531   2.008   3.725   9.171  1.1165  0.0345  0.9258
    8CHL1    C8  532   1.880   3.566   9.083  0.8391  0.2440 -0.5960
    8CHL1    H8  533   1.771   3.554   9.062  0.4856 -0.2391  1.3047
    8CHL1   C14  534   1.961   3.579   8.958 -0.5305 -0.0340 -0.5215
    8CHL1   H14  535   2.066   3.582   8.993 -0.7017  1.0673 -0.0556
    8CHL1   C15  536   1.953   3.709   8.878  0.8787 -0.5226  0.0881
    8CHL1  H15A  537   1.845   3.729   8.861 -0.2910 -1.3540  5.0819
    8CHL1  H15B  538   1.998   3.792   8.937  1.5729 -1.8108  1.4158
    8CHL1   C16  539   2.016   3.679   8.745 -0.4099 -0.0035  0.1550
    8CHL1  H16A  540   1.946   3.699   8.661 -1.9412 -0.5265  1.2397
    8CHL1  H16B  541   2.113   3.732   8.739  0.3421 -1.2200  1.1168
    8CHL1   C17  542   2.050   3.522   8.740  0.4022  0.7120  0.5453
    8CHL1   H17  543   2.155   3.514   8.775  1.2874 -1.6854 -2.2619
    8CHL1   C13  544   1.960   3.460   8.857 -0.5625 -0.4408  0.3790
    8CHL1   C18  545   1.819   3.431   8.806 -0.0946 -0.3799 -0.0973
    8CHL1  H18A  546   1.752   3.411   8.892  0.7856  0.0200  0.6937
    8CHL1  H18B  547   1.781   3.515   8.745 -0.7055 -0.5820 -0.0095
    8CHL1  H18C  548   1.815   3.335   8.750 -2.7185 -0.2877 -0.1885
    8CHL1   C12  549   2.021   3.334   8.930 -0.3179  0.6423 -0.8626
    8CHL1  H12A  550   1.995   3.245   8.869  0.9435  0.4109 -1.0978
    8CHL1  H12B  551   2.131   3.338   8.945 -0.6559 -0.3872  3.4143
    8CHL1   C11  552   1.935   3.315   9.058  0.3563  0.3516  0.2803
    8CHL1  H11A  553   1.832   3.290   9.027  0.5456  0.7350 -0.6815
    8CHL1  H11B  554   1.977   3.226   9.110 -0.6475 -0.5846 -0.4894
    8CHL1    C9  555   1.935   3.438   9.155  0.2795  0.6561  0.5906
    8CHL1    H9  556   2.038   3.469   9.181 -0.0527  2.4286 -0.0873
    8CHL1   C10  557   1.859   3.412   9.286 -0.1873  0.1287 -0.4905
    8CHL1   C19  558   1.713   3.354   9.260 -0.0637  0.0626 -0.3304
    8CHL1  H19A  559   1.660   3.325   9.353 -0.5628 -2.3078 -1.2692
    8CHL1  H19B  560   1.650   3.423   9.200  0.0867  0.6874  0.2196
    8CHL1  H19C  561   1.731   3.259   9.206  3.1252 -1.5923  3.1744
    8CHL1    C1  562   1.945   3.312   9.372 -0.2529 -0.8540 -0.8930
    8CHL1   H1A  563   1.936   3.219   9.311 -0.1940 -0.2156 -1.9128
    8CHL1   H1B  564   2.051   3.342   9.386  0.0524 -2.6190  1.2196
    8CHL1    C2  565   1.900   3.285   9.520  0.0312  0.3822 -0.1546
    8CHL1   H2A  566   1.979   3.227   9.572  1.6441  2.8248  0.2699
    8CHL1   H2B  567   1.804   3.230   9.504 -0.2258  0.4958  0.9371
    8CHL1   C20  568   2.039   3.458   8.597  0.3452 -0.6440  0.1923
    8CHL1   H20  569   1.935   3.472   8.562  0.2741 -0.2057  0.5637
    8CHL1   C21  570   2.077   3.306   8.599 -0.7484 -0.8416 -0.1173
    8CHL1  H21A  571   2.104   3.257   8.503  0.2959 -3.4874  1.4211
    8CHL1  H21B  572   2.002   3.237   8.644  0.5583 -2.2902 -0.0788
    8CHL1  H21C  573   2.167   3.291   8.663  0.6454  1.7473 -1.2896
    8CHL1   C22  574   2.124   3.520   8.479 -1.1358 -0.3257  0.3246
    8CHL1  H22A  575   2.154   3.623   8.508  0.1180 -0.1912 -1.3030
    8CHL1  H22B  576   2.222   3.468   8.475 -1.1015 -0.2119 -0.4898
    8CHL1   C23  577   2.059   3.517   8.342  0.0014 -0.0551  0.4745
    8CHL1  H23A  578   2.044   3.412   8.311 -0.2978  0.4392 -1.1383
    8CHL1  H23B  579   1.960   3.566   8.332 -0.0102 -0.4647 -2.0066
    8CHL1   C24  580   2.143   3.596   8.237 -0.4327 -0.0415 -0.3708
    8CHL1  H24A  581   2.174   3.694   8.278  0.0097  0.2775 -1.4215
    8CHL1  H24B  582   2.233   3.533   8.223  0.0700  0.1402  1.7445
    8CHL1   C25  583   2.077   3.614   8.094 -0.3867  0.1284  0.4488
    8CHL1   H25  584   1.974   3.653   8.112 -0.5282  0.8273 -1.6024
    8CHL1   C26  585   2.153   3.727   8.011 -0.1183  0.1276 -0.4532
    8CHL1  H26A  586   2.145   3.819   8.074 -0.6815  0.8170 -1.4923
    8CHL1  H26B  587   2.253   3.692   7.978 -1.1373 -1.5841 -1.8783
    8CHL1  H26C  588   2.086   3.734   7.923 -1.4469  1.5929  0.6122
    8CHL1   C27  589   2.095   3.486   8.011  0.5742 -0.0843  0.2802
    8CHL1  H27A  590   2.042   3.404   8.065 -5.7780  1.8355 -2.1879
    8CHL1  H27B  591   2.052   3.498   7.909  0.7489  4.5071  0.5525
    8CHL1  H27C  592   2.200   3.457   7.990  1.1494  2.8914 -1.3927
    9CHL1    C3  593   3.553   6.280   9.847  0.5418  0.8128 -0.1755
    9CHL1    H3  594   3.443   6.286   9.856  0.3886 -1.8756  0.5977
    9CHL1    O3  595   3.605   6.323   9.967 -0.4735 -0.6637  0.5195
    9CHL1   H3'  596   3.596   6.419   9.964  1.7954 -0.4093 -1.6487
    9CHL1    C4  597   3.595   6.130   9.825 -0.4166  0.0433 -0.2271
    9CHL1   H4A  598   3.704   6.113   9.829 -0.4351 -0.2591 -0.9453
    9CHL1   H4B  599   3.552   6.067   9.906  1.1810 -2.3605 -1.1640
    9CHL1    C5  600   3.559   6.077   9.691 -0.0223 -0.4854  1.2178
    9CHL1    C6  601   3.481   5.964   9.671  0.0019 -0.1704  0.9300
    9CHL1    H6  602   3.435   5.917   9.760 -0.9662  0.3921  0.7337
    9CHL1    C7  603   3.457   5.901   9.538  0.9662  0.5256 -0.2917
    9CHL1   H7A  604   3.458   5.791   9.556  2.8979  0.6026  0.3039
    9CHL1   H7B  605   3.353   5.931   9.514  0.2522  0.2752  2.1670
    9CHL1    C8  606   3.549   5.944   9.429  0.4830  0.3779  0.1765
    9CHL1    H8  607   3.649   5.901   9.452  0.2377 -1.3221 -1.6560
    9CHL1   C14  608   3.503   5.907   9.283  0.2063 -0.1077 -0.0383
    9CHL1   H14  609   3.400   5.950   9.279 -0.4638 -1.7004 -0.6262
    9CHL1   C15  610   3.453   5.768   9.252  0.0888  0.7094 -0.5094
    9CHL1  H15A  611   3.528   5.689   9.269 -1.8849 -1.1986 -0.2011
    9CHL1  H15B  612   3.363   5.741   9.311 -0.5850  0.0103 -1.8074
    9CHL1   C16  613   3.421   5.770   9.096  0.0752 -0.2327  0.5511
    9CHL1  H16A  614   3.471   5.685   9.045  1.1424  0.5797  0.1768
    9CHL1  H16B  615   3.313   5.761   9.071  0.3990 -0.6853 -0.7430
    9CHL1   C17  616   3.481   5.907   9.049 -0.1932  0.1881  0.1735
    9CHL1   H17  617   3.395   5.977   9.056 -0.5708 -0.1333 -1.0854
    9CHL1   C13  618   3.584   5.951   9.158  0.4260 -0.8693  0.5009
    9CHL1   C18  619   3.713   5.872   9.151  0.0052  0.3761  0.2218
    9CHL1  H18A  620   3.692   5.763   9.143  0.4763  0.2263  0.9284
    9CHL1  H18B  621   3.776   5.902   9.063 -1.6011 -0.1053 -1.1427
    9CHL1  H18C  622   3.765   5.881   9.248 -0.2629 -3.3118  0.8746
    9CHL1   C12  623   3.596   6.107   9.172  0.2026  0.2083  0.3922
    9CHL1  H12A  624   3.666   6.134   9.090 -0.2862  1.0626  0.2463
    9CHL1  H12B  625   3.490   6.141   9.164 -0.0887 -0.8822 -0.5700
    9CHL1   C11  626   3.646   6.149   9.311  0.0461 -0.2110 -0.2537
    9CHL1  H11A  627   3.753   6.119   9.311  0.3025  0.6625 -1.4567
    9CHL1  H11B  628   3.651   6.259   9.303 -1.1805 -0.1823 -0.8566
    9CHL1    C9  629   3.564   6.101   9.435  0.4872 -0.0841 -0.7864
    9CHL1    H9  630   3.461   6.137   9.415  0.1307 -0.3205  0.5245
    9CHL1   C10  631   3.624   6.154   9.573  0.1451 -0.5596 -0.4936
    9CHL1   C19  632   3.774   6.139   9.565  0.3247 -0.2460  0.3044
    9CHL1  H19A  633   3.834   6.146   9.658  0.0342  0.9867  0.4164
    9CHL1  H19B  634   3.806   6.046   9.514  1.8390 -0.0357  0.8187
    9CHL1  H19C  635   3.808   6.228   9.507 -1.1647  0.5330  0.5760
    9CHL1    C1  636   3.575   6.305   9.594 -0.5160 -0.1783 -0.0262
    9CHL1   H1A  637   3.614   6.376   9.519 -0.7329  2.2025  1.9633
    9CHL1   H1B  638   3.465   6.304   9.578 -0.8159  0.9832  1.6657
    9CHL1    C2  639   3.600   6.370   9.731 -0.3405  0.2342 -0.4785
    9CHL1   H2A  640   3.561   6.473   9.738 -1.3929 -0.2640  2.9111
    9CHL1   H2B  641   3.709   6.378   9.752 -0.0198  0.9863 -2.3111
    9CHL1   C20  642   3.543   5.918   8.908  0.4223 -0.0411 -0.0195
    9CHL1   H20  643   3.641   5.970   8.915  0.4497 -0.1989  0.9850
    9CHL1   C21  644   3.450   6.005   8.829  0.5591  0.3422 -0.4619
    9CHL1  H21A  645   3.343   5.978   8.829  0.6249 -0.1978  2.4221
    9CHL1  H21B  646   3.477   6.010   8.721 -1.1620 -1.1300 -1.0052
    9CHL1  H21C  647   3.458   6.102   8.882 -1.0431 -1.0324  2.4871
    9CHL1   C22  648   3.563   5.783   8.826 -0.2299 -0.4605  0.3627
    9CHL1  H22A  649   3.607   5.702   8.889  3.3733  2.0820  1.3862
    9CHL1  H22B  650   3.463   5.745   8.794 -1.6399  1.7847  1.8534
    9CHL1   C23  651   3.659   5.798   8.708  0.3595  0.5368  0.2862
    9CHL1  H23A  652   3.627   5.880   8.639  0.5157  3.2442  3.2098
    9CHL1  H23B  653   3.761   5.822   8.743  0.7354  2.5828 -1.9244
    9CHL1   C24  654   3.648   5.672   8.608 -0.0197 -0.1461 -0.2511
    9CHL1  H24A  655   3.680   5.578   8.658 -1.4392  0.4488  1.9691
    9CHL1  H24B  656   3.540   5.663   8.585 -0.7086  0.0274  2.5095
    9CHL1   C25  657   3.733   5.688   8.483  0.7179  0.1968  0.0629
    9CHL1   H25  658   3.690   5.779   8.436  0.9127 -0.9956 -2.6534
    9CHL1   C26  659   3.886   5.714   8.496  0.0402 -0.5912  0.4618
    9CHL1  H26A  660   3.950   5.705   8.406 -1.4390  0.4802 -0.7658
    9CHL1  H26B  661   3.900   5.816   8.538  1.3636  0.6556 -2.6978
    9CHL1  H26C  662   3.931   5.639   8.564  0.3813 -1.3994 -0.6164
    9CHL1   C27  663   3.700   5.572   8.387 -0.2971  0.6720 -0.5020
    9CHL1  H27A  664   3.757   5.569   8.292 -0.5749 -0.5472 -0.6478
    9CHL1  H27B  665   3.718   5.479   8.445  0.6411  0.1801 -1.5456
    9CHL1  H27C  666   3.596   5.582   8.351 -0.3821  0.1053 -0.4228
   10CHL1    C3  667   3.879   1.165   9.914 -0.5262 -0.0790  0.2412
   10CHL1    H3  668   3.922   1.063   9.910  0.2380  0.2669 -0.7063
   10CHL1    O3  669   3.890   1.210  10.049  0.0388  0.3935  0.3940
   10CHL1   H3'  670   3.965   1.267  10.063  0.3163 -0.1590  1.2697
   10CHL1    C4  671   3.965   1.253   9.825  0.1594 -0.2921 -0.8414
   10CHL1   H4A  672   3.921   1.355   9.833 -0.3784 -0.6377  1.1763
   10CHL1   H4B  673   4.069   1.277   9.856 -0.6731  3.0123 -0.1983
   10CHL1    C5  674   3.955   1.201   9.678 -0.4354 -0.0960  0.7961
   10CHL1    C6  675   4.072   1.164   9.616  0.3477  0.4448 -0.2222
   10CHL1    H6  676   4.167   1.154   9.670 -0.4615 -0.6675  1.0592
   10CHL1    C7  677   4.072   1.126   9.472 -0.4634  0.6796 -0.1294
   10CHL1   H7A  678   4.142   1.186   9.410 -2.0791  2.5507 -0.2653
   10CHL1   H7B  679   4.092   1.017   9.475 -0.4576  0.6385 -1.4299
   10CHL1    C8  680   3.946   1.164   9.393  0.3694  0.0176 -0.5053
   10CHL1    H8  681   3.954   1.271   9.367  0.2386  0.0946 -0.2375
   10CHL1   C14  682   3.940   1.072   9.270 -0.0783 -0.6376 -0.1782
   10CHL1   H14  683   3.924   0.971   9.314  2.1268 -0.6758  0.6956
   10CHL1   C15  684   4.069   1.057   9.187  0.1006  0.6461 -0.0876
   10CHL1  H15A  685   4.124   1.153   9.190  1.7301 -0.2003 -1.4535
   10CHL1  H15B  686   4.134   0.971   9.214 -0.5646  0.6252  1.5395
   10CHL1   C16  687   4.014   1.028   9.043  0.4059 -0.3808  0.1080
   10CHL1  H16A  688   4.046   1.119   8.987 -0.7176  0.5666  0.9402
   10CHL1  H16B  689   4.059   0.939   8.995 -0.9095 -2.1708  2.0583
   10CHL1   C17  690   3.865   1.021   9.053  0.4177 -0.2160  0.1337
   10CHL1   H17  691   3.829   0.919   9.079 -2.6131  0.3625 -1.2907
   10CHL1   C13  692   3.825   1.106   9.175  0.4792 -0.2586 -0.3107
   10CHL1   C18  693   3.823   1.259   9.138 -1.0007  0.2204 -0.2899
   10CHL1  H18A  694   3.730   1.268   9.078 -1.1268  1.0030  0.0056
   10CHL1  H18B  695   3.823   1.338   9.216  3.1969  1.5056 -1.3354
   10CHL1  H18C  696   3.907   1.282   9.070 -0.7286  1.2171  0.3624
   10CHL1   C12  697   3.700   1.065   9.253 -0.2380 -0.6884  0.4529
   10CHL1  H12A  698   3.612   1.079   9.187  1.6388  1.6004 -1.7666
   10CHL1  H12B  699   3.705   0.956   9.273 -2.5509 -0.9396 -0.1522
   10CHL1   C11  700   3.688   1.142   9.385  0.1908 -0.0941  0.1631
   10CHL1  H11A  701   3.667   1.244   9.348  1.7951  0.3632  0.4482
   10CHL1  H11B  702   3.604   1.097   9.442 -3.2468  3.0381 -1.9707
   10CHL1    C9  703   3.821   1.134   9.475  1.1451 -0.1378  0.0094
   10CHL1    H9  704   3.833   1.028   9.504  3.1211 -0.0724 -0.4775
   10CHL1   C10  705   3.815   1.205   9.615 -0.0217  0.2651  1.3036
   10CHL1   C19  706   3.775   1.348   9.586  0.1271 -0.0407  0.0674
   10CHL1  H19A  707   3.857   1.388   9.523 -1.2743  0.6604 -1.3965
   10CHL1  H19B  708   3.673   1.353   9.541  0.1470  1.9698  0.1821
   10CHL1  H19C  709   3.790   1.402   9.681 -2.0095 -1.2868  1.1948
   10CHL1    C1  710   3.714   1.139   9.711  0.5930 -0.1747  0.0982
   10CHL1   H1A  711   3.613   1.175   9.683  0.3129  1.6912  3.0939
   10CHL1   H1B  712   3.715   1.028   9.702  1.3690 -0.1623 -0.0552
   10CHL1    C2  713   3.730   1.167   9.860  0.5072 -0.4347  0.2918
   10CHL1   H2A  714   3.683   1.088   9.923  3.0488 -3.6326 -1.5027
   10CHL1   H2B  715   3.680   1.264   9.880 -0.8118 -0.6095 -1.8757
   10CHL1   C20  716   3.790   1.034   8.918 -0.6615 -0.3340 -0.7315
   10CHL1   H20  717   3.789   1.142   8.894 -0.2548  0.5873  2.7761
   10CHL1   C21  718   3.646   0.996   8.938  0.0032  0.1040  0.1674
   10CHL1  H21A  719   3.583   1.078   8.978 -1.6929 -0.0264 -2.0265
   10CHL1  H21B  720   3.626   0.911   9.007 -2.3679  2.6069  2.8690
   10CHL1  H21C  721   3.603   0.977   8.837  1.5059 -1.3859 -0.2202
   10CHL1   C22  722   3.859   0.955   8.802  0.5037 -0.2920 -0.0141
   10CHL1  H22A  723   3.829   0.993   8.702  1.3202 -0.1957 -0.2329
   10CHL1  H22B  724   3.968   0.976   8.813  0.4917  0.4413 -1.0735
   10CHL1   C23  725   3.833   0.805   8.801 -1.0265  0.7202  0.2776
   10CHL1  H23A  726   3.842   0.764   8.904  1.7356  0.1713 -0.1036
   10CHL1  H23B  727   3.731   0.778   8.766 -1.1692  2.0515 -0.4212
   10CHL1   C24  728   3.941   0.725   8.730  0.3089  0.1910  0.1868
   10CHL1  H24A  729   4.036   0.760   8.776  0.6363  1.2747 -1.2519
   10CHL1  H24B  730   3.920   0.618   8.749 -1.6691 -0.1427 -3.1165
   10CHL1   C25  731   3.939   0.732   8.579  0.3201  0.8176 -0.7099
   10CHL1   H25  732   3.956   0.837   8.546  0.8329  1.6662  2.0112
   10CHL1   C26  733   4.048   0.636   8.520 -0.5246  0.2083 -0.1396
   10CHL1  H26A  734   4.037   0.537   8.569  1.0187  0.5636  1.0301
   10CHL1  H26B  735   4.027   0.632   8.411  1.7487  1.4657 -0.6891
   10CHL1  H26C  736   4.143   0.679   8.560 -1.4281  0.5629  1.7406
   10CHL1   C27  737   3.812   0.672   8.518  0.6180 -0.0028 -0.4332
   10CHL1  H27A  738   3.818   0.674   8.407 -0.0114  2.6493 -0.4886
   10CHL1  H27B  739   3.795   0.565   8.543  2.1148 -0.0973  0.2778
   10CHL1  H27C  740   3.720   0.725   8.550  0.7510  0.1460 -0.2950
   11CHL1    C3  741   6.625   5.953  10.117 -0.3604  0.3871 -0.2152
   11CHL1    H3  742   6.735   5.957  10.130 -0.4337 -0.4816  0.8311
   11CHL1    O3  743   6.576   5.966  10.253 -0.0994  0.3372  0.6731
   11CHL1   H3'  744   6.531   6.051  10.259 -0.1201  0.3584  0.2521
   11CHL1    C4  745   6.568   6.071  10.027 -0.3227  0.9025  0.0530
   11CHL1   H4A  746   6.460   6.058  10.050 -0.4276 -2.1085 -1.5464
   11CHL1   H4B  747   6.602   6.168  10.067 -0.5244  0.3548  1.6055
   11CHL1    C5  748   6.581   6.042   9.879  0.6644 -0.7480  0.5813
   11CHL1    C6  749   6.625   6.137   9.796 -0.0772 -0.1984  0.5180
   11CHL1    H6  750   6.661   6.233   9.835  1.1159  0.4456 -1.9986
   11CHL1    C7  751   6.642   6.131   9.646 -0.0772 -0.0598 -0.3123
   11CHL1   H7A  752   6.598   6.213   9.586  1.1122 -0.6203 -2.0202
   11CHL1   H7B  753   6.749   6.142   9.618  0.0427 -2.6964 -1.1504
   11CHL1    C8  754   6.579   6.005   9.591  0.3207  0.0852 -0.4557
   11CHL1    H8  755   6.471   6.030   9.582  0.6681  1.6618 -0.5168
   11CHL1   C14  756   6.617   5.983   9.446  0.7832 -0.2396 -0.1962
   11CHL1   H14  757   6.727   5.965   9.456  1.6765  4.5494  1.0188
   11CHL1   C15  758   6.597   6.102   9.347 -0.9157  0.1199 -0.1476
   11CHL1  H15A  759   6.504   6.151   9.383  0.2630  1.5948  1.0032
   11CHL1  H15B  760   6.678   6.177   9.359  0.3696 -0.7975 -2.3517
   11CHL1   C16  761   6.584   6.037   9.209 -0.8507  0.0816 -0.4471
   11CHL1  H16A  762   6.480   6.046   9.171 -1.0764  0.8218  0.3363
   11CHL1  H16B  763   6.651   6.080   9.132  1.5966 -0.1777  1.4321
   11CHL1   C17  764   6.615   5.885   9.233 -0.3098 -1.0069 -0.6731
   11CHL1   H17  765   6.725   5.876   9.243 -0.3301 -0.2296  0.4725
   11CHL1   C13  766   6.555   5.865   9.376  0.3316  0.0633 -0.9938
   11CHL1   C18  767   6.400   5.878   9.378 -0.7595 -0.1060  0.2587
   11CHL1  H18A  768   6.363   5.858   9.481  1.5024 -0.6536  1.0290
   11CHL1  H18B  769   6.365   5.976   9.339  1.1857 -0.1199 -1.7110
   11CHL1  H18C  770   6.362   5.801   9.307  1.9660  0.2932 -1.7857
   11CHL1   C12  771   6.591   5.734   9.453  0.2179 -0.2557  0.0036
   11CHL1  H12A  772   6.553   5.638   9.412 -0.8870  0.2797 -0.2381
   11CHL1  H12B  773   6.702   5.722   9.453  0.1330 -1.1850  0.2758
   11CHL1   C11  774   6.556   5.748   9.608  0.0638 -0.1652  0.0688
   11CHL1  H11A  775   6.448   5.723   9.607  0.4414 -1.9392  0.6592
   11CHL1  H11B  776   6.597   5.667   9.672  3.6978  1.6377  0.2746
   11CHL1    C9  777   6.599   5.881   9.677  0.6785 -0.1499 -0.0739
   11CHL1    H9  778   6.708   5.866   9.694  0.4941  1.2184  3.0501
   11CHL1   C10  779   6.543   5.903   9.822  0.4389  0.1107 -0.8251
   11CHL1   C19  780   6.396   5.891   9.824  0.1106  0.1930  0.1005
   11CHL1  H19A  781   6.370   5.783   9.818  1.4755 -0.3150  2.1417
   11CHL1  H19B  782   6.353   5.917   9.923  1.9138 -0.6892  1.1848
   11CHL1  H19C  783   6.359   5.958   9.744  4.5721  4.7693  1.3198
   11CHL1    C1  784   6.600   5.792   9.916 -0.5096 -0.3565  0.6861
   11CHL1   H1A  785   6.556   5.698   9.875 -3.0548  0.0944  2.1938
   11CHL1   H1B  786   6.711   5.786   9.912 -0.2770  1.1251  3.1720
   11CHL1    C2  787   6.578   5.814  10.063  0.5316 -0.6125 -0.8874
   11CHL1   H2A  788   6.614   5.733  10.130 -0.6270  0.0254  0.5536
   11CHL1   H2B  789   6.467   5.811  10.064  0.4702  0.5107  0.9659
   11CHL1   C20  790   6.577   5.789   9.123 -0.4865 -0.6096 -0.2281
   11CHL1   H20  791   6.472   5.754   9.132 -0.7149 -0.5898 -2.2200
   11CHL1   C21  792   6.669   5.661   9.131  0.3942 -0.0618  0.4853
   11CHL1  H21A  793   6.770   5.682   9.093 -0.4348  2.2926 -0.5669
   11CHL1  H21B  794   6.627   5.587   9.059 -0.1464  1.3257 -0.6765
   11CHL1  H21C  795   6.672   5.620   9.234 -0.8176  5.0554  2.8725
   11CHL1   C22  796   6.583   5.872   8.983 -0.0288  0.4750 -0.2490
   11CHL1  H22A  797   6.510   5.955   8.979  0.1012  0.5835 -0.3822
   11CHL1  H22B  798   6.687   5.911   8.974 -0.5200  1.6217 -1.1655
   11CHL1   C23  799   6.552   5.779   8.863  0.1325  0.0073  0.6296
   11CHL1  H23A  800   6.570   5.837   8.769 -0.9395 -0.7382 -0.0579
   11CHL1  H23B  801   6.628   5.699   8.852  0.6506  0.7791 -2.6792
   11CHL1   C24  802   6.408   5.730   8.849  0.4288 -0.0161  0.6356
   11CHL1  H24A  803   6.382   5.669   8.939  0.7371  2.6339  2.6223
   11CHL1  H24B  804   6.349   5.824   8.849 -1.0086 -0.8475 -1.7107
   11CHL1   C25  805   6.373   5.658   8.715 -0.4340  0.2143 -0.5455
   11CHL1   H25  806   6.427   5.727   8.647  0.1357  1.6149  1.2456
   11CHL1   C26  807   6.447   5.521   8.704  0.0557 -0.2130  0.0283
   11CHL1  H26A  808   6.416   5.469   8.611  1.6283  0.5408 -0.9714
   11CHL1  H26B  809   6.554   5.551   8.695  0.2646 -0.6411  1.0066
   11CHL1  H26C  810   6.419   5.465   8.796  0.8443  1.7064  1.5287
   11CHL1   C27  811   6.225   5.650   8.688 -0.4998 -0.3642 -0.6600
   11CHL1  H27A  812   6.175   5.573   8.752 -0.7590  0.8403  0.6475
   11CHL1  H27B  813   6.170   5.742   8.716 -0.6515 -0.7393  0.3110
   11CHL1  H27C  814   6.198   5.619   8.585  2.0386 -0.4325 -1.3795
   12CHL1    C3  815   2.816   2.478  10.137  0.2742 -1.0191  0.2874
   12CHL1    H3  816   2.918   2.493  10.178  0.0616  0.9161  0.1780
   12CHL1    O3  817   2.719   2.451  10.230  0.0292 -0.3203 -0.6870
   12CHL1   H3'  818   2.731   2.362  10.262 -0.4421  0.4490  1.7928
   12CHL1    C4  819   2.776   2.612  10.072  0.2758 -0.0790  0.1488
   12CHL1   H4A  820   2.677   2.589  10.028  0.0836 -2.2957  1.5530
   12CHL1   H4B  821   2.762   2.687  10.153  0.3352 -0.8791  0.9183
   12CHL1    C5  822   2.876   2.650   9.958  0.3869  0.1447 -0.0905
   12CHL1    C6  823   2.950   2.761   9.957 -0.2882  0.5004 -0.6874
   12CHL1    H6  824   2.942   2.834  10.039 -1.8823 -1.3857  0.9280
   12CHL1    C7  825   3.051   2.791   9.855 -0.5232 -0.1131  0.4299
   12CHL1   H7A  826   3.043   2.898   9.826  3.6281 -0.1093 -1.4598
   12CHL1   H7B  827   3.157   2.782   9.887 -0.4940 -0.4499  0.2427
   12CHL1    C8  828   3.030   2.720   9.719  0.1769  0.1721 -0.5333
   12CHL1    H8  829   2.937   2.754   9.668 -0.3330  0.3495  0.4899
   12CHL1   C14  830   3.140   2.745   9.622 -0.7546  0.6380 -0.0932
   12CHL1   H14  831   3.226   2.693   9.670 -0.0707  0.3605 -1.5582
   12CHL1   C15  832   3.189   2.886   9.601 -0.3052 -0.3694 -0.5414
   12CHL1  H15A  833   3.097   2.944   9.580  0.1645 -0.3352 -2.7202
   12CHL1  H15B  834   3.252   2.922   9.685 -0.2560  0.2235 -0.8255
   12CHL1   C16  835   3.263   2.872   9.468  0.0604  0.4596 -0.2604
   12CHL1  H16A  836   3.225   2.951   9.399  0.4171 -0.6879 -1.8303
   12CHL1  H16B  837   3.371   2.879   9.493 -0.0340 -1.0306  0.6616
   12CHL1   C17  838   3.236   2.729   9.405 -0.7556 -0.3237  0.1016
   12CHL1   H17  839   3.324   2.665   9.429 -0.1598  0.7549  0.8430
   12CHL1   C13  840   3.115   2.678   9.485  0.4747  0.0279  0.0116
   12CHL1   C18  841   2.988   2.739   9.410 -0.5705 -0.2080 -0.0691
   12CHL1  H18A  842   2.973   2.695   9.309 -0.9153 -1.5674  0.5495
   12CHL1  H18B  843   2.899   2.720   9.473 -1.2418  0.9063 -0.6449
   12CHL1  H18C  844   3.001   2.850   9.407  2.8092 -0.4616  0.9614
   12CHL1   C12  845   3.098   2.526   9.507 -0.7994 -1.1746 -0.1266
   12CHL1  H12A  846   3.079   2.475   9.410  0.4962  0.6188 -1.3978
   12CHL1  H12B  847   3.193   2.487   9.549  0.3794  0.3847 -1.2281
   12CHL1   C11  848   2.993   2.485   9.610  0.2655  0.4751 -0.2409
   12CHL1  H11A  849   2.894   2.511   9.567 -0.4494  0.3698  1.2759
   12CHL1  H11B  850   2.979   2.375   9.615  0.3448  0.4906  0.4685
   12CHL1    C9  851   3.000   2.567   9.745 -0.4409 -0.2086  0.0889
   12CHL1    H9  852   3.087   2.524   9.799 -0.2215  0.8588  0.6098
   12CHL1   C10  853   2.886   2.544   9.839  0.1844  0.0790 -0.5529
   12CHL1   C19  854   2.762   2.535   9.756  0.2199 -0.1722  0.3742
   12CHL1  H19A  855   2.754   2.622   9.688 -0.4192 -2.0042 -2.0053
   12CHL1  H19B  856   2.759   2.443   9.695  1.3552 -1.5340  2.2637
   12CHL1  H19C  857   2.672   2.533   9.822 -0.8455 -0.7671 -1.0512
   12CHL1    C1  858   2.902   2.397   9.911 -1.0502  0.1770 -0.0054
   12CHL1   H1A  859   2.904   2.316   9.835 -0.7006  0.0619  0.1252
   12CHL1   H1B  860   3.004   2.390   9.954 -2.5130  0.0726  3.8178
   12CHL1    C2  861   2.809   2.373  10.027  0.1412  1.0343  0.3007
   12CHL1   H2A  862   2.826   2.274  10.074 -1.8530  0.2958 -0.4345
   12CHL1   H2B  863   2.704   2.355   9.998  0.4230  0.9441 -0.7256
   12CHL1   C20  864   3.232   2.722   9.247  0.6180  0.0268 -0.2019
   12CHL1   H20  865   3.143   2.771   9.200  0.8562 -0.5123 -1.2330
   12CHL1   C21  866   3.228   2.580   9.202 -0.2593  0.0868 -0.7009
   12CHL1  H21A  867   3.130   2.531   9.220  1.3270 -2.4207  2.0759
   12CHL1  H21B  868   3.300   2.527   9.269 -1.5208  0.7143  1.2242
   12CHL1  H21C  869   3.262   2.561   9.098  0.5719 -1.5716 -0.1803
   12CHL1   C22  870   3.349   2.798   9.177 -0.2577 -0.1405 -0.5907
   12CHL1  H22A  871   3.333   2.789   9.067 -2.0817 -0.8174 -0.2913
   12CHL1  H22B  872   3.350   2.905   9.207  0.3159 -0.3041 -0.0042
   12CHL1   C23  873   3.490   2.745   9.216  0.7930  0.3355  0.0768
   12CHL1  H23A  874   3.500   2.752   9.327 -1.5748 -0.5529  0.4023
   12CHL1  H23B  875   3.496   2.639   9.183  0.2035 -0.0205  1.0556
   12CHL1   C24  876   3.602   2.826   9.149 -0.3792 -0.0466 -0.3203
   12CHL1  H24A  877   3.604   2.813   9.039  0.4417  1.5163 -0.5291
   12CHL1  H24B  878   3.591   2.934   9.176  1.0417 -0.2269  1.1482
   12CHL1   C25  879   3.745   2.798   9.189  0.2985 -0.2914 -0.0858
   12CHL1   H25  880   3.776   2.694   9.163 -0.5556 -0.8085  0.9055
   12CHL1   C26  881   3.835   2.890   9.095 -0.3725  0.6762 -0.4306
   12CHL1  H26A  882   3.817   2.877   8.986 -0.8896 -1.8793 -0.1140
   12CHL1  H26B  883   3.801   2.994   9.112 -2.2674 -0.1698  1.5420
   12CHL1  H26C  884   3.942   2.875   9.123 -0.2874  0.2923 -0.9487
   12CHL1   C27  885   3.765   2.813   9.342 -0.7001  0.4572  0.0294
   12CHL1  H27A  886   3.711   2.739   9.404 -0.9772  2.3561  2.1997
   12CHL1  H27B  887   3.874   2.805   9.361 -0.7961 -0.6149  0.1622
   12CHL1  H27C  888   3.735   2.912   9.383  2.1672  1.9616 -1.2136
   13CHL1    C3  889   1.807   6.585   9.761  0.5265  0.2719 -1.0835
   13CHL1    H3  890   1.762   6.686   9.746  0.4369  0.1781 -1.4524
   13CHL1    O3  891   1.878   6.584   9.884 -0.7509 -0.5741 -0.5497
   13CHL1   H3'  892   1.909   6.494   9.902 -0.0004 -0.2752 -0.2846
   13CHL1    C4  893   1.708   6.475   9.748  0.7033 -0.5336  0.5990
   13CHL1   H4A  894   1.766   6.382   9.767  1.5099  0.4424  3.3745
   13CHL1   H4B  895   1.634   6.478   9.831 -0.2140 -0.3634 -0.2024
   13CHL1    C5  896   1.644   6.482   9.610  0.7414  0.6015 -0.0778
   13CHL1    C6  897   1.509   6.500   9.595 -0.1809 -0.4446 -0.1073
   13CHL1    H6  898   1.442   6.508   9.682 -0.3121  0.9334 -0.3061
   13CHL1    C7  899   1.446   6.494   9.463  0.5815 -0.1365 -0.5413
   13CHL1   H7A  900   1.363   6.421   9.459  0.0075  0.4540  0.2450
   13CHL1   H7B  901   1.401   6.594   9.443  0.5105 -0.2984 -1.2298
   13CHL1    C8  902   1.539   6.456   9.340 -0.6478  0.0150  0.1938
   13CHL1    H8  903   1.555   6.347   9.359  3.9442  0.5141  0.4205
   13CHL1   C14  904   1.476   6.498   9.208 -0.4919 -1.1044 -0.1108
   13CHL1   H14  905   1.481   6.608   9.222 -0.8483 -1.0016 -0.7239
   13CHL1   C15  906   1.327   6.461   9.175 -0.8024  0.3455 -0.0506
   13CHL1  H15A  907   1.304   6.357   9.209  0.2001 -0.1018 -0.6839
   13CHL1  H15B  908   1.262   6.534   9.227 -3.0312 -0.3207 -1.7163
   13CHL1   C16  909   1.316   6.471   9.026  0.1545 -0.1107  0.5089
   13CHL1  H16A  910   1.285   6.373   8.983 -3.6009  0.3646  1.7833
   13CHL1  H16B  911   1.246   6.552   8.997 -0.1049 -0.8619 -1.1119
   13CHL1   C17  912   1.463   6.512   8.979  0.0543  0.1206  0.2868
   13CHL1   H17  913   1.455   6.623   8.986  1.6473  0.2115  0.9117
   13CHL1   C13  914   1.560   6.473   9.092 -0.3327 -0.0469  0.5624
   13CHL1   C18  915   1.584   6.313   9.080 -0.1156 -0.5888  0.3560
   13CHL1  H18A  916   1.483   6.268   9.067 -0.9447  1.8050 -2.4169
   13CHL1  H18B  917   1.648   6.279   8.996  1.4779 -0.1229  1.3325
   13CHL1  H18C  918   1.628   6.267   9.172  1.1120 -0.6981 -0.2681
   13CHL1   C12  919   1.695   6.546   9.097 -0.8878 -0.4072 -0.4120
   13CHL1  H12A  920   1.761   6.524   9.011  2.5239 -0.2815  2.0096
   13CHL1  H12B  921   1.676   6.656   9.094  3.2389  0.5958  2.2304
   13CHL1   C11  922   1.765   6.510   9.226 -0.6256 -0.1460 -0.8063
   13CHL1  H11A  923   1.809   6.410   9.209 -1.1511 -0.4864 -0.1845
   13CHL1  H11B  924   1.850   6.578   9.247 -0.3590 -0.9977  1.0119
   13CHL1    C9  925   1.679   6.523   9.357  0.6359 -0.0424 -0.3915
   13CHL1    H9  926   1.659   6.632   9.366  0.1335 -0.2662  1.6235
   13CHL1   C10  927   1.745   6.483   9.489 -0.2098  0.3240 -0.2443
   13CHL1   C19  928   1.808   6.341   9.466  0.1917  0.3311  0.0132
   13CHL1  H19A  929   1.732   6.266   9.436  2.3207 -1.5881 -0.9056
   13CHL1  H19B  930   1.890   6.356   9.392 -0.6370 -0.3928 -1.0710
   13CHL1  H19C  931   1.842   6.298   9.562 -2.9853 -1.4247  0.4987
   13CHL1    C1  932   1.869   6.576   9.514  0.2459 -0.2370 -0.3949
   13CHL1   H1A  933   1.954   6.544   9.451 -0.1718  1.2495 -1.7629
   13CHL1   H1B  934   1.840   6.679   9.487 -1.7394  0.1358  2.5791
   13CHL1    C2  935   1.917   6.574   9.660 -0.3347 -0.0237  0.3466
   13CHL1   H2A  936   2.005   6.641   9.674  0.7029 -0.6822 -2.3082
   13CHL1   H2B  937   1.965   6.473   9.660 -2.4219 -1.0629  0.4219
   13CHL1   C20  938   1.504   6.474   8.837  0.1831 -0.5107  0.0765
   13CHL1   H20  939   1.588   6.402   8.829 -0.0465 -0.9127  1.1390
   13CHL1   C21  940   1.561   6.607   8.795 -0.2907 -0.4696 -0.0541
   13CHL1  H21A  941   1.486   6.685   8.771 -0.7839 -1.2138 -0.9710
   13CHL1  H21B  942   1.628   6.593   8.708  0.9135 -1.3537  0.9787
   13CHL1  H21C  943   1.623   6.662   8.870 -0.5531 -0.2991  0.0389
   13CHL1   C22  944   1.392   6.426   8.747 -0.5466 -0.3075  0.4179
   13CHL1  H22A  945   1.357   6.323   8.771  1.3433 -1.0788  0.0649
   13CHL1  H22B  946   1.306   6.497   8.753 -1.4853 -1.0941 -2.4451
   13CHL1   C23  947   1.429   6.429   8.590  0.5325 -0.2223 -0.9524
   13CHL1  H23A  948   1.463   6.533   8.572 -0.1404  1.0496  3.7740
   13CHL1  H23B  949   1.515   6.360   8.577 -0.2148 -1.7368  1.3952
   13CHL1   C24  950   1.303   6.380   8.519  0.6623  0.4308  0.0195
   13CHL1  H24A  951   1.305   6.269   8.525 -0.1842  0.3157 -1.3689
   13CHL1  H24B  952   1.218   6.429   8.570  0.9749  0.0765  0.8945
   13CHL1   C25  953   1.299   6.416   8.372 -0.4864  0.3892 -0.2985
   13CHL1   H25  954   1.274   6.524   8.363 -2.4509 -0.1154 -1.4380
   13CHL1   C26  955   1.432   6.376   8.303  0.0956 -0.3492  1.0395
   13CHL1  H26A  956   1.471   6.276   8.332 -0.8155 -0.9132  0.3853
   13CHL1  H26B  957   1.431   6.375   8.192  2.2976  3.7681  0.7953
   13CHL1  H26C  958   1.512   6.452   8.314 -0.7033  0.3891  1.8441
   13CHL1   C27  959   1.174   6.351   8.307  0.5205  0.0237  0.4133
   13CHL1  H27A  960   1.197   6.249   8.268  2.3927  1.2238 -1.9772
   13CHL1  H27B  961   1.085   6.368   8.370  1.5752  0.6504  1.7836
   13CHL1  H27C  962   1.157   6.407   8.212  0.1609  1.1443  1.1280
   14CHL1    C3  963   0.221   1.999   9.712 -0.0260 -0.0532 -0.4056
   14CHL1    H3  964   0.155   2.088   9.716 -1.1068 -0.7388 -2.0392
   14CHL1    O3  965   0.209   1.918   9.824 -0.0039 -0.1537 -0.0635
   14CHL1   H3'  966   0.272   1.848   9.804 -0.3672 -0.4047 -0.3295
   14CHL1    C4  967   0.162   1.918   9.595 -0.9396 -0.0694 -0.2280
   14CHL1   H4A  968   0.210   1.818   9.596 -3.3146 -1.3040  0.9893
   14CHL1   H4B  969   0.057   1.891   9.620 -1.4170  0.4115 -1.6170
   14CHL1    C5  970   0.187   1.975   9.467  0.0667 -0.3582  0.2876
   14CHL1    C6  971   0.077   2.000   9.391  0.0247  0.1118 -0.4929
   14CHL1    H6  972  -0.022   1.968   9.427 -0.0876  1.2318  0.2723
   14CHL1    C7  973   0.084   2.065   9.258  1.3916  0.0988 -0.4158
   14CHL1   H7A  974   0.017   2.018   9.184  2.8502  1.4313 -2.6904
   14CHL1   H7B  975   0.050   2.171   9.256 -1.1080 -0.6064  0.7855
   14CHL1    C8  976   0.225   2.065   9.195  0.1009 -0.2353 -0.2252
   14CHL1    H8  977   0.244   1.963   9.156  0.0838 -0.6387  0.7805
   14CHL1   C14  978   0.244   2.162   9.084  0.3737 -0.4829  0.1394
   14CHL1   H14  979   0.257   2.260   9.134  1.6100 -0.8375  0.5612
   14CHL1   C15  980   0.128   2.169   8.980 -0.1045 -0.4236 -0.6678
   14CHL1  H15A  981   0.095   2.070   8.942 -0.3930 -0.6605  0.1953
   14CHL1  H15B  982   0.040   2.224   9.018  0.1331 -1.0429  0.8432
   14CHL1   C16  983   0.196   2.242   8.861 -0.6144  0.0746 -0.3792
   14CHL1  H16A  984   0.181   2.166   8.782 -0.2156 -0.3781 -0.0252
   14CHL1  H16B  985   0.144   2.333   8.823 -3.1136  0.7399  3.9650
   14CHL1   C17  986   0.349   2.253   8.892  0.1552 -0.0966 -0.6579
   14CHL1   H17  987   0.372   2.351   8.938  0.0992 -0.0986 -0.6262
   14CHL1   C13  988   0.379   2.155   9.005 -0.1503 -0.4180  0.6919
   14CHL1   C18  989   0.399   2.013   8.938 -0.2946 -0.3812  0.7098
   14CHL1  H18A  990   0.394   1.946   9.026 -0.8590  0.2183  1.1453
   14CHL1  H18B  991   0.318   1.991   8.865 -0.8335  2.8553  0.2069
   14CHL1  H18C  992   0.500   2.007   8.894 -0.1329  2.3040  0.5688
   14CHL1   C12  993   0.489   2.193   9.100  0.2119 -0.4212  0.2582
   14CHL1  H12A  994   0.590   2.168   9.063  0.2502 -0.8794  0.6595
   14CHL1  H12B  995   0.497   2.299   9.131  1.5898  0.5507 -2.9942
   14CHL1   C11  996   0.473   2.108   9.229 -0.2860 -0.4906 -0.4874
   14CHL1  H11A  997   0.504   2.004   9.204  1.1070 -0.0467 -0.7210
   14CHL1  H11B  998   0.547   2.151   9.299 -0.1391 -0.0419 -0.9102
   14CHL1    C9  999   0.335   2.105   9.301  0.3093  0.1898 -0.4502
   14CHL1    H9 1000   0.302   2.204   9.338 -1.4070 -1.0379  1.5577
   14CHL1   C10 1001   0.330   2.016   9.434 -0.1445  0.5088  0.1374
   14CHL1   C19 1002   0.401   1.880   9.402  0.3963  0.1721  0.2099
   14CHL1  H19A 1003   0.506   1.915   9.412 -0.9057  4.0998  2.5763
   14CHL1  H19B 1004   0.389   1.808   9.486 -0.6351 -1.0897 -0.9686
   14CHL1  H19C 1005   0.384   1.832   9.304 -1.0284 -0.0627  0.5452
   14CHL1    C1 1006   0.393   2.089   9.553 -0.1393  0.8335  0.4877
   14CHL1   H1A 1007   0.502   2.097   9.536 -0.2601  1.4760 -0.0140
   14CHL1   H1B 1008   0.341   2.187   9.558  1.8393  2.0996 -2.0260
   14CHL1    C2 1009   0.364   2.017   9.687 -0.5555 -0.3305  0.1058
   14CHL1   H2A 1010   0.406   2.079   9.769 -1.0406  1.0423 -0.6486
   14CHL1   H2B 1011   0.418   1.920   9.679  0.0177 -0.1348  1.2395
   14CHL1   C20 1012   0.437   2.241   8.770 -0.0252  0.5628  0.5705
   14CHL1   H20 1013   0.421   2.142   8.722 -0.5215  1.4223 -1.1044
   14CHL1   C21 1014   0.584   2.258   8.812  0.5384  0.3237 -0.1174
   14CHL1  H21A 1015   0.620   2.169   8.869 -0.0521  0.5683  0.6628
   14CHL1  H21B 1016   0.609   2.358   8.852 -0.1394  1.2625 -1.9417
   14CHL1  H21C 1017   0.647   2.269   8.722  1.4571  0.4296  0.5271
   14CHL1   C22 1018   0.393   2.348   8.665  0.6584  0.3130 -0.8993
   14CHL1  H22A 1019   0.285   2.333   8.643 -0.6804  0.4897  4.3352
   14CHL1  H22B 1020   0.393   2.443   8.723  3.4122 -0.2056  0.0835
   14CHL1   C23 1021   0.477   2.343   8.531  0.0004 -0.2145  0.8267
   14CHL1  H23A 1022   0.576   2.394   8.533  0.1087 -0.4163  0.7341
   14CHL1  H23B 1023   0.503   2.235   8.520  0.8637 -0.0533  1.1542
   14CHL1   C24 1024   0.407   2.404   8.406  0.3894 -0.1361 -0.0526
   14CHL1  H24A 1025   0.308   2.354   8.404 -0.5379  1.3629  2.4848
   14CHL1  H24B 1026   0.378   2.507   8.438 -1.7461 -1.3821  2.3930
   14CHL1   C25 1027   0.482   2.399   8.270 -0.1298 -0.3249  0.0388
   14CHL1   H25 1028   0.503   2.292   8.249  0.0853  0.0028 -1.5311
   14CHL1   C26 1029   0.385   2.459   8.160 -0.2314 -0.3010  0.4250
   14CHL1  H26A 1030   0.380   2.570   8.161 -3.4846 -0.3667  0.4086
   14CHL1  H26B 1031   0.414   2.431   8.057 -1.3337  1.8783 -0.5520
   14CHL1  H26C 1032   0.280   2.428   8.176 -0.2781  0.2545  1.3146
   14CHL1   C27 1033   0.623   2.466   8.273 -0.2348  0.2893  0.5788
   14CHL1  H27A 1034   0.657   2.479   8.168  0.0894 -2.8970  0.1926
   14CHL1  H27B 1035   0.614   2.572   8.307 -1.6367 -0.0975  1.5208
   14CHL1  H27C 1036   0.701   2.413   8.332  0.3360  1.5055  0.9601
   15CHL1    C3 1037   1.189   5.794   9.489  0.2810 -0.4096 -0.5025
   15CHL1    H3 1038   1.101   5.727   9.486  0.8319 -1.2451  0.9787
   15CHL1    O3 1039   1.252   5.789   9.612 -0.2756 -0.1260 -0.2881
   15CHL1   H3' 1040   1.317   5.859   9.607 -2.2792  1.8473 -0.4459
   15CHL1    C4 1041   1.286   5.743   9.384  0.1888 -0.1640  0.3618
   15CHL1   H4A 1042   1.391   5.778   9.380  0.6424 -1.5375 -0.5285
   15CHL1   H4B 1043   1.293   5.634   9.404  0.4988 -0.6665 -2.1383
   15CHL1    C5 1044   1.235   5.757   9.244 -0.2243 -0.6071 -0.7466
   15CHL1    C6 1045   1.214   5.658   9.160  0.6456  0.4000 -0.0301
   15CHL1    H6 1046   1.252   5.557   9.185 -0.0703  0.2845  0.6640
   15CHL1    C7 1047   1.175   5.678   9.023  0.4057 -0.1727 -0.3713
   15CHL1   H7A 1048   1.242   5.619   8.958 -0.3369  0.4790 -1.7932
   15CHL1   H7B 1049   1.071   5.640   9.011 -0.1874  0.9540  0.8165
   15CHL1    C8 1050   1.190   5.821   8.971  0.1637 -0.4558 -0.1300
   15CHL1    H8 1051   1.298   5.838   8.952  0.6168 -3.5061 -0.8275
   15CHL1   C14 1052   1.111   5.830   8.841  0.1484  0.4708 -0.3775
   15CHL1   H14 1053   1.008   5.810   8.879  0.7215 -0.0135  0.9799
   15CHL1   C15 1054   1.140   5.734   8.726 -0.1539 -0.4759 -0.2087
   15CHL1  H15A 1055   1.245   5.703   8.709  0.3105 -0.2000  1.8556
   15CHL1  H15B 1056   1.082   5.642   8.751  0.0729 -1.6653 -3.5341
   15CHL1   C16 1057   1.083   5.798   8.601  0.0234 -0.5055 -0.1021
   15CHL1  H16A 1058   1.168   5.816   8.531 -0.4040 -2.1623 -1.0968
   15CHL1  H16B 1059   1.002   5.748   8.544 -1.3031  2.8446 -1.4368
   15CHL1   C17 1060   1.024   5.934   8.644  1.1244  0.4203 -0.1305
   15CHL1   H17 1061   0.928   5.903   8.689  1.3046  0.0798  0.0180
   15CHL1   C13 1062   1.100   5.966   8.774 -0.1383  0.3452  0.1128
   15CHL1   C18 1063   1.245   6.006   8.732  0.2444 -0.1739 -0.7016
   15CHL1  H18A 1064   1.239   6.103   8.678 -0.7498 -0.8398 -1.8204
   15CHL1  H18B 1065   1.312   6.011   8.821 -0.0975  0.5872 -0.4750
   15CHL1  H18C 1066   1.284   5.929   8.662  1.1274 -0.9855  0.6249
   15CHL1   C12 1067   1.037   6.067   8.878  0.2700  0.0841  0.2758
   15CHL1  H12A 1068   1.057   6.160   8.820  1.9382 -1.6338 -2.1420
   15CHL1  H12B 1069   0.931   6.037   8.893  0.7417 -1.0797  1.4132
   15CHL1   C11 1070   1.122   6.068   9.011 -0.2060 -0.7439  0.7326
   15CHL1  H11A 1071   1.222   6.106   8.982  0.3581 -0.7976  2.4854
   15CHL1  H11B 1072   1.079   6.133   9.091  1.5525  1.5648 -0.0914
   15CHL1    C9 1073   1.135   5.921   9.072  0.3554  0.1790  0.3710
   15CHL1    H9 1074   1.030   5.901   9.103  1.0275  1.1305  3.7327
   15CHL1   C10 1075   1.205   5.906   9.210 -0.6676 -0.1341  0.1543
   15CHL1   C19 1076   1.333   5.992   9.210 -0.5580  0.0460 -0.1739
   15CHL1  H19A 1077   1.400   5.990   9.299 -1.2657  1.9815  0.4409
   15CHL1  H19B 1078   1.392   5.958   9.122 -0.6351  2.3938 -1.2142
   15CHL1  H19C 1079   1.306   6.099   9.202  1.1614  0.4822 -0.4832
   15CHL1    C1 1080   1.110   5.961   9.314  0.3638 -0.0714 -0.0641
   15CHL1   H1A 1081   1.086   6.068   9.297  0.2190  0.4216  2.7762
   15CHL1   H1B 1082   1.017   5.901   9.305 -0.6778  1.6728 -1.5076
   15CHL1    C2 1083   1.152   5.949   9.464 -0.1712 -0.2119  0.0930
   15CHL1   H2A 1084   1.059   5.971   9.520 -1.9868 -0.0195 -2.7516
   15CHL1   H2B 1085   1.239   6.014   9.489 -0.4663 -0.9529  3.4468
   15CHL1   C20 1086   1.004   6.033   8.530  0.6800 -0.2494 -0.4373
   15CHL1   H20 1087   1.104   6.072   8.499  0.7184 -0.1582 -0.2041
   15CHL1   C21 1088   0.914   6.149   8.576  0.2362 -0.2113 -0.2997
   15CHL1  H21A 1089   0.818   6.121   8.623  0.3623  0.1864  0.1974
   15CHL1  H21B 1090   0.884   6.202   8.483 -2.8634 -2.8625 -1.0216
   15CHL1  H21C 1091   0.971   6.217   8.643 -0.9292  1.6798 -1.1583
   15CHL1   C22 1092   0.945   5.976   8.396 -0.0727  0.3761 -0.0429
   15CHL1  H22A 1093   0.953   6.060   8.324 -1.5155 -1.1130 -2.0890
   15CHL1  H22B 1094   1.009   5.894   8.355 -1.5356 -1.7951  1.7328
   15CHL1   C23 1095   0.800   5.922   8.398 -0.2430  0.4638 -0.3686
   15CHL1  H23A 1096   0.821   5.828   8.453 -0.2642 -0.0509 -1.2277
   15CHL1  H23B 1097   0.733   5.983   8.463 -0.1952 -0.4533  0.5752
   15CHL1   C24 1098   0.738   5.891   8.262  0.1627  0.3352 -0.3262
   15CHL1  H24A 1099   0.752   5.979   8.196 -0.6557 -1.1206 -2.5579
   15CHL1  H24B 1100   0.790   5.812   8.205  1.3624  0.7864  0.1098
   15CHL1   C25 1101   0.588   5.840   8.254 -0.6420  0.5709  0.6769
   15CHL1   H25 1102   0.535   5.905   8.327  0.6745  0.4949  1.7434
   15CHL1   C26 1103   0.546   5.847   8.109 -0.2913  0.3599 -0.2941
   15CHL1  H26A 1104   0.565   5.948   8.067  0.3159  0.8139  1.0280
   15CHL1  H26B 1105   0.606   5.776   8.048 -1.6895 -0.1582 -1.1109
   15CHL1  H26C 1106   0.439   5.815   8.102 -0.0884 -0.6169  0.6736
   15CHL1   C27 1107   0.563   5.691   8.302 -0.3353  0.4425  0.0220
   15CHL1  H27A 1108   0.622   5.621   8.240  1.7230  0.4694  1.8426
   15CHL1  H27B 1109   0.581   5.670   8.410 -2.2255 -0.1770  0.2615
   15CHL1  H27C 1110   0.460   5.671   8.265  0.2466  0.9288 -1.9744
   16CHL1    C3 1111   1.602   0.216   9.639 -0.3641 -0.2420  0.0157
   16CHL1    H3 1112   1.513   0.271   9.601  1.2141  2.6321  0.2065
   16CHL1    O3 1113   1.582   0.176   9.772  0.3149  0.1393 -0.3458
   16CHL1   H3' 1114   1.672   0.167   9.805 -0.2001  3.8566  2.7044
   16CHL1    C4 1115   1.623   0.092   9.554  0.5568  0.7773 -0.5372
   16CHL1   H4A 1116   1.711   0.037   9.593  0.4740  1.5983  0.8957
   16CHL1   H4B 1117   1.534   0.031   9.576 -0.2255  1.9630 -0.2863
   16CHL1    C5 1118   1.644   0.135   9.409  0.2802  0.8762 -0.3181
   16CHL1    C6 1119   1.564   0.084   9.315  0.0236  0.4264  0.3556
   16CHL1    H6 1120   1.484   0.013   9.339 -0.9653  1.1323 -0.7164
   16CHL1    C7 1121   1.587   0.110   9.170 -0.1526 -0.6174 -0.7700
   16CHL1   H7A 1122   1.585   0.015   9.112  2.4913 -1.4402  0.3576
   16CHL1   H7B 1123   1.504   0.173   9.132  0.2151 -0.7664 -1.8594
   16CHL1    C8 1124   1.710   0.189   9.127 -0.4074 -1.0519  0.1553
   16CHL1    H8 1125   1.788   0.112   9.106 -1.4620 -1.4826 -2.6221
   16CHL1   C14 1126   1.689   0.268   8.994 -0.0638  0.3952  0.3869
   16CHL1   H14 1127   1.608   0.343   9.006 -0.6897 -0.3491  0.9504
   16CHL1   C15 1128   1.642   0.177   8.879 -0.8349 -0.4953 -0.4303
   16CHL1  H15A 1129   1.695   0.081   8.865 -0.7989 -0.5543  0.1040
   16CHL1  H15B 1130   1.532   0.162   8.884 -0.6238 -2.1469 -0.1394
   16CHL1   C16 1131   1.683   0.260   8.752  0.4187 -0.4750  0.3184
   16CHL1  H16A 1132   1.755   0.204   8.688 -1.9878 -2.0012 -1.2435
   16CHL1  H16B 1133   1.604   0.278   8.676  1.0487  2.5050  0.2441
   16CHL1   C17 1134   1.749   0.391   8.801 -0.0130 -0.2093 -0.0383
   16CHL1   H17 1135   1.674   0.471   8.820 -0.9318 -0.7218 -1.3855
   16CHL1   C13 1136   1.803   0.358   8.944  0.6046 -0.1714 -0.2937
   16CHL1   C18 1137   1.931   0.274   8.932  0.3440  0.4234  0.1591
   16CHL1  H18A 1138   1.960   0.217   9.023 -0.2630 -1.6760 -0.8848
   16CHL1  H18B 1139   1.899   0.193   8.863 -1.4446  0.1268  1.2712
   16CHL1  H18C 1140   2.025   0.316   8.890  0.6632 -0.2197  0.2028
   16CHL1   C12 1141   1.818   0.462   9.057 -0.0396 -1.0117  0.4496
   16CHL1  H12A 1142   1.912   0.517   9.035 -0.4203 -0.4355  0.2375
   16CHL1  H12B 1143   1.731   0.531   9.067  1.0351  0.5263 -0.3693
   16CHL1   C11 1144   1.845   0.395   9.197  0.3385  0.3388  0.3154
   16CHL1  H11A 1145   1.945   0.347   9.204  0.6956  0.8955 -0.6870
   16CHL1  H11B 1146   1.861   0.470   9.277 -0.4478 -0.4361  1.2169
   16CHL1    C9 1147   1.740   0.297   9.235 -0.1493  0.4251 -0.0343
   16CHL1    H9 1148   1.645   0.354   9.245  0.0934  1.2069 -1.7130
   16CHL1   C10 1149   1.747   0.242   9.380 -0.3334  0.0512 -0.3492
   16CHL1   C19 1150   1.883   0.169   9.399 -0.7520  0.0931 -0.8993
   16CHL1  H19A 1151   1.895   0.134   9.504 -1.1327 -1.0656 -1.2348
   16CHL1  H19B 1152   1.887   0.078   9.336  3.2768  1.5417 -3.0904
   16CHL1  H19C 1153   1.973   0.229   9.374 -0.1611 -1.0762 -1.6564
   16CHL1    C1 1154   1.742   0.358   9.479 -0.0515 -0.2577 -0.5561
   16CHL1   H1A 1155   1.845   0.399   9.490  0.8137 -1.9622 -1.8159
   16CHL1   H1B 1156   1.672   0.438   9.447  0.0071  0.5192  1.1492
   16CHL1    C2 1157   1.718   0.318   9.628  0.1479  0.0277  0.3746
   16CHL1   H2A 1158   1.705   0.413   9.684  0.5942  0.6365 -0.5151
   16CHL1   H2B 1159   1.811   0.272   9.666  0.7702  0.2020 -0.8826
   16CHL1   C20 1160   1.852   0.450   8.707 -0.0463  0.5033  1.0426
   16CHL1   H20 1161   1.940   0.383   8.704 -0.3589  0.1086  0.3501
   16CHL1   C21 1162   1.902   0.586   8.762  0.0992 -0.1877 -0.4104
   16CHL1  H21A 1163   1.958   0.644   8.685 -2.6852  2.3409 -0.7305
   16CHL1  H21B 1164   1.959   0.581   8.857 -1.2904 -0.6706  0.4329
   16CHL1  H21C 1165   1.816   0.656   8.777  0.5907  0.7176 -1.6579
   16CHL1   C22 1166   1.794   0.456   8.558 -0.1948  0.0561 -0.6113
   16CHL1  H22A 1167   1.867   0.510   8.495 -0.4769  0.9518 -0.1771
   16CHL1  H22B 1168   1.790   0.353   8.516  0.7015 -0.0412 -0.4646
   16CHL1   C23 1169   1.665   0.539   8.543 -0.4535 -0.0880  0.3926
   16CHL1  H23A 1170   1.593   0.507   8.621  0.6483 -1.1168  1.0098
   16CHL1  H23B 1171   1.687   0.647   8.552  0.0375 -0.1669  0.1626
   16CHL1   C24 1172   1.599   0.523   8.400  0.1480 -1.0286  0.3025
   16CHL1  H24A 1173   1.664   0.564   8.320 -0.8571 -2.5495 -1.3569
   16CHL1  H24B 1174   1.581   0.415   8.383 -2.1662 -0.6385 -0.1455
   16CHL1   C25 1175   1.462   0.594   8.387 -0.4837  0.1945  0.0947
   16CHL1   H25 1176   1.394   0.560   8.468  1.2017 -0.9950  1.0663
   16CHL1   C26 1177   1.477   0.747   8.399 -0.3842  0.6619  0.2350
   16CHL1  H26A 1178   1.379   0.798   8.397 -0.3482  0.7208 -0.0842
   16CHL1  H26B 1179   1.533   0.787   8.486  1.4314  4.2859 -2.3348
   16CHL1  H26C 1180   1.540   0.788   8.317 -0.5179  0.8603  0.2324
   16CHL1   C27 1181   1.401   0.575   8.249  0.4113 -0.2421  1.1162
   16CHL1  H27A 1182   1.445   0.644   8.173 -3.1379 -0.6116 -1.5305
   16CHL1  H27B 1183   1.398   0.469   8.217  0.5377 -0.3839  1.5681
   16CHL1  H27C 1184   1.297   0.614   8.240  0.6600  0.2050 -0.0644
   17CHL1    C3 1185   4.095   3.582  10.114 -0.5494 -0.8525 -0.2456
   17CHL1    H3 1186   3.987   3.566  10.131 -1.0702  1.4317 -1.0748
   17CHL1    O3 1187   4.144   3.643  10.231  0.3134 -0.3891 -0.0582
   17CHL1   H3' 1188   4.235   3.671  10.217 -0.1083  0.0773 -2.1226
   17CHL1    C4 1189   4.164   3.447  10.102  0.6481  0.2766 -0.0167
   17CHL1   H4A 1190   4.274   3.456  10.119  0.4488 -1.0029  2.4173
   17CHL1   H4B 1191   4.126   3.380  10.182 -0.4595 -0.3070 -1.0016
   17CHL1    C5 1192   4.142   3.379   9.967 -0.1706  0.1824 -0.9794
   17CHL1    C6 1193   4.121   3.250   9.952  0.2428  0.1645  0.3407
   17CHL1    H6 1194   4.105   3.193  10.044 -1.0906  1.5128  0.9925
   17CHL1    C7 1195   4.112   3.174   9.826 -0.1967 -0.7539 -0.3622
   17CHL1   H7A 1196   4.155   3.074   9.846 -1.5247 -1.1898  0.4628
   17CHL1   H7B 1197   4.003   3.157   9.807 -0.5939 -0.0654  1.1666
   17CHL1    C8 1198   4.171   3.259   9.711  0.4312 -0.0378 -0.2470
   17CHL1    H8 1199   4.281   3.254   9.719  0.6455  1.1808 -1.8381
   17CHL1   C14 1200   4.133   3.198   9.575 -0.3380  0.2223  0.0007
   17CHL1   H14 1201   4.028   3.226   9.554 -0.6438 -1.0294 -0.2041
   17CHL1   C15 1202   4.142   3.047   9.558 -0.4136  0.4832  0.2100
   17CHL1  H15A 1203   4.231   3.005   9.609 -0.9993 -0.3663  0.5526
   17CHL1  H15B 1204   4.055   3.002   9.611  1.5172 -0.8942  2.4198
   17CHL1   C16 1205   4.158   3.026   9.409  0.6873 -1.0561 -0.1115
   17CHL1  H16A 1206   4.249   2.966   9.388  0.1169 -0.8788 -3.5145
   17CHL1  H16B 1207   4.068   2.966   9.383  0.2354 -0.1228 -0.7404
   17CHL1   C17 1208   4.161   3.170   9.351  0.1111 -0.0375 -0.2458
   17CHL1   H17 1209   4.055   3.200   9.333 -0.8735 -3.4092 -0.8176
   17CHL1   C13 1210   4.210   3.267   9.459  0.6798 -0.1471  0.6042
   17CHL1   C18 1211   4.362   3.255   9.471  0.2004  0.0396  1.0578
   17CHL1  H18A 1212   4.405   3.313   9.387 -0.1105  0.9042  1.4827
   17CHL1  H18B 1213   4.402   3.299   9.565  1.4022 -1.0098  1.0671
   17CHL1  H18C 1214   4.404   3.152   9.464 -1.1545 -0.4963  0.6930
   17CHL1   C12 1215   4.159   3.418   9.452  0.5917  0.0752  0.4222
   17CHL1  H12A 1216   4.197   3.483   9.371 -1.2551 -0.3959 -0.8871
   17CHL1  H12B 1217   4.048   3.416   9.444  0.5010  0.2387  1.5226
   17CHL1   C11 1218   4.181   3.487   9.590 -0.3393  0.0378  0.4134
   17CHL1  H11A 1219   4.287   3.521   9.595  0.0193 -0.4581 -2.0937
   17CHL1  H11B 1220   4.117   3.578   9.591 -0.9316 -0.3594 -0.1681
   17CHL1    C9 1221   4.133   3.412   9.716 -0.0047 -1.1132 -0.1245
   17CHL1    H9 1222   4.022   3.419   9.713  0.0475  0.5669  1.1483
   17CHL1   C10 1223   4.168   3.474   9.846  0.4258  0.1756 -0.0719
   17CHL1   C19 1224   4.323   3.504   9.841  0.5579  0.6373 -0.0759
   17CHL1  H19A 1225   4.353   3.530   9.944  0.4700  2.4385 -0.4691
   17CHL1  H19B 1226   4.378   3.414   9.809 -1.5884 -0.5997 -0.5001
   17CHL1  H19C 1227   4.337   3.588   9.770 -2.0636  1.1818 -0.0788
   17CHL1    C1 1228   4.081   3.604   9.865 -0.1924  0.4701 -0.0487
   17CHL1   H1A 1229   4.103   3.678   9.786 -0.0201  1.1407  0.6137
   17CHL1   H1B 1230   3.972   3.581   9.869  0.3893 -3.0099 -0.7012
   17CHL1    C2 1231   4.118   3.670   9.999  1.0960 -0.4314 -0.3616
   17CHL1   H2A 1232   4.070   3.769  10.015  0.3437 -1.0783  1.7121
   17CHL1   H2B 1233   4.224   3.699   9.982  0.8088  0.7494 -0.2320
   17CHL1   C20 1234   4.227   3.170   9.218 -0.4778  0.4433 -0.0367
   17CHL1   H20 1235   4.335   3.146   9.223 -0.8673 -1.3361  0.9095
   17CHL1   C21 1236   4.205   3.301   9.150 -1.0029 -0.4554  0.2969
   17CHL1  H21A 1237   4.221   3.301   9.041  0.4023 -0.5515  0.4940
   17CHL1  H21B 1238   4.273   3.378   9.193 -2.7803 -0.6339  3.8374
   17CHL1  H21C 1239   4.104   3.344   9.168 -0.2093  1.6505  0.0014
   17CHL1   C22 1240   4.177   3.051   9.128  0.3379 -0.0193  0.4164
   17CHL1  H22A 1241   4.185   2.950   9.174 -0.1978 -1.0360 -1.6194
   17CHL1  H22B 1242   4.066   3.060   9.127  0.3589  0.5802 -1.6135
   17CHL1   C23 1243   4.247   3.043   8.992  0.6653  0.1045  0.6807
   17CHL1  H23A 1244   4.256   3.139   8.937  1.4084 -0.3745 -0.0608
   17CHL1  H23B 1245   4.352   3.012   9.012  0.5368 -2.2703 -1.6653
   17CHL1   C24 1246   4.186   2.945   8.887 -1.3953 -0.3528 -0.0104
   17CHL1  H24A 1247   4.265   2.938   8.808 -0.4506 -1.3718  0.9778
   17CHL1  H24B 1248   4.166   2.844   8.928  0.3507  0.0786  2.0578
   17CHL1   C25 1249   4.067   3.011   8.815  0.1968  0.4145  0.7135
   17CHL1   H25 1250   4.002   3.052   8.895 -1.3970  0.6388 -0.6543
   17CHL1   C26 1251   4.117   3.128   8.722  0.0443 -0.0581 -0.6048
   17CHL1  H26A 1252   4.175   3.206   8.776  1.1910 -2.0101  1.1361
   17CHL1  H26B 1253   4.191   3.078   8.656  1.5866 -0.5909  1.4205
   17CHL1  H26C 1254   4.039   3.173   8.658  0.3601  0.1664 -0.8347
   17CHL1   C27 1255   3.988   2.913   8.727 -0.4134  0.7773 -0.0262
   17CHL1  H27A 1256   3.987   2.818   8.784  1.9975  0.9246  0.3932
   17CHL1  H27B 1257   3.885   2.948   8.707 -0.4524  0.9402  0.4288
   17CHL1  H27C 1258   4.050   2.894   8.637 -1.0507 -1.5288 -0.0480
   18CHL1    C3 1259   1.917   2.748  10.125  0.4868  0.0019 -0.5162
   18CHL1    H3 1260   2.027   2.752  10.113  0.7203  4.5868  1.3906
   18CHL1    O3 1261   1.896   2.761  10.266  0.0953 -0.1029  0.5110
   18CHL1   H3' 1262   1.819   2.818  10.265 -0.2274 -0.5109 -0.6502
   18CHL1    C4 1263   1.862   2.860  10.044  0.3224  0.2295 -0.0576
   18CHL1   H4A 1264   1.760   2.888  10.080 -0.3196 -0.9095 -0.9633
   18CHL1   H4B 1265   1.911   2.956  10.074  0.1093  0.4918 -0.5337
   18CHL1    C5 1266   1.864   2.850   9.891 -0.8023  0.0798 -1.0055
   18CHL1    C6 1267   1.911   2.955   9.822  0.6232  0.1523  0.0088
   18CHL1    H6 1268   1.953   3.043   9.872  3.4614  0.4761 -2.5959
   18CHL1    C7 1269   1.917   2.963   9.670  1.0175  0.2838  0.8679
   18CHL1   H7A 1270   1.862   3.051   9.631 -0.7294 -1.3450 -0.5454
   18CHL1   H7B 1271   2.021   2.972   9.630  0.4878 -1.4726 -1.1070
   18CHL1    C8 1272   1.859   2.831   9.604  0.5717  0.2462 -0.3597
   18CHL1    H8 1273   1.750   2.848   9.599  0.6179  1.3741  1.4359
   18CHL1   C14 1274   1.910   2.813   9.461  0.6589 -0.0432 -0.4496
   18CHL1   H14 1275   2.018   2.789   9.477  0.4253  0.0318  1.3705
   18CHL1   C15 1276   1.906   2.941   9.370  0.2601  0.4023 -0.0645
   18CHL1  H15A 1277   1.801   2.976   9.362  0.2114  0.0646 -1.2026
   18CHL1  H15B 1278   1.977   3.021   9.400  1.0711 -0.6707  0.9346
   18CHL1   C16 1279   1.950   2.876   9.237 -0.1802 -0.1113  0.0079
   18CHL1  H16A 1280   1.884   2.907   9.153 -0.2586 -1.8418 -0.6083
   18CHL1  H16B 1281   2.058   2.892   9.218 -0.0501 -1.6343 -0.6102
   18CHL1   C17 1282   1.919   2.722   9.242  0.4413 -0.1969 -0.6463
   18CHL1   H17 1283   2.020   2.681   9.263  0.9122  1.5341  0.6652
   18CHL1   C13 1284   1.852   2.695   9.378  0.0582 -0.6660  0.4730
   18CHL1   C18 1285   1.697   2.709   9.360 -0.9390 -0.7115  0.0729
   18CHL1  H18A 1286   1.687   2.789   9.283 -2.1710 -0.0919  0.8473
   18CHL1  H18B 1287   1.649   2.619   9.318  1.4103 -2.2264  0.4268
   18CHL1  H18C 1288   1.638   2.738   9.450 -3.3453  0.8155 -1.8767
   18CHL1   C12 1289   1.888   2.569   9.461 -0.1978 -0.5707 -0.2251
   18CHL1  H12A 1290   1.827   2.488   9.416 -1.9686  1.1687 -1.1026
   18CHL1  H12B 1291   1.997   2.546   9.462 -0.4238 -2.0189  2.8045
   18CHL1   C11 1292   1.850   2.577   9.611  0.3157 -0.3351 -0.2019
   18CHL1  H11A 1293   1.739   2.581   9.612  0.2911 -0.9590  0.1231
   18CHL1  H11B 1294   1.880   2.481   9.658  0.4816  0.0955  0.5904
   18CHL1    C9 1295   1.891   2.708   9.686  0.2036 -0.4721  0.3774
   18CHL1    H9 1296   2.001   2.707   9.696  0.3552 -0.1289 -1.0603
   18CHL1   C10 1297   1.831   2.712   9.827  0.3361 -0.3996  0.1745
   18CHL1   C19 1298   1.680   2.700   9.828 -0.5973 -0.4178  0.5395
   18CHL1  H19A 1299   1.640   2.776   9.758  0.4209  0.5930  1.0207
   18CHL1  H19B 1300   1.646   2.599   9.798  0.2261  0.0121 -2.0212
   18CHL1  H19C 1301   1.639   2.726   9.928 -2.8197 -3.1110  0.4441
   18CHL1    C1 1302   1.891   2.602   9.922  0.4606 -0.4379  0.1046
   18CHL1   H1A 1303   1.877   2.508   9.864 -1.1156 -2.9033  4.0268
   18CHL1   H1B 1304   2.000   2.621   9.913 -0.0262  2.2297 -1.0737
   18CHL1    C2 1305   1.860   2.617  10.067  0.6014  0.6168  0.5177
   18CHL1   H2A 1306   1.890   2.523  10.117  1.0797  1.2048  1.3631
   18CHL1   H2B 1307   1.751   2.609  10.087  0.5196 -1.3396 -0.4502
   18CHL1   C20 1308   1.862   2.662   9.121 -0.4968 -0.3504  0.4797
   18CHL1   H20 1309   1.759   2.702   9.104  0.5326  1.4981 -2.1257
   18CHL1   C21 1310   1.845   2.504   9.132 -0.0047 -1.0369 -0.7292
   18CHL1  H21A 1311   1.870   2.461   9.033 -0.9967 -1.1055 -0.9559
   18CHL1  H21B 1312   1.750   2.464   9.172 -0.7747  0.9368 -0.4677
   18CHL1  H21C 1313   1.918   2.457   9.201 -0.0703 -1.9200 -1.2422
   18CHL1   C22 1314   1.938   2.697   8.990 -0.3178 -0.0792  0.2605
   18CHL1  H22A 1315   1.898   2.642   8.902  1.0499 -0.8303  0.0746
   18CHL1  H22B 1316   1.915   2.804   8.969  0.0182 -0.0177  0.1845
   18CHL1   C23 1317   2.085   2.661   8.997  0.0707 -0.1240 -0.2252
   18CHL1  H23A 1318   2.136   2.709   9.083  0.1485  0.2164 -0.4575
   18CHL1  H23B 1319   2.072   2.552   9.012 -0.8665 -0.0447 -0.4179
   18CHL1   C24 1320   2.173   2.711   8.878  0.7095 -0.3763  0.6858
   18CHL1  H24A 1321   2.124   2.665   8.789  5.0667 -4.2567 -0.1241
   18CHL1  H24B 1322   2.181   2.820   8.856  1.9981 -0.0696  2.4502
   18CHL1   C25 1323   2.311   2.649   8.884  0.2920 -0.2539  0.4601
   18CHL1   H25 1324   2.372   2.707   8.956  1.7280 -0.4304 -0.5672
   18CHL1   C26 1325   2.318   2.501   8.915  0.7775 -0.1328  0.2751
   18CHL1  H26A 1326   2.420   2.462   8.897  0.6706 -0.5067  0.4781
   18CHL1  H26B 1327   2.292   2.487   9.022 -3.6019 -2.4630 -0.8663
   18CHL1  H26C 1328   2.244   2.444   8.855 -0.5803  1.5805  0.2358
   18CHL1   C27 1329   2.381   2.674   8.749 -0.1054 -0.0918 -0.0383
   18CHL1  H27A 1330   2.315   2.647   8.664  0.1442 -2.5277  0.4707
   18CHL1  H27B 1331   2.413   2.780   8.741  1.7675 -0.4621  1.7138
   18CHL1  H27C 1332   2.473   2.613   8.739 -1.0108 -1.3334 -1.2778
   19CHL1    C3 1333   5.416   3.118   9.989  0.3333 -0.2213 -0.0077
   19CHL1    H3 1334   5.336   3.195   9.989 -0.7704 -1.3404 -0.1378
   19CHL1    O3 1335   5.460   3.087  10.121  0.0843 -0.2500  0.0623
   19CHL1   H3' 1336   5.447   3.173  10.160 -2.0844 -1.1189  1.4491
   19CHL1    C4 1337   5.366   2.988   9.918  0.1360 -1.0863  0.4722
   19CHL1   H4A 1338   5.454   2.920   9.920  0.6239 -0.5260 -1.0432
   19CHL1   H4B 1339   5.286   2.935   9.975  0.2334 -0.2273  1.4415
   19CHL1    C5 1340   5.318   3.024   9.776  0.1653  0.8817 -0.3996
   19CHL1    C6 1341   5.190   3.004   9.736 -0.8997  0.2334 -0.7278
   19CHL1    H6 1342   5.120   2.967   9.812  0.6005 -0.2510  0.4919
   19CHL1    C7 1343   5.150   3.022   9.588 -0.1241 -0.0787 -0.5976
   19CHL1   H7A 1344   5.096   2.930   9.555  2.7488 -0.8014 -3.9189
   19CHL1   H7B 1345   5.080   3.108   9.589 -1.0315 -0.8051 -0.1778
   19CHL1    C8 1346   5.268   3.046   9.495  0.6809 -0.5975  0.4508
   19CHL1    H8 1347   5.307   2.943   9.478 -0.6440 -0.9577 -0.6908
   19CHL1   C14 1348   5.205   3.096   9.366 -0.1909 -0.0910 -0.0423
   19CHL1   H14 1349   5.168   3.196   9.398 -2.2903  0.0741 -2.6425
   19CHL1   C15 1350   5.076   3.024   9.298  0.2039 -0.2655  0.4645
   19CHL1  H15A 1351   5.087   2.913   9.294  0.1246 -0.2497 -0.2525
   19CHL1  H15B 1352   4.980   3.069   9.331  0.2794  1.3291 -1.3416
   19CHL1   C16 1353   5.086   3.063   9.148  0.2111  1.1471 -0.1905
   19CHL1  H16A 1354   5.096   2.969   9.090 -0.6053  2.1346 -1.9852
   19CHL1  H16B 1355   5.000   3.116   9.102 -1.7520 -3.3787 -2.2925
   19CHL1   C17 1356   5.205   3.158   9.140 -0.9077  0.2102 -0.2768
   19CHL1   H17 1357   5.153   3.253   9.165 -0.4920  0.2990  0.2473
   19CHL1   C13 1358   5.306   3.122   9.256 -0.1355  0.3399 -0.5043
   19CHL1   C18 1359   5.390   2.993   9.213  0.1363 -0.4162 -0.3147
   19CHL1  H18A 1360   5.499   3.014   9.209 -0.3084  2.2511 -0.1100
   19CHL1  H18B 1361   5.384   2.908   9.284  3.9038 -1.9720 -1.6065
   19CHL1  H18C 1362   5.347   2.945   9.123 -0.2271 -2.1023  0.7151
   19CHL1   C12 1363   5.400   3.226   9.320 -0.4188  0.2065  0.8487
   19CHL1  H12A 1364   5.475   3.226   9.238 -1.3729  1.8901 -0.0779
   19CHL1  H12B 1365   5.353   3.326   9.321  0.4924  0.6439  0.6404
   19CHL1   C11 1366   5.458   3.193   9.459 -0.2268  0.0795 -0.0440
   19CHL1  H11A 1367   5.545   3.125   9.446  1.3245  2.0693 -0.7053
   19CHL1  H11B 1368   5.507   3.282   9.503 -0.4577 -0.0471  0.4699
   19CHL1    C9 1369   5.364   3.141   9.561 -0.2024  0.6601  0.8011
   19CHL1    H9 1370   5.309   3.232   9.594 -0.0210  1.0176  0.1556
   19CHL1   C10 1371   5.428   3.083   9.685 -0.2127 -0.0214  0.5355
   19CHL1   C19 1372   5.528   2.969   9.648 -0.2212  0.7464  0.4107
   19CHL1  H19A 1373   5.607   3.003   9.577  0.0738 -0.0282  0.3585
   19CHL1  H19B 1374   5.580   2.943   9.742  1.3135  1.4984 -0.1856
   19CHL1  H19C 1375   5.476   2.883   9.601 -1.9979  2.1427 -0.3083
   19CHL1    C1 1376   5.503   3.198   9.759  0.8306  0.3353 -0.1277
   19CHL1   H1A 1377   5.596   3.215   9.702  1.2715 -1.9144 -0.1353
   19CHL1   H1B 1378   5.440   3.290   9.755 -0.5069 -0.5757 -0.6687
   19CHL1    C2 1379   5.538   3.169   9.909  0.1596 -0.4024  0.1928
   19CHL1   H2A 1380   5.585   3.261   9.952  0.2175  1.1111 -2.8667
   19CHL1   H2B 1381   5.616   3.089   9.909  0.6287 -0.0175 -2.1730
   19CHL1   C20 1382   5.265   3.166   8.993 -0.0561  0.1943 -0.1675
   19CHL1   H20 1383   5.343   3.089   8.975  0.3010  0.1885  1.3077
   19CHL1   C21 1384   5.329   3.299   8.984  0.0881  0.0971  0.6159
   19CHL1  H21A 1385   5.404   3.302   8.902 -1.1884 -2.1785 -0.7467
   19CHL1  H21B 1386   5.370   3.334   9.081 -0.2826  0.1491  0.7556
   19CHL1  H21C 1387   5.255   3.380   8.969  1.2847  1.0753 -0.2733
   19CHL1   C22 1388   5.155   3.159   8.882  0.6348 -0.4822  0.1368
   19CHL1  H22A 1389   5.111   3.058   8.888  1.1996 -0.7618 -0.3314
   19CHL1  H22B 1390   5.074   3.231   8.906 -0.3240 -1.7677  0.8501
   19CHL1   C23 1391   5.190   3.177   8.741 -0.3195 -0.3834 -0.0362
   19CHL1  H23A 1392   5.096   3.171   8.681 -0.7306  0.8032  0.4483
   19CHL1  H23B 1393   5.240   3.273   8.713  1.1605 -1.7832 -2.5682
   19CHL1   C24 1394   5.267   3.059   8.681 -0.4729  0.3493  0.2050
   19CHL1  H24A 1395   5.344   3.020   8.751  1.0634  1.3943 -0.8493
   19CHL1  H24B 1396   5.195   2.976   8.663  0.6178 -0.1322 -2.2524
   19CHL1   C25 1397   5.353   3.088   8.552  0.4077  0.4052 -0.0316
   19CHL1   H25 1398   5.290   3.152   8.487 -0.9229 -0.3541  0.4673
   19CHL1   C26 1399   5.473   3.167   8.594 -0.2551  0.6644 -0.1622
   19CHL1  H26A 1400   5.531   3.190   8.502  0.2222 -0.7521 -0.2349
   19CHL1  H26B 1401   5.454   3.260   8.653  0.0913  2.2344 -2.4149
   19CHL1  H26C 1402   5.539   3.102   8.656  0.5408  0.4182 -1.2382
   19CHL1   C27 1403   5.388   2.963   8.484 -0.2389 -0.2084 -0.1862
   19CHL1  H27A 1404   5.466   2.986   8.409  0.7345 -0.3962  0.7354
   19CHL1  H27B 1405   5.442   2.903   8.561 -1.7054 -0.4661  0.6779
   19CHL1  H27C 1406   5.304   2.902   8.446  0.7661 -0.6270 -1.8179
   20CHL1    C3 1407   2.314   0.540   9.531 -1.1766 -0.2751  0.2579
   20CHL1    H3 1408   2.208   0.561   9.505 -0.7482 -0.0537 -1.4562
   20CHL1    O3 1409   2.327   0.499   9.666 -0.3575  0.1529  0.3788
   20CHL1   H3' 1410   2.423   0.491   9.673  0.0614  1.6887 -2.4534
   20CHL1    C4 1411   2.360   0.423   9.440 -0.0225 -0.8542  0.5075
   20CHL1   H4A 1412   2.467   0.399   9.461 -0.2145 -1.1716  1.1564
   20CHL1   H4B 1413   2.309   0.334   9.483 -0.1680 -0.7766  0.4934
   20CHL1    C5 1414   2.344   0.454   9.288 -0.8947  0.2430 -0.7552
   20CHL1    C6 1415   2.267   0.383   9.208 -0.8656  0.7005 -0.2064
   20CHL1    H6 1416   2.230   0.286   9.244 -1.5634  1.3395  0.8609
   20CHL1    C7 1417   2.249   0.416   9.065 -0.2155 -0.2997 -0.4435
   20CHL1   H7A 1418   2.258   0.327   9.000 -0.2772  0.5160 -1.6007
   20CHL1   H7B 1419   2.144   0.452   9.057 -0.8662 -2.4749 -2.7277
   20CHL1    C8 1420   2.340   0.526   9.010 -0.1263  1.1756  0.4927
   20CHL1    H8 1421   2.440   0.481   8.996  0.6797  3.0159 -0.0170
   20CHL1   C14 1422   2.288   0.578   8.878 -0.0185 -0.0330 -1.5780
   20CHL1   H14 1423   2.190   0.625   8.901 -0.0849  0.4328 -2.7451
   20CHL1   C15 1424   2.267   0.484   8.762 -0.6513 -0.3013 -0.2312
   20CHL1  H15A 1425   2.353   0.415   8.744 -1.2510 -1.3171  0.6877
   20CHL1  H15B 1426   2.176   0.421   8.762 -2.5558  2.2472 -1.4679
   20CHL1   C16 1427   2.270   0.573   8.637  0.2761  0.3492 -0.1290
   20CHL1  H16A 1428   2.353   0.555   8.565  0.1021  0.2012 -0.2923
   20CHL1  H16B 1429   2.172   0.567   8.586  0.7114  0.6846 -1.0239
   20CHL1   C17 1430   2.297   0.719   8.688 -0.0597  0.0207 -0.5882
   20CHL1   H17 1431   2.194   0.754   8.709 -1.0178 -2.9829  0.2226
   20CHL1   C13 1432   2.367   0.704   8.823 -0.6130  0.0300 -0.4473
   20CHL1   C18 1433   2.510   0.656   8.789 -0.8782  0.3142  0.1170
   20CHL1  H18A 1434   2.549   0.614   8.884  1.9057  1.5105 -0.4016
   20CHL1  H18B 1435   2.511   0.581   8.708 -2.3555  0.2343  0.1520
   20CHL1  H18C 1436   2.583   0.732   8.752  1.2106 -2.5500 -2.0509
   20CHL1   C12 1437   2.363   0.816   8.923  0.7960 -0.4270 -0.7905
   20CHL1  H12A 1438   2.438   0.892   8.891 -1.1771  1.1350 -1.9406
   20CHL1  H12B 1439   2.267   0.869   8.936  1.6247  0.8548  0.3752
   20CHL1   C11 1440   2.417   0.766   9.058 -0.5386  0.2299  0.6113
   20CHL1  H11A 1441   2.524   0.750   9.030 -0.6901  0.4460 -0.1256
   20CHL1  H11B 1442   2.405   0.848   9.132 -0.4793  1.2700 -0.4974
   20CHL1    C9 1443   2.350   0.640   9.113 -1.1155 -0.3020  0.3950
   20CHL1    H9 1444   2.249   0.679   9.137  0.1641  2.2883  2.1195
   20CHL1   C10 1445   2.410   0.589   9.250 -0.2738  0.2399 -0.1824
   20CHL1   C19 1446   2.565   0.574   9.223  0.5540  0.2722  0.4400
   20CHL1  H19A 1447   2.586   0.510   9.135 -0.4254  0.8250 -0.2191
   20CHL1  H19B 1448   2.615   0.671   9.202 -0.7817  1.0844  0.8943
   20CHL1  H19C 1449   2.612   0.532   9.315  0.1409 -3.7568 -1.0137
   20CHL1    C1 1450   2.382   0.702   9.354 -0.0669 -0.0268  0.2206
   20CHL1   H1A 1451   2.437   0.794   9.325  0.6032 -0.0317  1.3921
   20CHL1   H1B 1452   2.274   0.726   9.358 -0.1337 -0.4520  1.4994
   20CHL1    C2 1453   2.410   0.657   9.502 -0.2494 -0.2642  0.3267
   20CHL1   H2A 1454   2.374   0.737   9.570  0.9973 -0.2910  1.0587
   20CHL1   H2B 1455   2.518   0.633   9.510 -0.3469 -1.3970 -1.3196
   20CHL1   C20 1456   2.366   0.798   8.578 -0.1405 -0.3094 -0.2060
   20CHL1   H20 1457   2.470   0.759   8.570 -0.1074  0.0329 -1.7124
   20CHL1   C21 1458   2.375   0.949   8.616 -0.1136 -0.1915  0.1564
   20CHL1  H21A 1459   2.415   1.014   8.535  0.0348 -0.0504  0.3439
   20CHL1  H21B 1460   2.432   0.959   8.710 -0.9847 -0.9242  0.7820
   20CHL1  H21C 1461   2.278   0.996   8.643  0.2879  0.1590  1.0280
   20CHL1   C22 1462   2.290   0.800   8.441 -0.1757  0.6462  0.0321
   20CHL1  H22A 1463   2.344   0.875   8.379 -0.3466  0.8311  0.1075
   20CHL1  H22B 1464   2.310   0.699   8.398  3.3204  0.4125  1.8640
   20CHL1   C23 1465   2.140   0.834   8.453 -0.1402  0.0172  0.7800
   20CHL1  H23A 1466   2.083   0.772   8.524 -0.0557  0.3914  1.1805
   20CHL1  H23B 1467   2.128   0.941   8.481  0.9456  0.4730 -0.3413
   20CHL1   C24 1468   2.075   0.814   8.315 -0.5855  0.7275 -0.4981
   20CHL1  H24A 1469   2.141   0.855   8.235 -0.5524 -0.8675 -1.3376
   20CHL1  H24B 1470   2.070   0.706   8.293  2.0090  0.6032 -0.8145
   20CHL1   C25 1471   1.931   0.877   8.294 -0.4019  0.0793  1.0504
   20CHL1   H25 1472   1.934   0.987   8.311  1.4414  0.1823  0.2909
   20CHL1   C26 1473   1.875   0.854   8.156  0.8702  0.2005  0.6549
   20CHL1  H26A 1474   1.941   0.890   8.074  0.3041  0.0677  0.1266
   20CHL1  H26B 1475   1.868   0.743   8.151  4.6953 -0.1320 -2.7922
   20CHL1  H26C 1476   1.777   0.905   8.143 -0.5586 -2.3862  0.5972
   20CHL1   C27 1477   1.831   0.822   8.390  0.1119 -0.3164 -0.1800
   20CHL1  H27A 1478   1.804   0.717   8.364  0.0778  0.0874 -1.9013
   20CHL1  H27B 1479   1.856   0.815   8.498 -1.7425 -0.4485  0.2779
   20CHL1  H27C 1480   1.741   0.885   8.374 -1.1138 -1.8009  0.6083
   21CHL1    C3 1481   2.249   2.552  10.222 -0.3168  0.9602 -0.0151
   21CHL1    H3 1482   2.159   2.615  10.205 -2.7323 -2.2144  0.0340
   21CHL1    O3 1483   2.301   2.563  10.348  0.0487 -0.0236 -0.2031
   21CHL1   H3' 1484   2.339   2.476  10.362  0.2302  0.2511  1.2401
   21CHL1    C4 1485   2.195   2.406  10.209  0.1284  0.1348  0.1223
   21CHL1   H4A 1486   2.261   2.325  10.248 -1.0674 -0.9835 -0.1042
   21CHL1   H4B 1487   2.103   2.399  10.272 -0.6459 -1.9396 -1.1306
   21CHL1    C5 1488   2.182   2.370  10.064  0.3804 -0.6932  0.2364
   21CHL1    C6 1489   2.067   2.317  10.020  0.6122 -0.2356 -0.4903
   21CHL1    H6 1490   1.991   2.290  10.095  0.6655 -0.6390 -0.5810
   21CHL1    C7 1491   2.063   2.253   9.883 -0.2518  0.7508  0.3663
   21CHL1   H7A 1492   2.038   2.145   9.886 -1.6037  1.0459  0.4147
   21CHL1   H7B 1493   1.974   2.291   9.828  0.5540  0.6462 -1.0430
   21CHL1    C8 1494   2.196   2.256   9.793  0.0916 -0.3840  0.1499
   21CHL1    H8 1495   2.265   2.176   9.825  0.8765  0.0370 -0.4675
   21CHL1   C14 1496   2.150   2.248   9.651 -0.2235  0.1599  0.4492
   21CHL1   H14 1497   2.084   2.337   9.644  1.3360  1.3974  0.8195
   21CHL1   C15 1498   2.063   2.126   9.601 -1.1871  0.2214 -0.0777
   21CHL1  H15A 1499   2.109   2.032   9.640 -0.6437  0.0357 -1.1313
   21CHL1  H15B 1500   1.958   2.127   9.639 -1.5819 -2.8511 -0.8446
   21CHL1   C16 1501   2.077   2.128   9.446  0.5353  0.7558  0.1073
   21CHL1  H16A 1502   2.109   2.036   9.391  0.0618  0.2198  0.7107
   21CHL1  H16B 1503   1.975   2.156   9.413 -0.5074 -1.8424  0.8783
   21CHL1   C17 1504   2.179   2.241   9.412  0.3872 -0.0818  0.5332
   21CHL1   H17 1505   2.125   2.338   9.402 -0.8056 -0.9468 -2.1968
   21CHL1   C13 1506   2.262   2.256   9.544  0.2407  0.3995  0.2716
   21CHL1   C18 1507   2.352   2.130   9.569 -0.3626 -0.7950  0.3088
   21CHL1  H18A 1508   2.385   2.110   9.673  0.8133 -0.2431  0.0639
   21CHL1  H18B 1509   2.314   2.038   9.520  0.6889 -1.1223  0.0758
   21CHL1  H18C 1510   2.446   2.141   9.510 -0.4682  1.8260  0.5349
   21CHL1   C12 1511   2.337   2.392   9.570 -0.5873 -0.1648  0.0376
   21CHL1  H12A 1512   2.426   2.393   9.503 -1.9225  1.8368 -1.8278
   21CHL1  H12B 1513   2.274   2.479   9.539  0.0236  0.6620  1.0676
   21CHL1   C11 1514   2.380   2.393   9.717  0.9020  0.1443 -0.0973
   21CHL1  H11A 1515   2.448   2.307   9.731 -3.7156 -4.3141 -1.9231
   21CHL1  H11B 1516   2.432   2.491   9.731  1.1470  0.0785 -0.5288
   21CHL1    C9 1517   2.260   2.383   9.824  0.1011  0.3406  0.1280
   21CHL1    H9 1518   2.188   2.463   9.795  0.2519  0.4081 -0.0613
   21CHL1   C10 1519   2.301   2.404   9.973  0.6633 -0.0508 -0.2849
   21CHL1   C19 1520   2.417   2.306  10.003  0.2718 -0.1662 -0.5672
   21CHL1  H19A 1521   2.428   2.286  10.112  0.6492 -0.2261 -0.6165
   21CHL1  H19B 1522   2.398   2.211   9.950  0.7579  0.7863 -2.5180
   21CHL1  H19C 1523   2.505   2.336   9.943  0.3059 -2.2627 -1.6462
   21CHL1    C1 1524   2.345   2.552   9.990  0.3073 -0.4367  0.2698
   21CHL1   H1A 1525   2.436   2.567   9.929  1.3047 -1.7350  1.3745
   21CHL1   H1B 1526   2.259   2.609   9.949  1.0440 -0.5896 -1.5636
   21CHL1    C2 1527   2.371   2.591  10.133  0.1955  0.2737  0.1787
   21CHL1   H2A 1528   2.404   2.697  10.140 -1.8798  0.9658  0.0543
   21CHL1   H2B 1529   2.463   2.538  10.164  1.5327  2.2791 -0.1567
   21CHL1   C20 1530   2.246   2.213   9.272  1.0364 -0.4501  0.8150
   21CHL1   H20 1531   2.268   2.104   9.268 -0.7409 -0.8768  1.7254
   21CHL1   C21 1532   2.373   2.297   9.256  0.2840  0.3073 -0.1059
   21CHL1  H21A 1533   2.442   2.257   9.333 -1.7064 -0.5027  1.3300
   21CHL1  H21B 1534   2.356   2.406   9.264  1.8535  0.7711 -2.2299
   21CHL1  H21C 1535   2.420   2.283   9.156 -0.8385 -2.3099 -0.3623
   21CHL1   C22 1536   2.139   2.224   9.162  0.2230 -0.8137 -0.5150
   21CHL1  H22A 1537   2.048   2.180   9.207 -0.1013  0.0684 -0.2950
   21CHL1  H22B 1538   2.124   2.333   9.146 -0.7122 -0.9494 -0.5615
   21CHL1   C23 1539   2.178   2.160   9.035 -0.1705 -0.2952 -0.1199
   21CHL1  H23A 1540   2.279   2.193   9.004 -0.4358 -0.8426 -1.6471
   21CHL1  H23B 1541   2.177   2.050   9.049 -1.4491 -0.1392  1.2972
   21CHL1   C24 1542   2.075   2.186   8.929  0.9766  0.2458  0.3197
   21CHL1  H24A 1543   1.971   2.169   8.967  0.0308  0.9134 -1.8238
   21CHL1  H24B 1544   2.067   2.291   8.896  0.2425  0.1171  0.0674
   21CHL1   C25 1545   2.093   2.101   8.804 -0.4289 -0.6041  0.3534
   21CHL1   H25 1546   2.086   1.994   8.835  0.2619 -1.1067 -1.1194
   21CHL1   C26 1547   1.976   2.120   8.706  0.1528 -0.1209  0.2519
   21CHL1  H26A 1548   1.882   2.097   8.760  0.3654 -1.5021  0.0591
   21CHL1  H26B 1549   1.972   2.223   8.664  0.5603 -0.4011 -0.4858
   21CHL1  H26C 1550   1.985   2.048   8.623 -3.2572 -3.1217  2.1782
   21CHL1   C27 1551   2.231   2.109   8.732  0.2786  0.1735 -0.1336
   21CHL1  H27A 1552   2.277   2.210   8.736  0.4497  0.1073 -0.3653
   21CHL1  H27B 1553   2.296   2.043   8.793 -1.3998 -0.9023  0.5709
   21CHL1  H27C 1554   2.225   2.063   8.631  1.2652  0.9333 -0.5514
   22CHL1    C3 1555   0.843   4.456   9.930  0.1666 -0.1998 -0.3449
   22CHL1    H3 1556   0.823   4.349   9.906  1.7901 -0.4280 -0.8318
   22CHL1    O3 1557   0.885   4.457  10.072 -0.0478  0.4208 -0.3050
   22CHL1   H3' 1558   0.883   4.549  10.101  1.5216  1.0318 -1.9282
   22CHL1    C4 1559   0.951   4.507   9.829  0.2465 -0.1417  0.6253
   22CHL1   H4A 1560   0.980   4.608   9.865 -1.1960  1.0479 -1.3909
   22CHL1   H4B 1561   1.041   4.442   9.839 -0.0956 -0.8022 -0.3957
   22CHL1    C5 1562   0.906   4.516   9.687  0.5104  1.1974 -0.2447
   22CHL1    C6 1563   0.973   4.455   9.585  0.2247  0.4428 -0.1237
   22CHL1    H6 1564   1.066   4.399   9.605 -0.6838 -0.5782  1.4573
   22CHL1    C7 1565   0.947   4.465   9.444 -0.6401 -0.4481  0.4246
   22CHL1   H7A 1566   1.046   4.497   9.404  0.8040 -2.3893  2.1740
   22CHL1   H7B 1567   0.929   4.363   9.403  0.3487 -1.5076  2.4346
   22CHL1    C8 1568   0.826   4.563   9.405  0.4010  0.6252 -0.0012
   22CHL1    H8 1569   0.863   4.668   9.399  2.9290 -0.2444 -0.7162
   22CHL1   C14 1570   0.760   4.524   9.275  0.7112  0.6923  0.1303
   22CHL1   H14 1571   0.714   4.424   9.287  1.7423  0.4028  2.2437
   22CHL1   C15 1572   0.860   4.507   9.156  0.3738 -0.5026  0.2406
   22CHL1  H15A 1573   0.928   4.595   9.152  2.6595 -2.1516  1.0613
   22CHL1  H15B 1574   0.926   4.420   9.141 -1.9584 -2.4641  0.7388
   22CHL1   C16 1575   0.758   4.498   9.037 -0.2140 -0.7216  0.3007
   22CHL1  H16A 1576   0.793   4.562   8.953 -1.8406 -1.0913 -0.7121
   22CHL1  H16B 1577   0.752   4.399   8.988 -2.2611 -0.0475 -0.9216
   22CHL1   C17 1578   0.627   4.553   9.089  0.4783 -0.0746  0.0699
   22CHL1   H17 1579   0.563   4.463   9.106 -1.6234  0.5788 -3.4153
   22CHL1   C13 1580   0.648   4.620   9.223  0.1907  0.4015 -0.0711
   22CHL1   C18 1581   0.697   4.757   9.190 -0.0982  0.0949 -0.0018
   22CHL1  H18A 1582   0.720   4.809   9.285 -0.1786 -1.5386  0.9632
   22CHL1  H18B 1583   0.796   4.755   9.140  0.6549 -1.3380  1.4429
   22CHL1  H18C 1584   0.621   4.821   9.140 -1.6941  0.7634  3.0466
   22CHL1   C12 1585   0.542   4.628   9.332 -0.7766 -0.0113 -0.2313
   22CHL1  H12A 1586   0.472   4.710   9.305 -1.1198  0.3481  1.6288
   22CHL1  H12B 1587   0.486   4.532   9.344 -1.0311  0.3016  1.3051
   22CHL1   C11 1588   0.598   4.658   9.476  0.5669  0.6923  0.5372
   22CHL1  H11A 1589   0.626   4.766   9.473  0.1224  0.8642 -3.6515
   22CHL1  H11B 1590   0.514   4.646   9.548 -1.0512 -0.7577 -1.4709
   22CHL1    C9 1591   0.715   4.561   9.514 -0.0557  0.8998  0.1670
   22CHL1    H9 1592   0.667   4.460   9.509 -1.4387  1.5810 -1.6050
   22CHL1   C10 1593   0.772   4.584   9.659  0.1211  0.1698  0.1774
   22CHL1   C19 1594   0.802   4.729   9.676  0.5863 -0.3997  0.2412
   22CHL1  H19A 1595   0.856   4.756   9.769  2.2233 -1.3723 -0.3850
   22CHL1  H19B 1596   0.865   4.767   9.593  2.0351 -2.4918  0.3080
   22CHL1  H19C 1597   0.712   4.793   9.680 -0.0747 -1.0984 -1.8863
   22CHL1    C1 1598   0.667   4.530   9.765  0.2036 -0.0737  0.0669
   22CHL1   H1A 1599   0.570   4.585   9.770 -0.2925 -0.9712  0.7895
   22CHL1   H1B 1600   0.650   4.423   9.740 -1.6427 -0.4109  2.3706
   22CHL1    C2 1601   0.722   4.542   9.912 -0.6380  0.4357  0.4124
   22CHL1   H2A 1602   0.641   4.497   9.973  0.0653 -1.4942 -0.0012
   22CHL1   H2B 1603   0.744   4.643   9.952  0.9724  0.8079 -1.2887
   22CHL1   C20 1604   0.558   4.626   8.976 -0.3541 -0.7375 -0.2201
   22CHL1   H20 1605   0.617   4.718   8.952 -2.0682  0.8041  1.1989
   22CHL1   C21 1606   0.424   4.680   9.022 -0.6861  0.0637  0.1879
   22CHL1  H21A 1607   0.376   4.741   8.942 -1.9126 -0.0638  0.7976
   22CHL1  H21B 1608   0.429   4.748   9.109  2.2155  2.5370 -1.6803
   22CHL1  H21C 1609   0.359   4.595   9.049  0.4070 -0.6176  0.7416
   22CHL1   C22 1610   0.549   4.541   8.847  0.6351  0.3948 -0.2571
   22CHL1  H22A 1611   0.646   4.503   8.807  1.4297  3.4387 -1.4907
   22CHL1  H22B 1612   0.486   4.457   8.884  0.9412  0.7264  1.0746
   22CHL1   C23 1613   0.483   4.616   8.726  0.6042 -0.2992  0.6460
   22CHL1  H23A 1614   0.373   4.628   8.738  0.1654 -1.8247 -1.3097
   22CHL1  H23B 1615   0.535   4.713   8.714  0.3487 -0.1795  0.4731
   22CHL1   C24 1616   0.519   4.538   8.600  0.0776 -0.2377 -1.0458
   22CHL1  H24A 1617   0.629   4.531   8.591  0.2408  0.9823 -0.2475
   22CHL1  H24B 1618   0.485   4.432   8.603 -0.6565 -0.1057 -3.0307
   22CHL1   C25 1619   0.461   4.600   8.469 -0.3344 -0.1473  0.0173
   22CHL1   H25 1620   0.357   4.638   8.477 -0.5462 -0.6305 -0.3998
   22CHL1   C26 1621   0.537   4.729   8.446 -0.5194 -0.0022 -0.3391
   22CHL1  H26A 1622   0.526   4.802   8.528 -0.9478  1.8679 -1.9897
   22CHL1  H26B 1623   0.643   4.695   8.439 -1.0740 -1.5354 -2.3205
   22CHL1  H26C 1624   0.500   4.778   8.354 -2.6491 -0.6650  0.1136
   22CHL1   C27 1625   0.469   4.508   8.355  0.4432  0.1920 -0.1758
   22CHL1  H27A 1626   0.396   4.425   8.364  0.3590  0.2373 -0.4264
   22CHL1  H27B 1627   0.440   4.577   8.272  0.8697  0.9482  0.2886
   22CHL1  H27C 1628   0.564   4.458   8.327 -0.7385 -1.0142 -2.3009
   23CHL1    C3 1629   4.042   4.120   9.812  0.1776 -0.6742  0.0407
   23CHL1    H3 1630   4.149   4.139   9.789 -0.1147  0.9894 -0.1005
   23CHL1    O3 1631   4.022   4.178   9.943 -0.1365 -0.7051  0.0505
   23CHL1   H3' 1632   3.933   4.149   9.963 -0.4805 -1.2960 -2.0428
   23CHL1    C4 1633   3.951   4.194   9.713 -0.2096 -0.2308  0.4218
   23CHL1   H4A 1634   3.845   4.182   9.743 -1.2842  1.4195 -2.3447
   23CHL1   H4B 1635   3.976   4.302   9.715  0.9222 -0.3610 -2.1126
   23CHL1    C5 1636   3.964   4.141   9.569 -0.0302 -0.2047 -0.3800
   23CHL1    C6 1637   3.985   4.223   9.464 -0.1987 -0.3889 -0.5170
   23CHL1    H6 1638   3.992   4.332   9.472 -1.0404 -0.1836 -2.2099
   23CHL1    C7 1639   3.994   4.170   9.321 -0.7251 -0.9211  0.2720
   23CHL1   H7A 1640   3.932   4.231   9.251 -0.6412 -1.9801 -0.7625
   23CHL1   H7B 1641   4.098   4.170   9.282 -0.1242 -1.1791  1.7979
   23CHL1    C8 1642   3.932   4.030   9.301 -0.4237  0.5013 -0.5885
   23CHL1    H8 1643   3.822   4.040   9.307 -0.2557  1.4706  3.1007
   23CHL1   C14 1644   3.978   3.967   9.171 -0.3753  0.0710 -0.3062
   23CHL1   H14 1645   4.088   3.954   9.176 -0.3647  0.0081 -0.6737
   23CHL1   C15 1646   3.945   4.050   9.043 -0.2122 -0.2165  0.0018
   23CHL1  H15A 1647   3.849   4.104   9.059  0.1839  0.3192  0.5915
   23CHL1  H15B 1648   4.021   4.124   9.010  2.5197 -2.0502  1.7966
   23CHL1   C16 1649   3.941   3.942   8.934 -0.5659  0.2674 -0.0413
   23CHL1  H16A 1650   3.846   3.950   8.877  1.5724  0.2520 -3.9149
   23CHL1  H16B 1651   4.028   3.962   8.868 -0.6001  0.7254  0.0508
   23CHL1   C17 1652   3.976   3.810   9.001 -0.2081  0.1259  0.0244
   23CHL1   H17 1653   4.087   3.806   9.016 -0.4715 -0.8562  2.0596
   23CHL1   C13 1654   3.921   3.828   9.142 -0.4640  0.2658  0.5489
   23CHL1   C18 1655   3.766   3.836   9.137 -0.1311  1.1056  0.0556
   23CHL1  H18A 1656   3.719   3.741   9.105  1.9312  0.0018  0.1431
   23CHL1  H18B 1657   3.718   3.859   9.234 -4.4020 -0.3030 -1.5043
   23CHL1  H18C 1658   3.727   3.923   9.078  2.3287  3.6676  1.9377
   23CHL1   C12 1659   3.975   3.734   9.258 -0.4564 -0.5675 -0.4042
   23CHL1  H12A 1660   3.942   3.628   9.254  1.8792 -1.3822  0.3302
   23CHL1  H12B 1661   4.086   3.734   9.255 -0.4375 -0.5041  0.2163
   23CHL1   C11 1662   3.940   3.785   9.402  0.4601  0.2872 -0.1687
   23CHL1  H11A 1663   3.831   3.766   9.404  0.7627 -1.5599  0.2009
   23CHL1  H11B 1664   3.982   3.713   9.475 -1.7597 -0.6968  0.2207
   23CHL1    C9 1665   3.975   3.941   9.419 -0.4019  0.6922 -0.4340
   23CHL1    H9 1666   4.086   3.938   9.417 -0.3258  2.1529  0.3798
   23CHL1   C10 1667   3.937   3.995   9.558 -0.2020  0.0935  0.5514
   23CHL1   C19 1668   3.778   3.971   9.574  0.9182  0.4512  0.1226
   23CHL1  H19A 1669   3.724   4.036   9.502  0.3588  1.2651  1.2540
   23CHL1  H19B 1670   3.748   3.864   9.563 -1.5223  0.7569  2.7934
   23CHL1  H19C 1671   3.742   3.998   9.675 -0.3849 -1.2735  0.1611
   23CHL1    C1 1672   4.019   3.915   9.672  0.1712 -0.4031 -0.4270
   23CHL1   H1A 1673   3.979   3.812   9.671 -2.0918  0.3852  0.1615
   23CHL1   H1B 1674   4.127   3.907   9.648  0.3476 -1.7458  0.7235
   23CHL1    C2 1675   4.004   3.972   9.810 -0.7040 -0.3438 -0.1743
   23CHL1   H2A 1676   4.077   3.926   9.881  0.5336  1.4247 -0.2437
   23CHL1   H2B 1677   3.899   3.972   9.846 -1.5020  2.3417 -2.2191
   23CHL1   C20 1678   3.939   3.695   8.914 -0.2025 -0.1269 -0.2328
   23CHL1   H20 1679   3.831   3.674   8.929  0.0638 -1.1152  0.4170
   23CHL1   C21 1680   4.011   3.571   8.966  0.0163 -0.3591  0.1240
   23CHL1  H21A 1681   4.002   3.487   8.893 -2.0321 -1.0095  1.0637
   23CHL1  H21B 1682   3.961   3.530   9.056 -1.2079  0.1236 -0.3203
   23CHL1  H21C 1683   4.120   3.589   8.983  0.2303  0.8826 -2.1828
   23CHL1   C22 1684   3.950   3.726   8.761  0.5942 -0.1792  0.6312
   23CHL1  H22A 1685   3.897   3.818   8.729  1.2161  0.2801  0.9016
   23CHL1  H22B 1686   4.057   3.748   8.741  0.6732 -1.6804 -0.7951
   23CHL1   C23 1687   3.892   3.617   8.667 -0.0654 -0.0526  0.7333
   23CHL1  H23A 1688   3.942   3.522   8.698 -1.2751 -0.1919  2.4014
   23CHL1  H23B 1689   3.783   3.611   8.684 -0.1009  0.4378  0.6766
   23CHL1   C24 1690   3.918   3.663   8.520  0.1913  0.5849  0.0918
   23CHL1  H24A 1691   3.861   3.757   8.504 -1.4909 -0.5935 -1.1912
   23CHL1  H24B 1692   4.028   3.672   8.503  0.9384 -4.9214  0.0181
   23CHL1   C25 1693   3.873   3.563   8.409 -0.0540  0.6078  0.8804
   23CHL1   H25 1694   3.772   3.526   8.434  0.1719 -0.0828  0.7979
   23CHL1   C26 1695   3.869   3.621   8.261  0.0753 -0.3304 -0.2238
   23CHL1  H26A 1696   3.974   3.636   8.228  0.9314 -0.0109  2.3951
   23CHL1  H26B 1697   3.814   3.553   8.192 -1.8082  0.6194  0.2787
   23CHL1  H26C 1698   3.815   3.718   8.264 -0.0625 -0.4110  2.0371
   23CHL1   C27 1699   3.956   3.436   8.399 -0.6576 -0.3562 -0.1817
   23CHL1  H27A 1700   3.903   3.349   8.355  0.6371 -1.7413  0.9047
   23CHL1  H27B 1701   4.044   3.459   8.334 -1.1203  0.4218 -0.5519
   23CHL1  H27C 1702   3.995   3.402   8.497 -1.2533 -1.6708 -0.3852
   24CHL1    C3 1703   0.232   3.658  10.002  0.1425 -0.1781 -0.6017
   24CHL1    H3 1704   0.121   3.658  10.002  0.0414 -3.7297 -2.0168
   24CHL1    O3 1705   0.278   3.650  10.134 -0.4134 -0.2085 -0.3745
   24CHL1   H3' 1706   0.313   3.563  10.154  1.6376  0.7474  0.4894
   24CHL1    C4 1707   0.297   3.552   9.915  0.6452  0.5561  0.2825
   24CHL1   H4A 1708   0.406   3.553   9.932  0.9201 -0.0659 -1.2498
   24CHL1   H4B 1709   0.262   3.458   9.962  0.4316  0.3262 -0.3275
   24CHL1    C5 1710   0.254   3.559   9.768 -0.4598  0.0622 -0.2313
   24CHL1    C6 1711   0.199   3.445   9.711  0.4436 -0.1447 -0.6806
   24CHL1    H6 1712   0.191   3.352   9.769 -1.1133 -0.9376 -2.0905
   24CHL1    C7 1713   0.159   3.449   9.569 -0.1755  0.3369  0.2684
   24CHL1   H7A 1714   0.182   3.347   9.532  3.3257  1.2116 -0.3040
   24CHL1   H7B 1715   0.049   3.448   9.553  0.2152 -0.3775 -3.2832
   24CHL1    C8 1716   0.230   3.567   9.481 -0.4229  0.1472  0.5960
   24CHL1    H8 1717   0.338   3.540   9.476 -0.9554 -2.2723  0.5055
   24CHL1   C14 1718   0.175   3.581   9.343  0.1169 -0.6204 -0.3090
   24CHL1   H14 1719   0.068   3.607   9.351 -0.0126 -1.6839  2.3405
   24CHL1   C15 1720   0.183   3.456   9.254  0.5092 -0.5625 -0.1610
   24CHL1  H15A 1721   0.290   3.425   9.259  0.1985 -1.5390  0.8593
   24CHL1  H15B 1722   0.107   3.382   9.287  0.9115 -0.2144  1.6260
   24CHL1   C16 1723   0.163   3.515   9.108 -0.5161  0.2190 -0.1213
   24CHL1  H16A 1724   0.238   3.477   9.036 -2.0539 -1.7472 -0.7720
   24CHL1  H16B 1725   0.066   3.475   9.071  0.4068 -2.9413  0.5410
   24CHL1   C17 1726   0.168   3.666   9.122  0.5376 -0.0655  0.0024
   24CHL1   H17 1727   0.067   3.712   9.129  1.1117  1.0848  1.1030
   24CHL1   C13 1728   0.229   3.695   9.268  0.2474 -0.0398 -0.3087
   24CHL1   C18 1729   0.384   3.686   9.247 -0.3209 -0.0062 -0.2800
   24CHL1  H18A 1730   0.431   3.678   9.347 -2.9483 -1.1658  0.9558
   24CHL1  H18B 1731   0.422   3.606   9.180  0.9300  1.8462 -1.9407
   24CHL1  H18C 1732   0.423   3.777   9.195  0.4838  0.6860  1.4796
   24CHL1   C12 1733   0.197   3.830   9.331  1.1608  0.0425  0.4309
   24CHL1  H12A 1734   0.232   3.922   9.280 -2.9693  1.5801  0.0007
   24CHL1  H12B 1735   0.087   3.845   9.343  1.0301 -0.0201 -0.6052
   24CHL1   C11 1736   0.241   3.833   9.476  0.2705  0.0723  0.0201
   24CHL1  H11A 1737   0.350   3.853   9.470 -0.1223  2.7535  0.6458
   24CHL1  H11B 1738   0.202   3.923   9.527  2.8888  1.5208 -0.3520
   24CHL1    C9 1739   0.207   3.702   9.561  0.2683  0.2468 -0.5668
   24CHL1    H9 1740   0.097   3.692   9.574  0.3100 -1.2001 -1.1760
   24CHL1   C10 1741   0.270   3.697   9.700 -1.2131  0.1148  0.6646
   24CHL1   C19 1742   0.425   3.714   9.671 -0.3656  0.3230  0.0401
   24CHL1  H19A 1743   0.448   3.668   9.572  0.9889 -1.4541  1.1320
   24CHL1  H19B 1744   0.452   3.821   9.677 -1.8891  0.7589 -0.2602
   24CHL1  H19C 1745   0.493   3.652   9.732  0.5319 -2.0679 -3.0882
   24CHL1    C1 1746   0.219   3.806   9.802 -0.1234 -0.0024 -0.2536
   24CHL1   H1A 1747   0.274   3.896   9.771  0.5198 -0.3456 -0.1165
   24CHL1   H1B 1748   0.110   3.819   9.783 -0.2428  0.5098  0.7552
   24CHL1    C2 1749   0.262   3.800   9.948  0.0353 -0.1358 -0.6386
   24CHL1   H2A 1750   0.213   3.882  10.005  0.1879  0.9036 -1.9374
   24CHL1   H2B 1751   0.370   3.821   9.957 -0.0708  0.4150 -0.6301
   24CHL1   C20 1752   0.238   3.733   8.998  0.4907  0.1307 -0.1466
   24CHL1   H20 1753   0.341   3.692   8.985 -0.4884 -1.5679 -3.7787
   24CHL1   C21 1754   0.240   3.886   9.013 -0.5099 -0.3103 -0.0790
   24CHL1  H21A 1755   0.298   3.926   9.099  1.2421  0.2189 -1.4450
   24CHL1  H21B 1756   0.140   3.934   9.013  0.1761  1.1980 -1.1471
   24CHL1  H21C 1757   0.286   3.926   8.921  0.4193 -2.0378 -0.4079
   24CHL1   C22 1758   0.165   3.698   8.864 -0.4796 -0.1394 -0.8266
   24CHL1  H22A 1759   0.167   3.591   8.836 -1.8105 -0.5556  0.5649
   24CHL1  H22B 1760   0.062   3.736   8.884 -0.0266  0.7175 -0.0147
   24CHL1   C23 1761   0.224   3.768   8.736 -0.2663  0.7199 -0.2405
   24CHL1  H23A 1762   0.188   3.872   8.720 -0.9592  0.0986 -3.4125
   24CHL1  H23B 1763   0.334   3.760   8.749 -0.0891 -1.7726 -2.3956
   24CHL1   C24 1764   0.202   3.685   8.603  0.3762  0.5938  0.6807
   24CHL1  H24A 1765   0.223   3.578   8.626 -0.7865  0.4926  1.3430
   24CHL1  H24B 1766   0.092   3.677   8.589  0.1538 -2.0564  2.8704
   24CHL1   C25 1767   0.275   3.749   8.481 -0.4144 -0.0321  0.5105
   24CHL1   H25 1768   0.373   3.792   8.512 -0.3166  0.1927 -0.0864
   24CHL1   C26 1769   0.318   3.649   8.369 -0.4919 -0.1732 -0.0754
   24CHL1  H26A 1770   0.221   3.622   8.322 -1.0100  1.8273 -0.2620
   24CHL1  H26B 1771   0.390   3.702   8.303  0.5941 -0.0437  1.1713
   24CHL1  H26C 1772   0.367   3.552   8.391  0.2512  0.2067 -0.0418
   24CHL1   C27 1773   0.199   3.867   8.425  0.0323 -0.1167  0.0044
   24CHL1  H27A 1774   0.252   3.914   8.340 -0.2480 -0.6228 -0.4531
   24CHL1  H27B 1775   0.098   3.841   8.388  0.2665 -0.9205 -0.0829
   24CHL1  H27C 1776   0.174   3.945   8.501 -2.6413 -2.2024  1.4521
   25CHL1    C3 1777   1.186   0.188   9.625 -0.0416 -0.1859 -0.9413
   25CHL1    H3 1778   1.296   0.179   9.623 -0.0217 -0.0116 -0.6874
   25CHL1    O3 1779   1.149   0.220   9.757 -0.0408  0.0851  0.4561
   25CHL1   H3' 1780   1.060   0.189   9.774 -0.1325  0.1200  0.0470
   25CHL1    C4 1781   1.136   0.296   9.536 -0.1550 -0.4932  0.7701
   25CHL1   H4A 1782   1.029   0.312   9.563  0.1492  1.0472  1.1926
   25CHL1   H4B 1783   1.182   0.393   9.567 -0.8026  0.5250 -1.3006
   25CHL1    C5 1784   1.166   0.271   9.387  0.3197 -0.4290  0.3289
   25CHL1    C6 1785   1.225   0.371   9.319 -0.5563  0.4621  1.2222
   25CHL1    H6 1786   1.253   0.461   9.376 -1.1843 -0.6252  3.3524
   25CHL1    C7 1787   1.251   0.372   9.171 -0.5641  0.1850 -0.5527
   25CHL1   H7A 1788   1.218   0.470   9.130 -0.0576  0.6858  0.2273
   25CHL1   H7B 1789   1.359   0.349   9.158  0.1385  1.1306  2.8318
   25CHL1    C8 1790   1.164   0.269   9.096 -0.2116 -0.1165  0.7548
   25CHL1    H8 1791   1.062   0.311   9.086 -0.0406  0.0154 -0.5257
   25CHL1   C14 1792   1.230   0.239   8.958 -0.0093  0.3666  0.3699
   25CHL1   H14 1793   1.332   0.202   8.977  0.3550  1.8543  1.4666
   25CHL1   C15 1794   1.244   0.350   8.851 -0.5535 -0.3382  0.2524
   25CHL1  H15A 1795   1.159   0.418   8.828  0.8421  0.3458 -3.6509
   25CHL1  H15B 1796   1.333   0.411   8.879 -0.9448 -0.4763  1.8993
   25CHL1   C16 1797   1.265   0.284   8.715 -1.0697 -0.0031 -0.0002
   25CHL1  H16A 1798   1.191   0.321   8.641 -0.7785 -0.4705 -0.5378
   25CHL1  H16B 1799   1.368   0.293   8.675 -1.6033 -1.5748 -1.9102
   25CHL1   C17 1800   1.231   0.133   8.739  0.5437 -0.9500 -0.3866
   25CHL1   H17 1801   1.328   0.082   8.757  0.5957 -0.8171 -0.2836
   25CHL1   C13 1802   1.162   0.125   8.874  0.5915  0.0618 -0.0680
   25CHL1   C18 1803   1.013   0.154   8.852  0.5431 -0.5963  0.5815
   25CHL1  H18A 1804   0.997   0.248   8.794  0.3015 -1.3613 -0.6313
   25CHL1  H18B 1805   0.971   0.078   8.782 -0.7286 -0.7481  1.4788
   25CHL1  H18C 1806   0.959   0.165   8.948 -1.2474 -0.3112 -0.4098
   25CHL1   C12 1807   1.180  -0.001   8.963  0.4437 -0.0224  0.5542
   25CHL1  H12A 1808   1.149  -0.094   8.910  1.5406  0.1453 -0.4416
   25CHL1  H12B 1809   1.289  -0.004   8.983  0.3337  2.6316  2.0617
   25CHL1   C11 1810   1.120   0.007   9.105 -0.5536 -0.3526  0.2427
   25CHL1  H11A 1811   1.009   0.010   9.101 -0.6006 -1.7069 -0.0330
   25CHL1  H11B 1812   1.151  -0.086   9.157  1.6050  0.7208  0.9504
   25CHL1    C9 1813   1.170   0.135   9.180  0.4166  0.7031  0.1715
   25CHL1    H9 1814   1.280   0.127   9.192  0.7285  2.5179 -1.0785
   25CHL1   C10 1815   1.113   0.146   9.324 -0.1009  0.2233  0.3878
   25CHL1   C19 1816   0.959   0.162   9.305  0.8595 -0.0942  0.7239
   25CHL1  H19A 1817   0.940   0.231   9.219  3.3147 -0.5250 -0.2324
   25CHL1  H19B 1818   0.911   0.065   9.279  0.8350  0.3295 -0.9558
   25CHL1  H19C 1819   0.910   0.199   9.397  0.5225 -2.1642  1.4230
   25CHL1    C1 1820   1.143   0.032   9.421 -0.1435 -0.0144  0.5916
   25CHL1   H1A 1821   1.084  -0.051   9.377 -0.9331  1.7095 -1.8128
   25CHL1   H1B 1822   1.251   0.008   9.410  0.5873  2.9644  0.1257
   25CHL1    C2 1823   1.121   0.057   9.572  0.1937 -0.0018 -0.4354
   25CHL1   H2A 1824   1.160  -0.031   9.627 -1.2080  0.8599  2.1101
   25CHL1   H2B 1825   1.013   0.053   9.595 -0.1954  0.9654 -1.9484
   25CHL1   C20 1826   1.176   0.057   8.621  0.3412 -0.5288  0.7624
   25CHL1   H20 1827   1.069   0.079   8.597  0.6032 -1.4951 -1.6162
   25CHL1   C21 1828   1.182  -0.094   8.646 -0.2205  0.6557  0.4361
   25CHL1  H21A 1829   1.290  -0.112   8.663 -0.1483  0.2744 -0.4090
   25CHL1  H21B 1830   1.150  -0.147   8.554 -1.6749  0.6622  0.9042
   25CHL1  H21C 1831   1.117  -0.135   8.727  0.9008 -2.8829 -0.2956
   25CHL1   C22 1832   1.261   0.095   8.497 -0.3624 -0.3333  0.0348
   25CHL1  H22A 1833   1.235   0.036   8.406 -0.4142 -0.4928  0.1539
   25CHL1  H22B 1834   1.244   0.203   8.478  2.4201  0.1117 -0.2794
   25CHL1   C23 1835   1.410   0.083   8.509 -0.4925  0.1640 -0.1762
   25CHL1  H23A 1836   1.455   0.158   8.578 -1.0038  0.6244 -0.3308
   25CHL1  H23B 1837   1.436  -0.020   8.538  2.3694  0.2322 -2.0781
   25CHL1   C24 1838   1.475   0.099   8.364 -0.3101  0.1383  0.5754
   25CHL1  H24A 1839   1.417   0.030   8.300 -0.4038 -1.2837  2.1188
   25CHL1  H24B 1840   1.452   0.205   8.339  1.1952  0.0790 -1.3246
   25CHL1   C25 1841   1.626   0.087   8.348 -0.1589 -0.0826  0.3051
   25CHL1   H25 1842   1.679   0.146   8.426  0.5267  0.9997 -0.9362
   25CHL1   C26 1843   1.670  -0.054   8.369  0.4805  0.7022 -0.0068
   25CHL1  H26A 1844   1.651  -0.087   8.473  1.2179  2.4607  0.7248
   25CHL1  H26B 1845   1.625  -0.129   8.301 -2.2170 -0.2013  2.5707
   25CHL1  H26C 1846   1.781  -0.060   8.361  0.4646  1.4782 -0.9911
   25CHL1   C27 1847   1.677   0.134   8.210  0.4459 -0.2723 -0.2111
   25CHL1  H27A 1848   1.641   0.095   8.113  2.6849  0.1622 -1.2888
   25CHL1  H27B 1849   1.663   0.245   8.204  0.7578 -0.2667 -0.9998
   25CHL1  H27C 1850   1.781   0.099   8.196  0.5165 -0.5388  0.8914
   26CHL1    C3 1851   1.724   4.822   9.835  0.0739 -0.9758 -0.0729
   26CHL1    H3 1852   1.648   4.749   9.800  0.1625 -2.3785  2.4471
   26CHL1    O3 1853   1.731   4.816   9.977  0.4915  0.3497 -0.3278
   26CHL1   H3' 1854   1.750   4.725  10.001  0.8431  0.0716 -1.5905
   26CHL1    C4 1855   1.861   4.782   9.771  0.7776 -0.0693  0.9282
   26CHL1   H4A 1856   1.943   4.847   9.808  1.8560 -0.1218 -1.2030
   26CHL1   H4B 1857   1.890   4.679   9.802  0.5543 -0.4397 -0.0516
   26CHL1    C5 1858   1.854   4.786   9.620 -0.4562  0.1875 -0.2559
   26CHL1    C6 1859   1.906   4.689   9.542 -0.8400 -0.3168 -0.9458
   26CHL1    H6 1860   1.959   4.600   9.578  0.8017  0.8123 -0.4776
   26CHL1    C7 1861   1.901   4.684   9.390 -1.1150 -0.6275  0.3442
   26CHL1   H7A 1862   1.997   4.658   9.340 -0.8056  1.1318 -0.0197
   26CHL1   H7B 1863   1.824   4.611   9.357 -0.7623 -0.3260 -1.1974
   26CHL1    C8 1864   1.863   4.823   9.323 -0.8000  0.5487 -0.1050
   26CHL1    H8 1865   1.953   4.888   9.317 -0.8320  0.5797 -0.2627
   26CHL1   C14 1866   1.806   4.800   9.181  0.4018  0.7349  0.2174
   26CHL1   H14 1867   1.709   4.750   9.203  0.5422  1.1218  1.8475
   26CHL1   C15 1868   1.895   4.720   9.080 -0.2721  0.3542 -0.4771
   26CHL1  H15A 1869   2.001   4.747   9.097 -0.3559 -0.4483  1.6305
   26CHL1  H15B 1870   1.879   4.611   9.087 -0.7011  0.1844 -3.1611
   26CHL1   C16 1871   1.850   4.775   8.944  0.2796  1.0726  0.1235
   26CHL1  H16A 1872   1.937   4.806   8.882  3.1456 -0.8149  2.9170
   26CHL1  H16B 1873   1.797   4.695   8.887 -1.2126  0.8939  1.6713
   26CHL1   C17 1874   1.753   4.894   8.967  0.4406  0.1125 -0.5474
   26CHL1   H17 1875   1.652   4.848   8.967 -0.2634  1.5288 -2.2793
   26CHL1   C13 1876   1.781   4.938   9.113  0.2241 -0.2424 -0.5374
   26CHL1   C18 1877   1.903   5.033   9.122  0.4059  0.3763 -0.0222
   26CHL1  H18A 1878   1.999   4.989   9.087 -0.6148 -1.2124 -0.9408
   26CHL1  H18B 1879   1.884   5.134   9.079  0.1798  1.7877  3.1301
   26CHL1  H18C 1880   1.932   5.048   9.228 -0.4184 -1.4335  0.4885
   26CHL1   C12 1881   1.664   5.004   9.191  0.4336  0.7262 -0.2825
   26CHL1  H12A 1882   1.633   5.103   9.153 -1.0439 -0.3646 -2.1559
   26CHL1  H12B 1883   1.576   4.936   9.189  1.1309 -0.2310  0.3749
   26CHL1   C11 1884   1.696   5.018   9.343  0.7603 -0.0284  0.5712
   26CHL1  H11A 1885   1.765   5.104   9.350  0.3679  0.2258  1.3111
   26CHL1  H11B 1886   1.601   5.041   9.396 -0.3904  0.2784 -1.5106
   26CHL1    C9 1887   1.756   4.893   9.405 -0.5912  0.9712 -0.3270
   26CHL1    H9 1888   1.671   4.822   9.392 -2.4484  3.0989 -0.4663
   26CHL1   C10 1889   1.797   4.913   9.554 -0.1872 -0.7246 -0.4962
   26CHL1   C19 1890   1.908   5.028   9.572  0.0097 -0.2188  0.9995
   26CHL1  H19A 1891   1.950   5.039   9.674  1.0776 -0.1819  0.5678
   26CHL1  H19B 1892   1.994   5.014   9.502  0.3292  0.0931  1.3263
   26CHL1  H19C 1893   1.864   5.123   9.534 -0.7354 -0.8112  0.3299
   26CHL1    C1 1894   1.673   4.963   9.635 -0.6838  0.6473  0.3086
   26CHL1   H1A 1895   1.645   5.066   9.604 -0.8519  0.2430 -0.9181
   26CHL1   H1B 1896   1.594   4.890   9.610  0.5859 -0.2090 -1.4474
   26CHL1    C2 1897   1.688   4.961   9.788  0.3667  0.2659  0.0092
   26CHL1   H2A 1898   1.590   4.975   9.838  0.1314 -1.1150 -0.0283
   26CHL1   H2B 1899   1.762   5.031   9.833  2.9428 -2.5481  0.4312
   26CHL1   C20 1900   1.754   4.991   8.849 -0.2512  0.1674 -0.3132
   26CHL1   H20 1901   1.859   5.021   8.828 -0.9824  2.2119 -1.3252
   26CHL1   C21 1902   1.678   5.122   8.891  0.3509  1.1957  0.7497
   26CHL1  H21A 1903   1.577   5.090   8.926  0.8756 -1.1263  0.2410
   26CHL1  H21B 1904   1.665   5.192   8.806  2.3812  0.2179 -0.4209
   26CHL1  H21C 1905   1.726   5.176   8.976  0.6061 -1.1341  2.1586
   26CHL1   C22 1906   1.703   4.926   8.713  0.0453  1.0964 -0.1058
   26CHL1  H22A 1907   1.781   4.866   8.660 -0.1407 -0.2576  1.1025
   26CHL1  H22B 1908   1.622   4.861   8.749  0.7041 -0.0329 -0.6118
   26CHL1   C23 1909   1.644   5.015   8.599 -0.0915  0.2334 -0.5301
   26CHL1  H23A 1910   1.552   5.058   8.646  0.7601  1.7948 -0.2288
   26CHL1  H23B 1911   1.703   5.109   8.593  1.8372 -0.6230  2.6319
   26CHL1   C24 1912   1.599   4.941   8.478  0.1483 -0.6460  0.0840
   26CHL1  H24A 1913   1.683   4.931   8.406 -1.4511 -1.2015 -1.7965
   26CHL1  H24B 1914   1.587   4.833   8.502 -2.4299  0.0637  2.5244
   26CHL1   C25 1915   1.471   4.988   8.406  0.2182  0.6754 -0.4779
   26CHL1   H25 1916   1.456   5.098   8.419  0.3988  0.4926  1.7017
   26CHL1   C26 1917   1.464   4.944   8.260  0.0254 -0.2600 -0.2933
   26CHL1  H26A 1918   1.541   5.003   8.207  1.6466  1.2450  3.3933
   26CHL1  H26B 1919   1.485   4.835   8.260 -2.1119 -0.7682  2.3096
   26CHL1  H26C 1920   1.365   4.961   8.212 -0.8445 -0.0315  1.5089
   26CHL1   C27 1921   1.348   4.920   8.480 -0.0096 -0.0196 -0.6127
   26CHL1  H27A 1922   1.248   4.964   8.459  0.0532  2.4764  3.1766
   26CHL1  H27B 1923   1.364   4.811   8.479 -0.6910 -0.1465  0.6013
   26CHL1  H27C 1924   1.354   4.953   8.586 -0.9356 -2.9299  0.4245
   27CHL1    C3 1925   2.736   1.010   9.784  0.1105  0.1446  0.3628
   27CHL1    H3 1926   2.672   1.090   9.741  0.0845  1.0854  2.0737
   27CHL1    O3 1927   2.685   0.946   9.899 -0.3106  0.0067  0.0084
   27CHL1   H3' 1928   2.768   0.919   9.940  0.6653  1.7128 -0.7144
   27CHL1    C4 1929   2.755   0.902   9.678 -0.2310  0.2395  0.0909
   27CHL1   H4A 1930   2.824   0.825   9.717  0.9840  0.0801 -2.1750
   27CHL1   H4B 1931   2.656   0.855   9.659  0.1962 -0.2143 -1.1706
   27CHL1    C5 1932   2.819   0.950   9.547 -0.0017  0.5022 -0.6853
   27CHL1    C6 1933   2.762   0.930   9.426  0.4530 -0.2377  0.4927
   27CHL1    H6 1934   2.669   0.871   9.421 -0.3052  0.5773  3.4330
   27CHL1    C7 1935   2.822   0.979   9.298  0.6836 -0.4036 -0.7056
   27CHL1   H7A 1936   2.796   0.904   9.220 -2.7284  0.9721 -1.0675
   27CHL1   H7B 1937   2.764   1.071   9.279  0.5388 -0.1848  0.6494
   27CHL1    C8 1938   2.980   1.015   9.308  0.1043  0.6552 -0.1034
   27CHL1    H8 1939   3.036   0.919   9.303 -2.1883 -0.7355 -1.7250
   27CHL1   C14 1940   3.020   1.108   9.190 -0.0785 -0.1129  0.4661
   27CHL1   H14 1941   2.962   1.203   9.194 -1.1833 -0.6914 -0.9065
   27CHL1   C15 1942   2.980   1.050   9.052 -0.4167  0.1586 -0.9757
   27CHL1  H15A 1943   3.008   0.943   9.064  0.2268  0.4824  0.6517
   27CHL1  H15B 1944   2.873   1.075   9.034 -1.1657 -1.2089  1.1573
   27CHL1   C16 1945   3.077   1.134   8.966 -0.4458  0.2365  0.4405
   27CHL1  H16A 1946   3.131   1.056   8.908  1.4789  1.9996 -0.2914
   27CHL1  H16B 1947   3.007   1.198   8.906  0.5734  1.8144  0.8601
   27CHL1   C17 1948   3.173   1.211   9.057 -0.3235 -0.5423 -0.9838
   27CHL1   H17 1949   3.122   1.309   9.067 -2.0910 -1.1993 -2.7665
   27CHL1   C13 1950   3.167   1.139   9.193 -0.0872  0.0792 -0.4741
   27CHL1   C18 1951   3.250   1.015   9.181  0.0569 -0.2917 -0.1071
   27CHL1  H18A 1952   3.241   0.964   9.082  1.4013  0.7499 -0.8033
   27CHL1  H18B 1953   3.356   1.046   9.193  0.4324 -1.5028 -0.2340
   27CHL1  H18C 1954   3.239   0.953   9.272 -3.8697 -2.0857 -1.5737
   27CHL1   C12 1955   3.195   1.221   9.326 -0.3751 -1.0415  0.6591
   27CHL1  H12A 1956   3.299   1.260   9.332 -0.5160 -0.0915 -1.8446
   27CHL1  H12B 1957   3.135   1.314   9.317 -0.5890 -1.2109  0.3450
   27CHL1   C11 1958   3.145   1.154   9.452 -0.2297 -0.0519 -0.6162
   27CHL1  H11A 1959   3.222   1.076   9.470  0.7641  0.9023 -0.6291
   27CHL1  H11B 1960   3.158   1.229   9.532  0.8142  0.7201 -1.4761
   27CHL1    C9 1961   3.000   1.093   9.441  0.2347  0.2109  0.9031
   27CHL1    H9 1962   2.934   1.181   9.428 -1.1378 -0.8520  0.3552
   27CHL1   C10 1963   2.949   1.023   9.570  0.4141  0.3416 -0.1831
   27CHL1   C19 1964   3.052   0.914   9.609 -0.0115 -0.3353 -0.9741
   27CHL1  H19A 1965   3.027   0.841   9.689  0.1832  0.3646 -0.2641
   27CHL1  H19B 1966   3.066   0.855   9.516  0.8557 -0.1457 -0.9653
   27CHL1  H19C 1967   3.149   0.961   9.634 -0.3171  0.1873 -0.7626
   27CHL1    C1 1968   2.933   1.124   9.684 -0.9539 -0.7208 -0.4965
   27CHL1   H1A 1969   3.037   1.151   9.711 -0.8345 -0.9934 -0.6702
   27CHL1   H1B 1970   2.882   1.216   9.648  0.4299 -0.0477 -0.7768
   27CHL1    C2 1971   2.876   1.062   9.814 -1.1593  0.3822 -0.2988
   27CHL1   H2A 1972   2.867   1.148   9.883  0.4810  0.1095  0.2866
   27CHL1   H2B 1973   2.942   0.982   9.853 -1.5406  0.5080  0.6223
   27CHL1   C20 1974   3.306   1.236   8.985 -0.3592  0.3014  0.3135
   27CHL1   H20 1975   3.347   1.139   8.949 -0.7095  0.4080 -0.3922
   27CHL1   C21 1976   3.408   1.303   9.080 -0.0835 -0.5352 -0.7048
   27CHL1  H21A 1977   3.378   1.402   9.119  0.3625  0.1263 -1.9889
   27CHL1  H21B 1978   3.499   1.321   9.018  1.0460 -3.2437 -0.0155
   27CHL1  H21C 1979   3.427   1.242   9.170  2.4754  0.4379 -0.5099
   27CHL1   C22 1980   3.290   1.327   8.859 -0.8239  0.3219  0.1998
   27CHL1  H22A 1981   3.218   1.410   8.877  0.5437  1.0364  2.8920
   27CHL1  H22B 1982   3.386   1.376   8.834 -0.8407  0.1599 -0.1861
   27CHL1   C23 1983   3.273   1.245   8.727  0.0771 -0.2021 -0.4511
   27CHL1  H23A 1984   3.191   1.170   8.735  0.5302 -0.6026  0.5669
   27CHL1  H23B 1985   3.222   1.317   8.659 -1.6211 -0.7204  0.2112
   27CHL1   C24 1986   3.392   1.175   8.672 -0.4092 -0.7094 -0.1702
   27CHL1  H24A 1987   3.485   1.235   8.677 -1.3083  0.8030 -1.0649
   27CHL1  H24B 1988   3.410   1.088   8.739  1.3374  0.7039  1.3199
   27CHL1   C25 1989   3.384   1.112   8.530  0.2109  0.2316 -0.1011
   27CHL1   H25 1990   3.409   1.191   8.455  1.3755  2.1482  2.1898
   27CHL1   C26 1991   3.498   1.019   8.513 -0.2623 -0.3026 -0.4887
   27CHL1  H26A 1992   3.496   0.981   8.409 -1.0026 -0.1120 -0.5537
   27CHL1  H26B 1993   3.590   1.080   8.524 -0.4879 -0.0592  0.1042
   27CHL1  H26C 1994   3.494   0.943   8.594 -0.6931  0.9256  0.6812
   27CHL1   C27 1995   3.248   1.049   8.504  0.5013  0.3471  0.0404
   27CHL1  H27A 1996   3.182   1.139   8.504 -0.1188 -0.0646  1.9208
   27CHL1  H27B 1997   3.240   0.991   8.410 -0.1682  0.7649 -0.1677
   27CHL1  H27C 1998   3.211   0.986   8.588  0.3692  0.5158  0.1091
   28CHL1    C3 1999   2.482   5.958   9.709 -0.7307 -0.2503  0.1876
   28CHL1    H3 2000   2.396   6.029   9.708 -0.0774  0.5784 -1.7216
   28CHL1    O3 2001   2.523   5.939   9.843  0.8616 -0.2069 -0.3199
   28CHL1   H3' 2002   2.526   5.845   9.858 -0.3932 -0.0025  1.4630
   28CHL1    C4 2003   2.444   5.828   9.635 -0.3053 -0.2028  1.2262
   28CHL1   H4A 2004   2.531   5.758   9.644  0.3314 -0.0256 -2.0163
   28CHL1   H4B 2005   2.374   5.777   9.704 -1.3623 -1.0748 -0.4103
   28CHL1    C5 2006   2.406   5.849   9.493  0.1643 -0.1292 -0.0944
   28CHL1    C6 2007   2.286   5.802   9.446 -0.4432 -0.0196  0.5354
   28CHL1    H6 2008   2.209   5.745   9.501 -0.8192  1.2759  1.4072
   28CHL1    C7 2009   2.241   5.815   9.305  0.3102  0.3470  0.5541
   28CHL1   H7A 2010   2.193   5.719   9.274 -0.6150  1.0160 -0.1315
   28CHL1   H7B 2011   2.164   5.894   9.297  1.5597  1.5733  0.2901
   28CHL1    C8 2012   2.354   5.856   9.199  0.7951  0.4118 -0.8219
   28CHL1    H8 2013   2.412   5.761   9.190 -1.4991 -1.9487  4.5355
   28CHL1   C14 2014   2.307   5.905   9.067  0.4722 -0.3497  0.1351
   28CHL1   H14 2015   2.255   5.999   9.093  3.7032  2.5664 -2.8163
   28CHL1   C15 2016   2.190   5.831   8.996  0.6180 -0.5482  0.4870
   28CHL1  H15A 2017   2.217   5.723   8.997 -2.5379 -1.4215  0.2671
   28CHL1  H15B 2018   2.091   5.849   9.043 -0.2041 -0.1420 -1.3393
   28CHL1   C16 2019   2.194   5.886   8.854  0.2124 -0.3405 -0.1026
   28CHL1  H16A 2020   2.202   5.804   8.779  3.1668 -0.7331  0.5459
   28CHL1  H16B 2021   2.105   5.949   8.831  0.1502  0.1471  1.3948
   28CHL1   C17 2022   2.321   5.978   8.850 -0.5611 -0.5803 -0.2328
   28CHL1   H17 2023   2.279   6.078   8.875 -2.8852 -1.4137 -0.5393
   28CHL1   C13 2024   2.413   5.945   8.967 -0.1501  0.9525 -0.5498
   28CHL1   C18 2025   2.493   5.814   8.934 -0.1837  0.5594 -0.1166
   28CHL1  H18A 2026   2.426   5.727   8.918  1.9493 -1.1168 -0.3669
   28CHL1  H18B 2027   2.551   5.817   8.840  0.4131 -0.2212  0.2148
   28CHL1  H18C 2028   2.551   5.788   9.026 -0.8694  1.7581  0.6875
   28CHL1   C12 2029   2.495   6.056   9.027  0.5734  0.0018  0.4701
   28CHL1  H12A 2030   2.585   6.086   8.969 -0.5842  0.7885 -0.9796
   28CHL1  H12B 2031   2.433   6.146   9.044  0.9534  0.4798 -0.6141
   28CHL1   C11 2032   2.549   6.017   9.164 -0.3185  0.2233 -0.0648
   28CHL1  H11A 2033   2.636   5.953   9.138 -0.1315  1.8684 -4.1576
   28CHL1  H11B 2034   2.587   6.108   9.215 -0.7814 -0.5996  1.8398
   28CHL1    C9 2035   2.447   5.960   9.269  0.2303  0.2793 -0.4668
   28CHL1    H9 2036   2.377   6.041   9.298 -1.0337 -1.3366  1.1317
   28CHL1   C10 2037   2.509   5.923   9.402  0.5113 -0.5424  0.0787
   28CHL1   C19 2038   2.632   5.824   9.369 -0.1133 -0.0906  0.2582
   28CHL1  H19A 2039   2.589   5.756   9.293 -0.7734 -0.8395  1.2593
   28CHL1  H19B 2040   2.721   5.877   9.331  0.4118 -0.5067  0.8812
   28CHL1  H19C 2041   2.655   5.758   9.456  1.6215 -1.2919 -1.0603
   28CHL1    C1 2042   2.565   6.051   9.477  0.2176  0.0462  0.1297
   28CHL1   H1A 2043   2.661   6.088   9.434 -0.0419  1.3646  0.6407
   28CHL1   H1B 2044   2.497   6.138   9.472 -0.3597 -0.4814 -2.3265
   28CHL1    C2 2045   2.595   6.023   9.632 -0.3881  0.0465 -0.3869
   28CHL1   H2A 2046   2.621   6.123   9.673  1.4794 -1.0036  1.1382
   28CHL1   H2B 2047   2.686   5.960   9.646 -0.2715  0.6333  1.9338
   28CHL1   C20 2048   2.373   5.990   8.710  0.6017 -0.2120 -0.3789
   28CHL1   H20 2049   2.415   5.893   8.675  1.4460  0.1579 -0.4309
   28CHL1   C21 2050   2.489   6.094   8.701 -0.0159 -1.0129  0.0233
   28CHL1  H21A 2051   2.517   6.090   8.593 -0.5145 -1.4105 -0.0950
   28CHL1  H21B 2052   2.572   6.064   8.768 -0.8323 -0.5724  1.2682
   28CHL1  H21C 2053   2.447   6.193   8.728  0.6399 -0.8116  0.3343
   28CHL1   C22 2054   2.265   6.028   8.603  0.0513 -0.3152 -0.3458
   28CHL1  H22A 2055   2.189   5.948   8.612 -0.7749  0.5251  0.4403
   28CHL1  H22B 2056   2.203   6.120   8.611 -1.8724 -1.6547  1.6704
   28CHL1   C23 2057   2.306   6.015   8.461 -0.3110 -0.0358  0.0741
   28CHL1  H23A 2058   2.362   6.108   8.437  0.6634 -0.5696  0.2179
   28CHL1  H23B 2059   2.387   5.940   8.447  1.4510  1.6973  0.5278
   28CHL1   C24 2060   2.192   6.023   8.354 -0.4992 -0.2047  0.5830
   28CHL1  H24A 2061   2.136   5.927   8.355  0.4404 -0.7760 -0.0368
   28CHL1  H24B 2062   2.128   6.113   8.358 -0.4005  0.1129 -2.7462
   28CHL1   C25 2063   2.239   6.026   8.202 -0.1234  0.3271  0.0289
   28CHL1   H25 2064   2.145   6.040   8.145  0.0366 -1.3322 -0.6957
   28CHL1   C26 2065   2.331   6.149   8.168 -0.1698  0.3326  0.2377
   28CHL1  H26A 2066   2.433   6.141   8.211  0.7426  2.0298 -1.4217
   28CHL1  H26B 2067   2.329   6.166   8.058 -1.7956 -1.3407 -0.0337
   28CHL1  H26C 2068   2.287   6.245   8.204 -0.2735  0.5315 -0.4059
   28CHL1   C27 2069   2.310   5.895   8.163 -0.0488  0.5554  0.1096
   28CHL1  H27A 2070   2.317   5.880   8.053 -2.1787  0.4224 -0.0413
   28CHL1  H27B 2071   2.410   5.891   8.212 -0.4980  0.6535  1.0445
   28CHL1  H27C 2072   2.242   5.820   8.208 -0.3662 -0.0166 -1.2478
   29CHL1    C3 2073   4.031   3.471   7.124 -0.0353  0.0823 -0.1955
   29CHL1    H3 2074   4.084   3.384   7.168  0.2994  0.0254 -0.7048
   29CHL1    O3 2075   4.093   3.508   6.998 -0.1247 -0.2692 -0.2116
   29CHL1   H3' 2076   4.017   3.554   6.961 -0.7837 -1.3857 -0.2766
   29CHL1    C4 2077   3.884   3.425   7.089  0.2811  0.3720 -0.5094
   29CHL1   H4A 2078   3.825   3.500   7.033  1.0302  0.8582 -0.6746
   29CHL1   H4B 2079   3.915   3.341   7.023  2.5309  1.0323 -0.3746
   29CHL1    C5 2080   3.817   3.384   7.212  0.1624 -0.6422 -0.3953
   29CHL1    C6 2081   3.779   3.260   7.233  0.1611 -0.2033 -0.1048
   29CHL1    H6 2082   3.788   3.189   7.149 -3.4383 -0.3880 -0.5164
   29CHL1    C7 2083   3.703   3.220   7.354 -0.4382 -0.2501 -0.1547
   29CHL1   H7A 2084   3.623   3.145   7.335 -1.5976  0.2712  2.3060
   29CHL1   H7B 2085   3.768   3.164   7.424 -2.1567 -1.6441  0.4065
   29CHL1    C8 2086   3.646   3.333   7.444 -0.3984  0.4312 -0.2265
   29CHL1    H8 2087   3.559   3.378   7.390 -2.3605 -1.2474  1.3382
   29CHL1   C14 2088   3.611   3.292   7.580  0.3315  0.7427  0.5636
   29CHL1   H14 2089   3.705   3.258   7.629  0.1040 -0.2824  0.3049
   29CHL1   C15 2090   3.513   3.177   7.594 -0.2605  0.3618  0.1033
   29CHL1  H15A 2091   3.429   3.188   7.522 -0.2911 -2.7970 -0.4652
   29CHL1  H15B 2092   3.573   3.085   7.582  3.1597  2.2793  0.9130
   29CHL1   C16 2093   3.461   3.200   7.743  0.1608 -0.4842 -0.1151
   29CHL1  H16A 2094   3.353   3.222   7.731  0.0498  0.0591  1.6226
   29CHL1  H16B 2095   3.484   3.106   7.798  1.4754 -1.0618 -1.5990
   29CHL1   C17 2096   3.530   3.327   7.804  0.0425 -0.3813 -0.1462
   29CHL1   H17 2097   3.621   3.277   7.845  0.0031 -2.0080 -1.8886
   29CHL1   C13 2098   3.569   3.410   7.679  0.3793 -0.3043 -0.6221
   29CHL1   C18 2099   3.446   3.472   7.617 -0.4377  0.0118  0.1826
   29CHL1  H18A 2100   3.417   3.547   7.695 -1.1658  1.0257 -1.0323
   29CHL1  H18B 2101   3.478   3.524   7.525 -0.2528 -1.6387 -0.7072
   29CHL1  H18C 2102   3.369   3.397   7.591  0.8028 -0.3123 -2.9797
   29CHL1   C12 2103   3.690   3.507   7.692 -1.0088 -0.0126  0.1342
   29CHL1  H12A 2104   3.680   3.583   7.772 -3.0330  0.6894 -0.7216
   29CHL1  H12B 2105   3.773   3.447   7.735 -1.6110 -1.4130 -0.5864
   29CHL1   C11 2106   3.728   3.563   7.553  0.0072  0.0091 -0.1837
   29CHL1  H11A 2107   3.650   3.635   7.521  0.5322  1.3933  1.4614
   29CHL1  H11B 2108   3.823   3.621   7.555  0.4571 -0.7283  1.1781
   29CHL1    C9 2109   3.760   3.449   7.451  0.2409  1.0655  0.2311
   29CHL1    H9 2110   3.843   3.395   7.502  0.1985  0.1103 -0.6835
   29CHL1   C10 2111   3.806   3.498   7.313  0.3874  0.0836  0.0556
   29CHL1   C19 2112   3.710   3.609   7.265 -0.2995  0.9789  0.1058
   29CHL1  H19A 2113   3.749   3.629   7.163  3.2762 -0.7643  0.9932
   29CHL1  H19B 2114   3.612   3.561   7.247  0.8212 -0.9569 -1.1309
   29CHL1  H19C 2115   3.714   3.698   7.332  0.5168 -0.1496  1.6142
   29CHL1    C1 2116   3.945   3.565   7.327 -0.9765 -0.2454 -0.2350
   29CHL1   H1A 2117   3.929   3.658   7.386  0.0056 -0.0355 -0.2931
   29CHL1   H1B 2118   4.013   3.517   7.400 -0.7339 -0.7342 -0.7754
   29CHL1    C2 2119   4.025   3.601   7.202 -0.1531 -0.3999 -0.3047
   29CHL1   H2A 2120   4.121   3.649   7.231 -0.5586  0.6651 -0.6751
   29CHL1   H2B 2121   3.970   3.677   7.141  0.7676  1.1671  0.7311
   29CHL1   C20 2122   3.461   3.388   7.924 -0.3046  0.6193 -0.1337
   29CHL1   H20 2123   3.497   3.491   7.945  0.9717 -0.3028  2.8203
   29CHL1   C21 2124   3.514   3.313   8.048 -0.2550 -0.2491 -0.6584
   29CHL1  H21A 2125   3.457   3.356   8.133 -0.7821 -0.2263 -1.0222
   29CHL1  H21B 2126   3.621   3.334   8.069 -0.6683  0.1288  1.2619
   29CHL1  H21C 2127   3.488   3.206   8.036  0.2523 -0.6114  1.2134
   29CHL1   C22 2128   3.306   3.390   7.922 -0.0910 -0.0501 -0.3905
   29CHL1  H22A 2129   3.273   3.408   7.817  1.1503 -1.7829 -1.1356
   29CHL1  H22B 2130   3.264   3.291   7.951  0.5479 -0.0593  0.5051
   29CHL1   C23 2131   3.247   3.510   8.004 -0.5868 -0.3914  0.1613
   29CHL1  H23A 2132   3.293   3.496   8.104 -1.9443 -1.1149  0.7189
   29CHL1  H23B 2133   3.284   3.597   7.946  0.8983 -1.9723 -1.4159
   29CHL1   C24 2134   3.100   3.498   8.015  0.1886 -0.3452  0.6202
   29CHL1  H24A 2135   3.049   3.478   7.918 -1.1159  2.0725  0.7340
   29CHL1  H24B 2136   3.067   3.410   8.073 -1.2349  0.9557  1.8764
   29CHL1   C25 2137   3.036   3.625   8.075 -0.1922 -0.7236 -0.4684
   29CHL1   H25 2138   2.949   3.595   8.138  0.9684  0.5275  1.8825
   29CHL1   C26 2139   3.120   3.705   8.171 -0.1337  0.0593 -0.3199
   29CHL1  H26A 2140   3.059   3.783   8.222  1.0978 -0.1449  1.5579
   29CHL1  H26B 2141   3.141   3.648   8.264 -3.7558 -1.0261 -0.0034
   29CHL1  H26C 2142   3.216   3.741   8.128  0.0623 -0.0456  0.0229
   29CHL1   C27 2143   3.000   3.722   7.961 -0.2240 -0.1002  0.7561
   29CHL1  H27A 2144   2.967   3.660   7.875  1.0256 -2.2516  1.7586
   29CHL1  H27B 2145   2.920   3.798   7.980  0.4174  1.0881 -1.0603
   29CHL1  H27C 2146   3.084   3.786   7.928 -0.2315 -0.7685 -0.6198
   30CHL1    C3 2147   2.528   0.471   6.672  0.4941 -0.4332 -0.1972
   30CHL1    H3 2148   2.473   0.563   6.699 -0.1006 -0.3843 -1.4764
   30CHL1    O3 2149   2.526   0.452   6.534  0.2012 -0.4386  0.1392
   30CHL1   H3' 2150   2.544   0.542   6.506 -1.6478  0.6107  2.0023
   30CHL1    C4 2151   2.671   0.488   6.715 -0.5044  0.0452 -0.7216
   30CHL1   H4A 2152   2.736   0.398   6.704  0.9869  1.1304 -1.1425
   30CHL1   H4B 2153   2.724   0.562   6.652  2.1450 -0.1185  1.1353
   30CHL1    C5 2154   2.671   0.517   6.867 -0.0851 -0.2305  0.2615
   30CHL1    C6 2155   2.723   0.633   6.913  0.3591 -0.3439  0.5261
   30CHL1    H6 2156   2.764   0.714   6.850  0.5323  0.3429  1.4950
   30CHL1    C7 2157   2.747   0.651   7.059 -0.1279 -0.4129 -0.2993
   30CHL1   H7A 2158   2.844   0.698   7.083 -0.5115 -0.4692  1.5459
   30CHL1   H7B 2159   2.668   0.723   7.090 -0.8762 -0.6915 -1.5132
   30CHL1    C8 2160   2.718   0.525   7.149 -0.5048  0.1298  0.6051
   30CHL1    H8 2161   2.804   0.456   7.138 -0.9089 -0.6475  2.0162
   30CHL1   C14 2162   2.689   0.555   7.297 -0.7353 -0.5361 -0.2063
   30CHL1   H14 2163   2.594   0.611   7.289 -1.3746 -1.6812 -0.9080
   30CHL1   C15 2164   2.785   0.657   7.369  0.2343  0.0758 -0.1685
   30CHL1  H15A 2165   2.890   0.643   7.335  1.0594  1.0857  1.7943
   30CHL1  H15B 2166   2.760   0.762   7.341  1.0823  0.1471 -0.7117
   30CHL1   C16 2167   2.772   0.632   7.519  0.2677  0.2866  0.2205
   30CHL1  H16A 2168   2.861   0.580   7.563  0.9139  0.3430 -0.9676
   30CHL1  H16B 2169   2.746   0.719   7.583 -0.2812 -0.0738  0.4937
   30CHL1   C17 2170   2.662   0.511   7.529  0.8015 -0.7900 -0.3446
   30CHL1   H17 2171   2.564   0.562   7.543  0.7326 -0.4057 -1.9950
   30CHL1   C13 2172   2.661   0.441   7.393 -0.5087 -0.0312  0.8416
   30CHL1   C18 2173   2.782   0.346   7.374 -0.4149 -0.1503  0.0506
   30CHL1  H18A 2174   2.779   0.266   7.451  2.0755  0.4672  0.8955
   30CHL1  H18B 2175   2.790   0.298   7.275  1.4248 -0.6660  0.4060
   30CHL1  H18C 2176   2.874   0.404   7.397 -0.1570 -0.1737 -0.8996
   30CHL1   C12 2177   2.531   0.382   7.337 -0.3129  0.3086  0.5221
   30CHL1  H12A 2178   2.495   0.301   7.404  0.1815  0.7695  1.3642
   30CHL1  H12B 2179   2.457   0.464   7.349 -0.5436  0.0691  0.7581
   30CHL1   C11 2180   2.549   0.334   7.191  0.0393  0.0449  0.1717
   30CHL1  H11A 2181   2.621   0.250   7.197 -0.1842 -0.0687  2.0728
   30CHL1  H11B 2182   2.447   0.300   7.165 -0.1554  0.0867  0.8492
   30CHL1    C9 2183   2.590   0.451   7.096  0.4979  0.8147 -0.2907
   30CHL1    H9 2184   2.510   0.527   7.099 -0.3122 -0.0258 -0.0493
   30CHL1   C10 2185   2.608   0.407   6.951 -0.0498  0.3809 -0.3945
   30CHL1   C19 2186   2.702   0.282   6.944  0.5340 -0.3245 -0.7211
   30CHL1  H19A 2187   2.708   0.244   6.840  0.4128  1.2733 -1.3385
   30CHL1  H19B 2188   2.807   0.310   6.967  0.5393  1.2918 -2.4880
   30CHL1  H19C 2189   2.650   0.204   7.005  1.6891  0.7689  1.7784
   30CHL1    C1 2190   2.467   0.367   6.892 -0.0304 -0.4892 -0.7156
   30CHL1   H1A 2191   2.433   0.277   6.947  2.6098 -1.6821 -0.8635
   30CHL1   H1B 2192   2.400   0.453   6.916  2.2453  1.1977  0.0288
   30CHL1    C2 2193   2.454   0.360   6.743 -0.2646  0.6036 -0.8867
   30CHL1   H2A 2194   2.347   0.371   6.713 -1.0568 -1.6386  0.8740
   30CHL1   H2B 2195   2.486   0.259   6.710 -1.6089 -0.4751  0.9284
   30CHL1   C20 2196   2.683   0.419   7.648  0.3671  0.2162 -0.3448
   30CHL1   H20 2197   2.783   0.373   7.636  0.4793  0.6904 -1.2892
   30CHL1   C21 2198   2.584   0.304   7.648 -0.4163  0.7160  0.4041
   30CHL1  H21A 2199   2.576   0.250   7.745  0.9390 -0.3204 -0.0388
   30CHL1  H21B 2200   2.613   0.226   7.575  0.5679 -0.6701  2.1886
   30CHL1  H21C 2201   2.480   0.332   7.620  0.5372  3.0222 -1.1386
   30CHL1   C22 2202   2.687   0.488   7.786 -0.4301  0.6515 -0.4540
   30CHL1  H22A 2203   2.725   0.421   7.866 -2.4846  0.8509  0.7469
   30CHL1  H22B 2204   2.778   0.551   7.776 -0.5881  0.6736 -1.9868
   30CHL1   C23 2205   2.564   0.569   7.830 -0.4438  0.2445  0.4796
   30CHL1  H23A 2206   2.578   0.676   7.803 -0.3046  0.2863  0.7120
   30CHL1  H23B 2207   2.472   0.535   7.779  0.1765 -0.3886 -0.2261
   30CHL1   C24 2208   2.538   0.579   7.980  0.7898 -0.1320 -0.1377
   30CHL1  H24A 2209   2.545   0.473   8.015  1.4557 -0.5822 -1.5668
   30CHL1  H24B 2210   2.617   0.628   8.041  0.1694  1.2273 -0.3978
   30CHL1   C25 2211   2.404   0.639   8.006  0.1472  0.0348  0.3119
   30CHL1   H25 2212   2.337   0.583   7.937  0.9363 -1.0205  0.3809
   30CHL1   C26 2213   2.357   0.610   8.150 -0.1944  1.0339 -0.2593
   30CHL1  H26A 2214   2.261   0.657   8.178  0.2573  1.4791  0.5639
   30CHL1  H26B 2215   2.351   0.501   8.169 -0.3201  1.1017  0.0995
   30CHL1  H26C 2216   2.431   0.658   8.217 -2.3345 -0.5152  3.5230
   30CHL1   C27 2217   2.394   0.793   7.989 -0.0919  0.9957 -0.4113
   30CHL1  H27A 2218   2.429   0.844   7.896 -1.7717  2.5151 -0.2668
   30CHL1  H27B 2219   2.286   0.820   7.995 -0.0281  1.0416  0.6390
   30CHL1  H27C 2220   2.460   0.840   8.064  1.2449  1.3240 -1.7406
   31CHL1    C3 2221   1.597   3.059   6.820 -0.2904 -0.0497 -0.3285
   31CHL1    H3 2222   1.657   2.968   6.841 -0.0978  0.4435  1.4172
   31CHL1    O3 2223   1.560   3.066   6.685 -0.1327 -0.3985  0.2655
   31CHL1   H3' 2224   1.503   2.991   6.664  1.1792 -1.1815 -0.6265
   31CHL1    C4 2225   1.467   3.050   6.899  0.7460  0.0750 -0.0810
   31CHL1   H4A 2226   1.399   3.133   6.871 -2.4735 -2.4885 -0.4141
   31CHL1   H4B 2227   1.410   2.964   6.858  1.7660 -0.6733  0.0210
   31CHL1    C5 2228   1.477   3.044   7.051 -0.3597 -0.4662 -0.2480
   31CHL1    C6 2229   1.438   2.945   7.126  0.7898  0.0826 -0.0155
   31CHL1    H6 2230   1.390   2.857   7.081  0.9828 -0.5119  0.9056
   31CHL1    C7 2231   1.452   2.952   7.279 -0.1766  0.2895  0.1989
   31CHL1   H7A 2232   1.368   2.912   7.339  0.5762 -2.2986 -0.3025
   31CHL1   H7B 2233   1.539   2.888   7.305  0.2827  0.9048  0.1979
   31CHL1    C8 2234   1.499   3.091   7.334  0.0127 -0.3687  0.4767
   31CHL1    H8 2235   1.410   3.155   7.353  1.1928  1.1865  0.9805
   31CHL1   C14 2236   1.559   3.069   7.473 -0.6391 -0.2492 -0.1722
   31CHL1   H14 2237   1.653   3.016   7.446 -0.2293  0.3592  0.0398
   31CHL1   C15 2238   1.484   2.994   7.581 -0.6536 -0.1637 -0.3775
   31CHL1  H15A 2239   1.376   3.022   7.574 -0.6013 -0.2365 -1.9101
   31CHL1  H15B 2240   1.494   2.884   7.579 -1.9088 -0.3479  1.3457
   31CHL1   C16 2241   1.553   3.038   7.715 -0.2578  0.2946  0.1958
   31CHL1  H16A 2242   1.469   3.081   7.773  0.7141  0.4566  1.5306
   31CHL1  H16B 2243   1.593   2.950   7.769  0.1527  0.5395  0.2983
   31CHL1   C17 2244   1.652   3.150   7.676  0.4710  0.8288 -0.4050
   31CHL1   H17 2245   1.745   3.094   7.650 -0.3217 -0.0160 -1.5315
   31CHL1   C13 2246   1.600   3.199   7.535  0.4209  0.5473  0.0410
   31CHL1   C18 2247   1.476   3.288   7.575 -0.5331  0.5122  0.1707
   31CHL1  H18A 2248   1.415   3.307   7.484 -0.2883  0.4723 -0.0029
   31CHL1  H18B 2249   1.403   3.241   7.644 -1.3271  0.3875 -0.7140
   31CHL1  H18C 2250   1.501   3.390   7.611 -0.5260  0.4162  0.4410
   31CHL1   C12 2251   1.705   3.274   7.451  0.9476  0.1782  0.2842
   31CHL1  H12A 2252   1.714   3.373   7.501 -1.6849  0.4635  0.3524
   31CHL1  H12B 2253   1.799   3.214   7.453  0.8706  0.0155 -0.7096
   31CHL1   C11 2254   1.655   3.289   7.307 -0.2252 -0.2797  0.1539
   31CHL1  H11A 2255   1.576   3.367   7.312 -1.3924 -1.4784  1.2596
   31CHL1  H11B 2256   1.742   3.325   7.249 -0.4115  0.2853  0.2176
   31CHL1    C9 2257   1.599   3.161   7.241  1.2025 -0.6992  0.0127
   31CHL1    H9 2258   1.682   3.087   7.249 -0.4073 -2.4225  1.7671
   31CHL1   C10 2259   1.556   3.171   7.094 -0.2384  0.1492 -0.0093
   31CHL1   C19 2260   1.458   3.292   7.081 -0.2360 -0.5729  0.3090
   31CHL1  H19A 2261   1.432   3.313   6.975 -0.2257 -0.8161  0.2595
   31CHL1  H19B 2262   1.369   3.266   7.144 -0.7959  0.3934 -0.0572
   31CHL1  H19C 2263   1.500   3.386   7.124  0.8801 -0.0307 -1.8148
   31CHL1    C1 2264   1.686   3.186   7.010 -0.0991  0.3254  0.3188
   31CHL1   H1A 2265   1.732   3.285   7.032 -1.7290  0.8091  1.7677
   31CHL1   H1B 2266   1.763   3.110   7.036  1.0519  1.2101 -0.3905
   31CHL1    C2 2267   1.662   3.181   6.857 -0.7999  0.1137  0.2544
   31CHL1   H2A 2268   1.763   3.191   6.812 -0.0209 -0.7543  1.7443
   31CHL1   H2B 2269   1.600   3.272   6.837 -1.6775 -0.2903  1.0658
   31CHL1   C20 2270   1.695   3.254   7.778 -0.4921  0.5176  0.3365
   31CHL1   H20 2271   1.646   3.349   7.749 -2.8886 -1.1404 -1.4200
   31CHL1   C21 2272   1.851   3.276   7.775  0.6741  0.2520  0.0154
   31CHL1  H21A 2273   1.876   3.372   7.826 -1.7511  1.1918 -0.4512
   31CHL1  H21B 2274   1.888   3.282   7.671 -3.7484  1.3377 -1.6769
   31CHL1  H21C 2275   1.904   3.189   7.820  0.2016  0.1043  0.2959
   31CHL1   C22 2276   1.647   3.211   7.926  0.5646  0.6474 -0.5451
   31CHL1  H22A 2277   1.536   3.214   7.927  0.5108 -0.4748  1.4780
   31CHL1  H22B 2278   1.669   3.107   7.956 -0.7011  0.3229 -0.6671
   31CHL1   C23 2279   1.698   3.304   8.039  0.6281  0.5476 -0.7325
   31CHL1  H23A 2280   1.807   3.323   8.028  0.8692 -0.3002  0.1510
   31CHL1  H23B 2281   1.640   3.400   8.035  0.2738  0.4271  1.0149
   31CHL1   C24 2282   1.682   3.227   8.176 -0.5792  0.0995  0.3226
   31CHL1  H24A 2283   1.574   3.225   8.203 -1.5339  0.2491 -3.0572
   31CHL1  H24B 2284   1.707   3.119   8.170 -0.3243  0.1848 -0.3172
   31CHL1   C25 2285   1.766   3.286   8.290  0.3666  0.1130 -0.6280
   31CHL1   H25 2286   1.867   3.295   8.244  0.0637 -1.8668 -1.8295
   31CHL1   C26 2287   1.709   3.427   8.325  0.4743 -0.5112 -0.1301
   31CHL1  H26A 2288   1.717   3.496   8.239 -3.1131  0.4785  0.1701
   31CHL1  H26B 2289   1.603   3.428   8.359 -0.0930  1.1188 -1.8271
   31CHL1  H26C 2290   1.766   3.471   8.410  0.1242  1.7779 -1.0298
   31CHL1   C27 2291   1.788   3.189   8.407  0.8995  0.0832  0.3423
   31CHL1  H27A 2292   1.873   3.119   8.393  1.4852 -0.1569  4.0885
   31CHL1  H27B 2293   1.695   3.134   8.429 -0.0773  0.1145 -3.1371
   31CHL1  H27C 2294   1.812   3.250   8.497 -0.7208  2.4811 -0.7421
   32CHL1    C3 2295   2.125   2.124   6.425  0.6039  0.0259 -0.4397
   32CHL1    H3 2296   2.028   2.155   6.468  1.1914  2.2554 -0.5929
   32CHL1    O3 2297   2.139   2.153   6.287  0.3095  0.6458  0.0399
   32CHL1   H3' 2298   2.234   2.156   6.273  0.5395  2.6461  1.5264
   32CHL1    C4 2299   2.230   2.200   6.510 -0.2982 -0.5284  0.0234
   32CHL1   H4A 2300   2.327   2.154   6.482 -0.0295 -0.4494  0.8224
   32CHL1   H4B 2301   2.230   2.306   6.478  2.4246 -0.7148 -0.8211
   32CHL1    C5 2302   2.226   2.188   6.660 -0.1354 -0.0850  0.5403
   32CHL1    C6 2303   2.201   2.291   6.742 -0.2855  0.3335 -0.3852
   32CHL1    H6 2304   2.192   2.393   6.702 -0.8836  0.1254 -0.8030
   32CHL1    C7 2305   2.197   2.271   6.887  0.4743 -0.3843  0.2291
   32CHL1   H7A 2306   2.250   2.357   6.933 -2.3896  1.2911  0.6189
   32CHL1   H7B 2307   2.093   2.281   6.924  0.1782  0.0229 -0.6843
   32CHL1    C8 2308   2.255   2.135   6.939 -0.1718  0.0423 -0.7197
   32CHL1    H8 2309   2.365   2.142   6.930  0.0272 -1.6591  0.0272
   32CHL1   C14 2310   2.209   2.115   7.084  0.4585  0.6346 -0.2982
   32CHL1   H14 2311   2.099   2.104   7.085  0.4340  0.6179 -1.5334
   32CHL1   C15 2312   2.256   2.228   7.176 -0.0034 -0.1711 -0.4210
   32CHL1  H15A 2313   2.355   2.253   7.134 -0.0132  0.9367  0.1677
   32CHL1  H15B 2314   2.192   2.319   7.176  0.2364  0.0075  0.3357
   32CHL1   C16 2315   2.275   2.159   7.314  0.2029  0.0638  0.8427
   32CHL1  H16A 2316   2.373   2.171   7.365 -1.5802 -0.5657  4.8572
   32CHL1  H16B 2317   2.218   2.210   7.395 -0.9971  1.7437 -0.9677
   32CHL1   C17 2318   2.235   2.016   7.292 -0.4582  0.1517 -0.5874
   32CHL1   H17 2319   2.124   2.015   7.286 -0.8448  3.3774  2.3019
   32CHL1   C13 2320   2.270   1.988   7.144 -0.3325  0.3254 -0.4690
   32CHL1   C18 2321   2.419   1.977   7.144  0.1909  0.3517  0.1095
   32CHL1  H18A 2322   2.462   1.976   7.042  0.4139  2.9838  0.1224
   32CHL1  H18B 2323   2.469   2.054   7.206  0.6604 -0.5630  0.8957
   32CHL1  H18C 2324   2.449   1.881   7.192  0.9224  0.1892 -0.6585
   32CHL1   C12 2325   2.210   1.876   7.065  0.6338  0.2227 -0.3789
   32CHL1  H12A 2326   2.251   1.777   7.094 -0.5448 -0.5808 -1.3216
   32CHL1  H12B 2327   2.100   1.882   7.079  0.6030 -1.5896  0.5582
   32CHL1   C11 2328   2.224   1.876   6.915 -0.3608 -1.2106  0.1836
   32CHL1  H11A 2329   2.331   1.848   6.901  0.5278  2.7810 -2.5525
   32CHL1  H11B 2330   2.161   1.801   6.863 -1.0367 -0.1735 -0.4983
   32CHL1    C9 2331   2.197   2.017   6.849  0.2787  0.0912  0.0614
   32CHL1    H9 2332   2.087   2.027   6.857  0.4803  1.7464  1.5599
   32CHL1   C10 2333   2.237   2.036   6.700  0.5820 -1.1175 -0.9025
   32CHL1   C19 2334   2.388   2.010   6.688 -1.4818  1.0213 -0.4031
   32CHL1  H19A 2335   2.424   2.020   6.584  0.3734  0.7789  0.1666
   32CHL1  H19B 2336   2.452   2.072   6.754 -3.1317  0.6076  1.7016
   32CHL1  H19C 2337   2.407   1.904   6.717  0.6592  0.5504 -3.1872
   32CHL1    C1 2338   2.149   1.939   6.606  0.2578 -0.6916 -0.1589
   32CHL1   H1A 2339   2.190   1.837   6.620 -0.6758 -0.7891  2.5725
   32CHL1   H1B 2340   2.041   1.943   6.636  0.6209  0.6769  1.1300
   32CHL1    C2 2341   2.152   1.977   6.456 -1.0494 -0.3544  0.5223
   32CHL1   H2A 2342   2.079   1.925   6.390  1.5223  0.5395 -3.3823
   32CHL1   H2B 2343   2.251   1.942   6.418 -1.8884 -2.3877  0.0620
   32CHL1   C20 2344   2.277   1.919   7.405  0.2791 -0.1400 -0.4329
   32CHL1   H20 2345   2.388   1.927   7.403  0.3478  1.1013  2.6903
   32CHL1   C21 2346   2.239   1.771   7.386 -0.2286 -0.4681  0.7473
   32CHL1  H21A 2347   2.130   1.763   7.366 -0.0379 -1.9419  0.1988
   32CHL1  H21B 2348   2.260   1.710   7.476 -2.6907  0.0293  1.7531
   32CHL1  H21C 2349   2.287   1.733   7.294 -1.5894 -1.2572  0.3342
   32CHL1   C22 2350   2.238   1.973   7.550  0.1705 -0.3343  0.2658
   32CHL1  H22A 2351   2.273   2.077   7.569 -4.0329  0.7464  3.6303
   32CHL1  H22B 2352   2.128   1.974   7.561 -0.1047 -1.2418 -1.8944
   32CHL1   C23 2353   2.294   1.894   7.670 -0.4496  0.5976 -0.7028
   32CHL1  H23A 2354   2.256   1.790   7.660  1.0245 -0.2531  1.7483
   32CHL1  H23B 2355   2.404   1.887   7.655 -0.3431  0.7636 -0.0387
   32CHL1   C24 2356   2.248   1.950   7.805 -0.3205  1.1415  0.6286
   32CHL1  H24A 2357   2.300   2.049   7.814  1.9957  0.0243  0.2966
   32CHL1  H24B 2358   2.138   1.964   7.799 -0.3137  0.5104 -2.7409
   32CHL1   C25 2359   2.304   1.871   7.930 -0.0560  0.8557 -0.2510
   32CHL1   H25 2360   2.411   1.843   7.925 -0.0442  0.8808 -0.1358
   32CHL1   C26 2361   2.280   1.964   8.049 -0.0506 -0.0348 -0.3205
   32CHL1  H26A 2362   2.278   1.908   8.145  0.1222  0.7237  0.1337
   32CHL1  H26B 2363   2.360   2.042   8.045 -0.2374  0.1237 -1.4974
   32CHL1  H26C 2364   2.185   2.021   8.046  1.9391  3.5784 -0.4899
   32CHL1   C27 2365   2.218   1.743   7.962 -0.0447 -0.1125  0.0171
   32CHL1  H27A 2366   2.247   1.691   8.055 -1.0129 -0.0426  0.3643
   32CHL1  H27B 2367   2.112   1.776   7.968  1.1281  4.0147  1.6027
   32CHL1  H27C 2368   2.221   1.678   7.872 -0.7537 -1.8489  1.1974
   33CHL1    C3 2369   4.573   2.752   6.578 -0.3925  0.4506 -0.2042
   33CHL1    H3 2370   4.556   2.852   6.623  2.4073  1.6508 -1.5715
   33CHL1    O3 2371   4.562   2.742   6.441 -0.8566 -0.0542  0.1250
   33CHL1   H3' 2372   4.503   2.667   6.434 -1.7821  0.6504  0.1326
   33CHL1    C4 2373   4.717   2.708   6.613 -0.2251  0.0088  0.7344
   33CHL1   H4A 2374   4.736   2.609   6.566  1.3145  0.2479  0.8187
   33CHL1   H4B 2375   4.796   2.772   6.569 -0.5041 -1.0108 -1.3901
   33CHL1    C5 2376   4.748   2.665   6.753 -0.0521  0.0680  0.4942
   33CHL1    C6 2377   4.858   2.710   6.817 -0.1152  0.6072  0.6255
   33CHL1    H6 2378   4.936   2.775   6.773  0.5437 -0.7831 -0.3353
   33CHL1    C7 2379   4.884   2.662   6.959  0.6156 -0.5135 -0.2277
   33CHL1   H7A 2380   4.988   2.623   6.966  0.1454 -1.5576  3.2239
   33CHL1   H7B 2381   4.866   2.748   7.027 -2.5767 -0.5861 -0.8286
   33CHL1    C8 2382   4.785   2.561   7.024  0.2537  0.5799  0.0969
   33CHL1    H8 2383   4.824   2.462   6.991 -1.2471  0.1710 -0.5389
   33CHL1   C14 2384   4.788   2.559   7.176 -0.4588  0.3192 -0.0960
   33CHL1   H14 2385   4.759   2.663   7.205  2.0663  0.9811  0.3055
   33CHL1   C15 2386   4.924   2.550   7.250 -0.7802 -0.6516 -0.1331
   33CHL1  H15A 2387   4.999   2.489   7.196  0.4400  0.1915  0.5485
   33CHL1  H15B 2388   4.975   2.648   7.261  1.8336 -2.0778  1.6200
   33CHL1   C16 2389   4.886   2.503   7.391 -0.1863  0.5896 -0.1189
   33CHL1  H16A 2390   4.950   2.421   7.428 -0.9407  0.8517  1.9196
   33CHL1  H16B 2391   4.900   2.575   7.474  2.7725  1.6013 -1.3539
   33CHL1   C17 2392   4.732   2.478   7.390  0.4153 -0.4878  0.4520
   33CHL1   H17 2393   4.695   2.573   7.434 -0.6841  0.5682 -2.5552
   33CHL1   C13 2394   4.695   2.467   7.242  0.1777 -0.5137 -0.3032
   33CHL1   C18 2395   4.732   2.322   7.195 -0.1284 -0.1700 -0.0896
   33CHL1  H18A 2396   4.654   2.251   7.232 -0.5630  0.7605  0.8423
   33CHL1  H18B 2397   4.733   2.318   7.084  2.2298 -2.4237 -0.0810
   33CHL1  H18C 2398   4.833   2.299   7.236  0.4807  0.9258 -0.9409
   33CHL1   C12 2399   4.550   2.514   7.205 -0.4880 -0.0119 -0.4755
   33CHL1  H12A 2400   4.477   2.453   7.262 -0.2683  0.8649  0.7930
   33CHL1  H12B 2401   4.524   2.617   7.237  1.0439  0.1406  0.3814
   33CHL1   C11 2402   4.531   2.506   7.052  0.4485  0.1225  0.7387
   33CHL1  H11A 2403   4.536   2.400   7.018  0.9592  0.8453 -1.5716
   33CHL1  H11B 2404   4.428   2.545   7.043  0.4788  0.2464  0.9092
   33CHL1    C9 2405   4.638   2.586   6.974  0.4879  0.1592  0.2357
   33CHL1    H9 2406   4.619   2.691   7.005 -4.0048 -0.3115 -0.2859
   33CHL1   C10 2407   4.634   2.583   6.816  0.0757  0.5627 -0.4276
   33CHL1   C19 2408   4.640   2.436   6.770 -0.1421 -0.2141 -0.4921
   33CHL1  H19A 2409   4.565   2.367   6.815 -0.4633  0.4766  0.0361
   33CHL1  H19B 2410   4.636   2.411   6.662  0.5082 -0.2569 -0.5124
   33CHL1  H19C 2411   4.741   2.401   6.799  0.0159  0.0981 -0.6682
   33CHL1    C1 2412   4.498   2.634   6.786  0.3012 -0.5710 -0.1758
   33CHL1   H1A 2413   4.420   2.566   6.827  1.0788 -0.5606  1.4164
   33CHL1   H1B 2414   4.490   2.726   6.849  0.5350 -0.0017 -0.9520
   33CHL1    C2 2415   4.458   2.664   6.641 -0.0943 -0.1635 -0.3287
   33CHL1   H2A 2416   4.372   2.733   6.645  0.9501  1.1580  0.0988
   33CHL1   H2B 2417   4.445   2.569   6.585  2.3028 -0.7386 -0.0332
   33CHL1   C20 2418   4.693   2.375   7.491 -0.3106  0.7340 -0.9114
   33CHL1   H20 2419   4.754   2.283   7.476  0.5324  1.4484 -2.0327
   33CHL1   C21 2420   4.538   2.329   7.475  0.2019  0.4710 -0.6771
   33CHL1  H21A 2421   4.469   2.416   7.480 -0.7320 -0.2910  0.0963
   33CHL1  H21B 2422   4.498   2.276   7.564  0.6110  1.5220  0.1655
   33CHL1  H21C 2423   4.532   2.264   7.386  0.0402 -2.2047  1.1814
   33CHL1   C22 2424   4.711   2.416   7.644  0.0117  0.3491  0.3086
   33CHL1  H22A 2425   4.781   2.500   7.662 -0.7381  0.9483  0.4632
   33CHL1  H22B 2426   4.615   2.466   7.668 -0.0367  0.5349 -0.2580
   33CHL1   C23 2427   4.729   2.303   7.731  0.1795 -0.2031 -0.7788
   33CHL1  H23A 2428   4.639   2.238   7.724  0.2330 -0.4731  0.6928
   33CHL1  H23B 2429   4.819   2.240   7.716  1.5238  1.5129 -0.3199
   33CHL1   C24 2430   4.728   2.352   7.879  0.1295  0.0257  0.0578
   33CHL1  H24A 2431   4.827   2.403   7.874  0.9630 -1.5664 -0.3179
   33CHL1  H24B 2432   4.639   2.417   7.895  1.0911  1.3285  0.2754
   33CHL1   C25 2433   4.735   2.250   7.987 -0.3263 -0.1018 -0.5849
   33CHL1   H25 2434   4.667   2.167   7.956 -0.7665 -0.0115  0.1398
   33CHL1   C26 2435   4.873   2.182   7.985 -0.0459 -0.1326 -0.0798
   33CHL1  H26A 2436   4.945   2.252   8.032 -1.2202  1.2623 -0.2774
   33CHL1  H26B 2437   4.852   2.086   8.038 -1.8389 -0.5588 -1.4376
   33CHL1  H26C 2438   4.913   2.158   7.885  0.9629  0.0345  0.2713
   33CHL1   C27 2439   4.700   2.313   8.121 -0.3668 -0.0447 -0.1797
   33CHL1  H27A 2440   4.785   2.354   8.181 -1.3662  1.1067  0.4998
   33CHL1  H27B 2441   4.634   2.401   8.105 -0.5204  0.4690  2.7642
   33CHL1  H27C 2442   4.645   2.242   8.185 -0.3324 -0.0122 -0.1132
   34CHL1    C3 2443   2.787   2.774   6.624  0.5092  0.2556 -0.2112
   34CHL1    H3 2444   2.681   2.740   6.624  0.3997  0.6035  0.0306
   34CHL1    O3 2445   2.811   2.792   6.485 -0.2120 -0.2420  0.0831
   34CHL1   H3' 2446   2.805   2.701   6.452  2.9652 -0.0896 -1.3361
   34CHL1    C4 2447   2.793   2.916   6.690 -1.0132  0.4103 -0.2265
   34CHL1   H4A 2448   2.895   2.960   6.686  0.0865 -0.8178  5.5237
   34CHL1   H4B 2449   2.720   2.977   6.633  0.1250  4.1905  2.0266
   34CHL1    C5 2450   2.766   2.908   6.840 -0.5911  0.5992  0.2117
   34CHL1    C6 2451   2.662   2.970   6.897 -0.2416  0.1193 -0.5481
   34CHL1    H6 2452   2.606   3.047   6.842 -0.9563  0.4179  0.5711
   34CHL1    C7 2453   2.628   2.967   7.046  0.4307  0.5974 -0.3720
   34CHL1   H7A 2454   2.595   3.066   7.084 -1.7088  0.1027 -0.8151
   34CHL1   H7B 2455   2.543   2.898   7.063  1.0958  0.0154  0.7310
   34CHL1    C8 2456   2.742   2.897   7.131  0.7296 -0.3103  0.1216
   34CHL1    H8 2457   2.820   2.977   7.129  0.4395 -0.0354 -0.5176
   34CHL1   C14 2458   2.684   2.869   7.272  0.5682 -0.1943  0.3783
   34CHL1   H14 2459   2.598   2.799   7.265 -1.4039  2.1121  0.2532
   34CHL1   C15 2460   2.633   2.992   7.347 -0.4486 -0.5734 -0.5869
   34CHL1  H15A 2461   2.701   3.080   7.337 -2.4698  0.9878 -1.2081
   34CHL1  H15B 2462   2.530   3.015   7.313 -0.3312 -0.4480 -0.8592
   34CHL1   C16 2463   2.642   2.941   7.493 -0.2347 -0.0476  0.6566
   34CHL1  H16A 2464   2.693   3.024   7.548  0.2682 -0.5738  0.9955
   34CHL1  H16B 2465   2.544   2.925   7.542  0.2735  1.1382  2.1550
   34CHL1   C17 2466   2.728   2.810   7.494  0.7087  0.3467 -0.4151
   34CHL1   H17 2467   2.646   2.735   7.496 -0.2861  1.3377  2.8732
   34CHL1   C13 2468   2.796   2.802   7.361 -0.3669  0.8886 -0.3690
   34CHL1   C18 2469   2.929   2.889   7.362  1.0335  0.2679 -0.2710
   34CHL1  H18A 2470   2.959   2.935   7.265 -1.2898  1.3239 -0.5789
   34CHL1  H18B 2471   2.904   2.974   7.430  2.2808  2.1676 -2.0543
   34CHL1  H18C 2472   3.019   2.839   7.402  2.0645  0.5591 -2.0982
   34CHL1   C12 2473   2.825   2.664   7.297  0.5834  0.1969  0.0126
   34CHL1  H12A 2474   2.888   2.591   7.351 -0.2024 -0.2447  0.3512
   34CHL1  H12B 2475   2.721   2.624   7.297 -1.2484  4.1424  3.9355
   34CHL1   C11 2476   2.878   2.681   7.148  0.0834 -0.2509 -0.5983
   34CHL1  H11A 2477   2.981   2.721   7.153 -0.1924  0.6234 -1.5649
   34CHL1  H11B 2478   2.893   2.580   7.104  2.5823  0.6112 -1.9574
   34CHL1    C9 2479   2.791   2.768   7.056  0.3732 -0.9835 -0.2315
   34CHL1    H9 2480   2.702   2.702   7.046 -0.6158  0.2841  0.0016
   34CHL1   C10 2481   2.848   2.800   6.914  0.1737 -0.0145 -0.2112
   34CHL1   C19 2482   2.995   2.855   6.935  0.4961 -0.3581  0.5627
   34CHL1  H19A 2483   3.053   2.763   6.957  0.0122 -0.6633  0.5759
   34CHL1  H19B 2484   3.035   2.903   6.843 -1.0998  0.5134  0.2971
   34CHL1  H19C 2485   2.995   2.926   7.020 -1.8196 -0.4510  0.6874
   34CHL1    C1 2486   2.853   2.661   6.839  0.5200  0.2360 -0.5921
   34CHL1   H1A 2487   2.939   2.605   6.880 -0.4534 -0.5478  0.4739
   34CHL1   H1B 2488   2.757   2.605   6.845 -0.8036  2.2521 -1.8533
   34CHL1    C2 2489   2.873   2.667   6.690 -0.5712  0.3310 -0.0796
   34CHL1   H2A 2490   2.853   2.564   6.653 -0.1094 -0.5867  2.0166
   34CHL1   H2B 2491   2.975   2.702   6.664 -0.9532  0.4728 -1.4209
   34CHL1   C20 2492   2.810   2.788   7.629  0.5013 -0.9279 -0.0566
   34CHL1   H20 2493   2.871   2.878   7.654 -0.5450 -0.1460 -0.2916
   34CHL1   C21 2494   2.903   2.664   7.626  0.1322 -0.2440 -0.2765
   34CHL1  H21A 2495   2.836   2.584   7.586  0.0652 -0.5768  0.4799
   34CHL1  H21B 2496   2.953   2.646   7.723  0.6303  3.3747  0.2834
   34CHL1  H21C 2497   2.980   2.677   7.547 -0.7544  0.0831 -1.1200
   34CHL1   C22 2498   2.711   2.770   7.745  0.2660 -0.6818 -0.3768
   34CHL1  H22A 2499   2.632   2.847   7.737  0.9535 -0.0898 -2.0470
   34CHL1  H22B 2500   2.659   2.673   7.729 -0.6979 -0.1794 -0.3427
   34CHL1   C23 2501   2.763   2.762   7.896  0.2248  0.2651  0.4093
   34CHL1  H23A 2502   2.835   2.678   7.895  2.0231  1.7593 -0.9030
   34CHL1  H23B 2503   2.822   2.855   7.912 -0.8603  0.7935  1.5287
   34CHL1   C24 2504   2.645   2.735   7.990  0.0492 -0.7603 -0.3489
   34CHL1  H24A 2505   2.573   2.819   7.978 -0.3423 -1.0646 -0.1654
   34CHL1  H24B 2506   2.600   2.638   7.957 -0.2780 -0.0010 -2.2349
   34CHL1   C25 2507   2.677   2.718   8.138 -0.6136  0.7192 -1.0558
   34CHL1   H25 2508   2.724   2.618   8.148  1.5563  1.6796 -0.9224
   34CHL1   C26 2509   2.783   2.820   8.178  0.0706 -0.6548 -0.3180
   34CHL1  H26A 2510   2.816   2.820   8.284 -0.7253 -0.3242 -0.0634
   34CHL1  H26B 2511   2.879   2.797   8.127  1.6611 -1.3059  2.7619
   34CHL1  H26C 2512   2.746   2.920   8.145 -0.4115 -1.4602 -2.3910
   34CHL1   C27 2513   2.549   2.732   8.228 -0.3320 -0.1331 -0.8167
   34CHL1  H27A 2514   2.454   2.693   8.184  0.6815 -1.4721 -1.8880
   34CHL1  H27B 2515   2.571   2.697   8.331  0.8028  1.3733 -0.5239
   34CHL1  H27C 2516   2.523   2.838   8.247  1.4560  0.1253  0.3490
   35CHL1    C3 2517   1.842   0.881   6.178 -0.3012  0.1325 -0.3555
   35CHL1    H3 2518   1.939   0.845   6.140  0.1189  0.7468  0.1109
   35CHL1    O3 2519   1.754   0.880   6.066 -0.5493  0.3912  0.3248
   35CHL1   H3' 2520   1.736   0.791   6.035 -2.8367  1.5194 -2.0038
   35CHL1    C4 2521   1.801   0.776   6.285  0.1513 -0.6717  0.1609
   35CHL1   H4A 2522   1.698   0.796   6.323  0.5409  1.1079  0.3957
   35CHL1   H4B 2523   1.791   0.676   6.238 -2.5880  0.2222 -1.3479
   35CHL1    C5 2524   1.897   0.777   6.404 -0.8898 -0.4671 -0.3655
   35CHL1    C6 2525   1.964   0.667   6.439  0.2133  0.5912  0.1401
   35CHL1    H6 2526   1.946   0.577   6.379 -0.6502  0.8583 -0.0248
   35CHL1    C7 2527   2.053   0.661   6.556 -0.8749 -0.1344 -0.3172
   35CHL1   H7A 2528   2.036   0.581   6.631  0.0402 -1.3756 -1.3777
   35CHL1   H7B 2529   2.158   0.657   6.519 -0.8448  1.5403 -0.4477
   35CHL1    C8 2530   2.049   0.789   6.647 -0.8636 -0.1962 -0.5682
   35CHL1    H8 2531   1.959   0.781   6.712 -1.3796  0.0338 -1.2419
   35CHL1   C14 2532   2.176   0.810   6.737 -0.3224 -0.1718  0.5317
   35CHL1   H14 2533   2.260   0.823   6.666 -0.4376 -2.3332 -0.0726
   35CHL1   C15 2534   2.227   0.686   6.812  0.5016  0.1211  0.1433
   35CHL1  H15A 2535   2.143   0.638   6.866  1.5281 -1.5339  0.3187
   35CHL1  H15B 2536   2.274   0.613   6.742  0.8114 -1.0350  1.5096
   35CHL1   C16 2537   2.329   0.744   6.914 -0.3510 -1.1723 -0.3133
   35CHL1  H16A 2538   2.290   0.717   7.014 -0.5777  0.1162 -0.0319
   35CHL1  H16B 2539   2.433   0.707   6.904  0.2661  0.2509  0.5259
   35CHL1   C17 2540   2.313   0.905   6.902 -0.4244 -0.3917 -0.3529
   35CHL1   H17 2541   2.388   0.934   6.825 -0.0356 -0.1321  0.1193
   35CHL1   C13 2542   2.181   0.931   6.829  0.2707  0.1781 -0.6674
   35CHL1   C18 2543   2.074   0.931   6.937  0.4859  0.6643  0.1533
   35CHL1  H18A 2544   1.967   0.937   6.906  0.2545 -0.6204  0.6429
   35CHL1  H18B 2545   2.092   0.846   7.006  2.0883  0.6684 -0.2274
   35CHL1  H18C 2546   2.073   1.025   6.995 -1.4655 -0.1023  1.4831
   35CHL1   C12 2547   2.172   1.055   6.742 -0.5263  0.0313 -0.4280
   35CHL1  H12A 2548   2.158   1.146   6.804  1.2023 -0.8079  1.3109
   35CHL1  H12B 2549   2.269   1.065   6.689  1.2485 -3.2265  1.8334
   35CHL1   C11 2550   2.055   1.048   6.645 -0.8858 -0.4299  0.0663
   35CHL1  H11A 2551   1.964   1.057   6.708  0.7568  0.6688  2.4651
   35CHL1  H11B 2552   2.060   1.128   6.568  0.9443  0.1010  0.6847
   35CHL1    C9 2553   2.041   0.916   6.561  0.0389  0.1606 -0.1244
   35CHL1    H9 2554   2.126   0.933   6.492  1.2110 -0.1409  1.2017
   35CHL1   C10 2555   1.920   0.918   6.469  0.1404  0.2593 -0.4529
   35CHL1   C19 2556   1.788   0.953   6.538  0.1899  0.1015 -0.1873
   35CHL1  H19A 2557   1.807   1.059   6.567  0.0578  0.1335 -0.2172
   35CHL1  H19B 2558   1.702   0.953   6.468 -0.7082  1.1475  0.8648
   35CHL1  H19C 2559   1.768   0.880   6.619  1.6119  0.4725  0.5403
   35CHL1    C1 2560   1.955   1.022   6.355  0.2011 -0.3343  0.2032
   35CHL1   H1A 2561   1.944   1.123   6.400 -0.7988 -1.3307  2.3370
   35CHL1   H1B 2562   2.061   1.017   6.324  0.8780 -2.9886  2.5649
   35CHL1    C2 2563   1.857   1.024   6.235 -0.4784  0.2477 -0.8300
   35CHL1   H2A 2564   1.896   1.093   6.157 -1.5666  2.3690  0.3960
   35CHL1   H2B 2565   1.759   1.067   6.265 -1.1527 -3.2445  2.7808
   35CHL1   C20 2566   2.362   0.989   7.027 -0.0561 -0.3975 -0.3898
   35CHL1   H20 2567   2.295   0.986   7.116  1.8931  0.1238  1.1829
   35CHL1   C21 2568   2.384   1.147   6.990 -0.3245  0.7347  0.2394
   35CHL1  H21A 2569   2.412   1.193   7.087  2.0054 -3.1808  1.6489
   35CHL1  H21B 2570   2.293   1.203   6.959  1.5700  3.5086 -0.6535
   35CHL1  H21C 2571   2.472   1.153   6.923  1.4770 -0.4504  2.3708
   35CHL1   C22 2572   2.498   0.934   7.083  0.3856 -0.1288 -0.5772
   35CHL1  H22A 2573   2.488   0.823   7.087  0.6580 -0.1210  1.8938
   35CHL1  H22B 2574   2.579   0.962   7.012 -0.2584  2.6735 -0.3411
   35CHL1   C23 2575   2.541   0.994   7.220  0.4914  0.7481 -0.2261
   35CHL1  H23A 2576   2.607   0.918   7.266 -1.7645 -0.9329  0.4172
   35CHL1  H23B 2577   2.588   1.094   7.206 -2.1293  2.7016  3.1344
   35CHL1   C24 2578   2.427   1.032   7.321  0.3565  0.3883  0.1972
   35CHL1  H24A 2579   2.376   1.123   7.284 -1.5261 -1.0601 -0.9671
   35CHL1  H24B 2580   2.359   0.944   7.316  2.0233 -0.8915 -1.1676
   35CHL1   C25 2581   2.471   1.052   7.462  0.5552  0.4232  0.1240
   35CHL1   H25 2582   2.560   1.118   7.471  0.1947  0.9078  0.2398
   35CHL1   C26 2583   2.356   1.122   7.539  1.1452  0.4701  0.4185
   35CHL1  H26A 2584   2.286   1.035   7.542  2.5553 -0.7600 -0.7372
   35CHL1  H26B 2585   2.388   1.148   7.642  2.0574  2.0303 -0.2382
   35CHL1  H26C 2586   2.307   1.202   7.480  0.7891 -0.0930 -0.0709
   35CHL1   C27 2587   2.511   0.922   7.537  0.5743  0.0756  0.1734
   35CHL1  H27A 2588   2.442   0.835   7.530 -0.2913  0.6390  1.2794
   35CHL1  H27B 2589   2.519   0.943   7.646 -0.9688  0.7858  0.1743
   35CHL1  H27C 2590   2.600   0.880   7.487 -0.4140 -1.6052 -0.2737
   36CHL1    C3 2591   3.696   4.549   6.536  0.7451  0.3930 -0.8581
   36CHL1    H3 2592   3.801   4.574   6.564  1.1254 -0.7123 -1.2531
   36CHL1    O3 2593   3.675   4.600   6.405 -0.1859  0.0726  0.2281
   36CHL1   H3' 2594   3.592   4.562   6.374 -1.2030  1.7507  0.7419
   36CHL1    C4 2595   3.659   4.400   6.541 -0.0583  0.7491  0.4151
   36CHL1   H4A 2596   3.553   4.393   6.508 -1.0199  0.6661  3.2915
   36CHL1   H4B 2597   3.725   4.350   6.466 -0.3765  0.9439  0.0032
   36CHL1    C5 2598   3.689   4.341   6.673 -1.0403  0.6669  0.1406
   36CHL1    C6 2599   3.782   4.248   6.704  0.0998 -0.0791 -0.4182
   36CHL1    H6 2600   3.854   4.210   6.630  0.9112 -1.9426  1.2245
   36CHL1    C7 2601   3.796   4.181   6.841  0.0195  0.2225 -0.2748
   36CHL1   H7A 2602   3.797   4.071   6.825 -2.7281  0.2160 -0.7958
   36CHL1   H7B 2603   3.888   4.218   6.891 -0.3809  2.4490 -1.0882
   36CHL1    C8 2604   3.683   4.218   6.941 -0.8101 -0.1344 -0.4969
   36CHL1    H8 2605   3.595   4.156   6.914 -1.8560  1.0799  0.0381
   36CHL1   C14 2606   3.724   4.200   7.086 -0.5969  0.1384  0.3804
   36CHL1   H14 2607   3.797   4.280   7.109 -1.9147  1.9724 -1.4665
   36CHL1   C15 2608   3.782   4.065   7.112  0.4080 -0.0674 -0.5930
   36CHL1  H15A 2609   3.719   3.990   7.060  0.6282  0.2578 -1.3501
   36CHL1  H15B 2610   3.886   4.039   7.083  0.2490 -1.3647 -0.0476
   36CHL1   C16 2611   3.769   4.039   7.257 -0.6717  0.5098 -0.4453
   36CHL1  H16A 2612   3.723   3.940   7.277 -1.6861  1.0468 -0.0485
   36CHL1  H16B 2613   3.869   4.031   7.303 -0.9402 -1.2331 -0.1139
   36CHL1   C17 2614   3.690   4.163   7.317 -0.5752 -0.6261  0.2428
   36CHL1   H17 2615   3.767   4.242   7.328 -2.4054  1.8716 -3.1207
   36CHL1   C13 2616   3.614   4.221   7.192  1.2563 -0.4912  0.3231
   36CHL1   C18 2617   3.485   4.133   7.169 -0.1966  0.3206 -0.0368
   36CHL1  H18A 2618   3.464   4.108   7.063  0.1192  1.4864 -0.3883
   36CHL1  H18B 2619   3.507   4.037   7.220  1.2635  0.7286  0.1455
   36CHL1  H18C 2620   3.389   4.171   7.210  0.2477  1.7603 -0.2881
   36CHL1   C12 2621   3.583   4.368   7.182  0.7283 -0.9550 -0.1512
   36CHL1  H12A 2622   3.493   4.390   7.244  1.0594  1.9376 -0.5511
   36CHL1  H12B 2623   3.672   4.421   7.223  0.3535 -0.3562 -0.1014
   36CHL1   C11 2624   3.535   4.406   7.036 -0.3086 -0.5979 -0.3395
   36CHL1  H11A 2625   3.438   4.365   7.003 -0.0372 -0.1739 -1.7352
   36CHL1  H11B 2626   3.509   4.514   7.046 -1.4535 -0.8789 -0.1931
   36CHL1    C9 2627   3.644   4.369   6.928  0.2284  0.3577 -0.4175
   36CHL1    H9 2628   3.729   4.437   6.954  0.0303  0.2588  0.5369
   36CHL1   C10 2629   3.603   4.408   6.776 -0.3047  0.0791 -0.2275
   36CHL1   C19 2630   3.458   4.354   6.759 -0.2750 -0.3058 -0.8547
   36CHL1  H19A 2631   3.378   4.410   6.814 -1.0618 -1.7619 -0.4794
   36CHL1  H19B 2632   3.427   4.365   6.653  2.1095  0.0138 -1.5815
   36CHL1  H19C 2633   3.444   4.247   6.782  2.2340 -1.1152 -2.7368
   36CHL1    C1 2634   3.624   4.564   6.769  0.5558  0.1384 -0.6304
   36CHL1   H1A 2635   3.560   4.607   6.848  2.0054  1.7977 -0.3036
   36CHL1   H1B 2636   3.728   4.580   6.805  0.7225 -0.5266 -0.7926
   36CHL1    C2 2637   3.598   4.620   6.632  0.0091  0.2560  0.1966
   36CHL1   H2A 2638   3.623   4.728   6.640 -2.1584  0.7174  1.2589
   36CHL1   H2B 2639   3.497   4.611   6.587  0.8318  0.6660 -1.8596
   36CHL1   C20 2640   3.598   4.137   7.439 -0.0435 -0.3541  0.7097
   36CHL1   H20 2641   3.504   4.084   7.412 -1.1202  0.3072  2.8729
   36CHL1   C21 2642   3.568   4.268   7.512  0.1402  0.3630  0.7298
   36CHL1  H21A 2643   3.666   4.318   7.524 -0.5267  1.7389  0.5719
   36CHL1  H21B 2644   3.512   4.260   7.608  0.5703 -0.3003  0.9387
   36CHL1  H21C 2645   3.516   4.336   7.442 -0.0294 -1.9932 -1.6083
   36CHL1   C22 2646   3.647   4.032   7.534 -0.6622  0.8946 -0.3556
   36CHL1  H22A 2647   3.571   4.015   7.613 -0.7859  1.6318 -0.3105
   36CHL1  H22B 2648   3.655   3.936   7.479  0.6046 -0.4906  2.0858
   36CHL1   C23 2649   3.782   4.070   7.605 -0.1026  0.2851  0.5415
   36CHL1  H23A 2650   3.840   4.134   7.536 -2.0695  0.7071 -0.8190
   36CHL1  H23B 2651   3.758   4.139   7.689  0.4940  0.9942  0.1374
   36CHL1   C24 2652   3.858   3.944   7.648  0.6837 -0.0275 -0.1180
   36CHL1  H24A 2653   3.855   3.867   7.568  0.7000 -0.7878  0.5958
   36CHL1  H24B 2654   3.965   3.975   7.640  0.7103 -0.5391 -2.2257
   36CHL1   C25 2655   3.828   3.903   7.797  0.6979 -0.3047  0.6610
   36CHL1   H25 2656   3.729   3.852   7.801 -0.1128  1.1494  0.2181
   36CHL1   C26 2657   3.934   3.800   7.840  0.3924  0.4248  0.2439
   36CHL1  H26A 2658   4.015   3.853   7.895  0.6303  0.7130 -0.3834
   36CHL1  H26B 2659   3.888   3.723   7.906 -0.9107 -0.6612 -1.8415
   36CHL1  H26C 2660   3.979   3.733   7.765  0.1420 -1.0907  1.3978
   36CHL1   C27 2661   3.818   4.015   7.909  0.1290 -0.6626  0.0298
   36CHL1  H27A 2662   3.899   4.091   7.899 -0.4988  0.1171  0.7265
   36CHL1  H27B 2663   3.727   4.076   7.890  1.3605  1.0390 -0.7099
   36CHL1  H27C 2664   3.811   3.975   8.012 -3.4161  0.1682  0.2492
   37CHL1    C3 2665   6.157   3.314   6.538 -0.0601  0.3106  0.0047
   37CHL1    H3 2666   6.263   3.348   6.543  0.2985  0.1560 -3.7073
   37CHL1    O3 2667   6.140   3.281   6.401  0.1374  0.1966  0.3231
   37CHL1   H3' 2668   6.160   3.358   6.348  0.0490  1.0278  1.4764
   37CHL1    C4 2669   6.137   3.187   6.624 -0.1057 -0.0054 -0.5464
   37CHL1   H4A 2670   6.037   3.140   6.612  0.2552 -1.7149  2.1512
   37CHL1   H4B 2671   6.215   3.112   6.600  0.7132  0.3358  0.9392
   37CHL1    C5 2672   6.145   3.232   6.772  0.3125  0.8188  0.1779
   37CHL1    C6 2673   6.242   3.173   6.852 -0.0330 -0.5511 -0.0366
   37CHL1    H6 2674   6.316   3.110   6.802  0.6217  2.0985 -2.7169
   37CHL1    C7 2675   6.254   3.202   6.998  0.8589  0.4070 -0.5972
   37CHL1   H7A 2676   6.271   3.113   7.061  0.8463  0.6577 -0.2326
   37CHL1   H7B 2677   6.343   3.268   7.008  2.5813 -1.8390 -0.4867
   37CHL1    C8 2678   6.127   3.274   7.048  0.4933 -0.2538 -0.0749
   37CHL1    H8 2679   6.038   3.207   7.039 -1.4458  1.9206  1.5638
   37CHL1   C14 2680   6.163   3.302   7.191  0.3624  0.2788  0.1585
   37CHL1   H14 2681   6.252   3.367   7.191  0.3947  0.2398  0.9607
   37CHL1   C15 2682   6.204   3.188   7.286 -0.0880  0.0063 -0.1384
   37CHL1  H15A 2683   6.140   3.097   7.279 -1.2204  0.5184  2.2825
   37CHL1  H15B 2684   6.306   3.147   7.273  0.2257  0.1865  1.4933
   37CHL1   C16 2685   6.176   3.242   7.424  0.4200 -0.3772  0.2034
   37CHL1  H16A 2686   6.104   3.172   7.471  2.7425 -1.1452  2.9401
   37CHL1  H16B 2687   6.263   3.263   7.490  0.1420 -1.1766  0.8425
   37CHL1   C17 2688   6.101   3.389   7.401  0.2386  0.4203 -0.6013
   37CHL1   H17 2689   6.181   3.465   7.409  1.1192 -0.6254  1.4037
   37CHL1   C13 2690   6.048   3.378   7.255 -0.0449  0.4471  0.0374
   37CHL1   C18 2691   5.917   3.294   7.263 -1.0159  0.5853 -0.5285
   37CHL1  H18A 2692   5.930   3.236   7.357  4.2994  1.0691 -0.6365
   37CHL1  H18B 2693   5.829   3.360   7.277 -2.2019 -0.5382 -2.3368
   37CHL1  H18C 2694   5.895   3.221   7.182  3.7173 -0.5075 -1.1180
   37CHL1   C12 2695   6.026   3.506   7.178 -0.1217  0.1214 -0.0246
   37CHL1  H12A 2696   5.952   3.571   7.230 -0.2140 -0.0905  0.1110
   37CHL1  H12B 2697   6.119   3.567   7.177  0.4439 -0.7043 -1.3805
   37CHL1   C11 2698   5.984   3.484   7.034 -0.5845  0.0558  0.5413
   37CHL1  H11A 2699   5.887   3.430   7.033 -0.7680  0.0517 -4.1731
   37CHL1  H11B 2700   5.974   3.583   6.982  1.4625 -0.2196 -0.4726
   37CHL1    C9 2701   6.082   3.385   6.958  0.2641  0.6642 -0.0808
   37CHL1    H9 2702   6.174   3.447   6.947  0.7003  0.2997  1.2544
   37CHL1   C10 2703   6.050   3.334   6.815 -0.0878  0.3044  0.1392
   37CHL1   C19 2704   5.907   3.282   6.806 -0.0146  0.2529 -0.6844
   37CHL1  H19A 2705   5.872   3.212   6.885 -0.8014  3.8880  2.4592
   37CHL1  H19B 2706   5.833   3.362   6.822  0.1147  0.1804  0.3513
   37CHL1  H19C 2707   5.879   3.243   6.706  0.5237  1.0429 -1.1585
   37CHL1    C1 2708   6.067   3.458   6.724 -0.2863 -0.5080  0.0965
   37CHL1   H1A 2709   6.000   3.543   6.748  1.5215  0.9896  0.0744
   37CHL1   H1B 2710   6.169   3.496   6.746  0.3633 -0.5856 -2.5100
   37CHL1    C2 2711   6.065   3.434   6.571  0.7021  0.1971  0.5704
   37CHL1   H2A 2712   6.100   3.525   6.518  0.8793  0.8074  1.7052
   37CHL1   H2B 2713   5.959   3.411   6.547  1.2936 -2.8155  0.3373
   37CHL1   C20 2714   6.007   3.419   7.525 -0.2721 -0.2648  0.1611
   37CHL1   H20 2715   5.911   3.364   7.531 -1.2504  1.5128  1.8688
   37CHL1   C21 2716   5.968   3.572   7.520  0.6383  0.0698 -0.1979
   37CHL1  H21A 2717   5.909   3.600   7.430 -0.2888  0.2548  0.4458
   37CHL1  H21B 2718   6.057   3.638   7.530  0.0413  0.6235  2.2910
   37CHL1  H21C 2719   5.903   3.591   7.608  2.0525 -0.0491  0.9102
   37CHL1   C22 2720   6.060   3.384   7.667  0.2156 -0.2711 -0.8369
   37CHL1  H22A 2721   6.083   3.275   7.666  1.8662  0.0443 -0.6389
   37CHL1  H22B 2722   6.151   3.441   7.696 -0.2632  1.1539 -2.0357
   37CHL1   C23 2723   5.962   3.411   7.784  0.8599 -0.2511 -0.2196
   37CHL1  H23A 2724   5.946   3.520   7.794 -0.4669 -0.4166 -0.3555
   37CHL1  H23B 2725   5.867   3.360   7.757  0.7946 -1.2304  1.6588
   37CHL1   C24 2726   6.006   3.357   7.922 -0.5328  0.1616  0.6799
   37CHL1  H24A 2727   6.023   3.248   7.914  0.2671  0.4295 -2.2529
   37CHL1  H24B 2728   6.107   3.403   7.931 -0.2921  1.4304 -5.0599
   37CHL1   C25 2729   5.935   3.399   8.050 -0.2244  0.1929 -0.9337
   37CHL1   H25 2730   5.842   3.339   8.049 -0.5674  0.5809  1.3395
   37CHL1   C26 2731   6.012   3.380   8.179 -0.4272  0.0152 -0.1387
   37CHL1  H26A 2732   6.096   3.452   8.194  1.8001 -2.4775  0.1873
   37CHL1  H26B 2733   5.947   3.355   8.265 -1.6215 -2.4972 -1.6523
   37CHL1  H26C 2734   6.058   3.279   8.177 -0.1902 -0.0116  2.6581
   37CHL1   C27 2735   5.885   3.549   8.038 -0.0711 -0.2140  0.6166
   37CHL1  H27A 2736   5.860   3.578   8.142  0.7485  1.4576  0.3762
   37CHL1  H27B 2737   5.969   3.615   8.007 -1.4153  0.3499 -2.2376
   37CHL1  H27C 2738   5.804   3.559   7.962  0.4355 -0.5282  0.0232
   38CHL1    C3 2739   1.040   4.802   6.574 -0.4904 -0.8465  0.1213
   38CHL1    H3 2740   0.990   4.901   6.566 -1.3077 -1.3051 -0.7101
   38CHL1    O3 2741   1.001   4.719   6.462 -0.5714 -0.1843  0.3076
   38CHL1   H3' 2742   0.905   4.717   6.461 -0.5755 -2.0063  1.3752
   38CHL1    C4 2743   1.186   4.831   6.560  0.1166 -0.7869  0.1906
   38CHL1   H4A 2744   1.241   4.737   6.538 -0.6802 -1.7815  2.2562
   38CHL1   H4B 2745   1.205   4.889   6.467  1.5611 -0.1720  0.8503
   38CHL1    C5 2746   1.243   4.898   6.684  0.4979  0.4221 -0.5655
   38CHL1    C6 2747   1.315   5.007   6.675 -0.5851  0.3176  0.1685
   38CHL1    H6 2748   1.338   5.048   6.575  1.2306 -1.4801 -0.2118
   38CHL1    C7 2749   1.364   5.082   6.789 -0.4184  0.6732 -0.5000
   38CHL1   H7A 2750   1.472   5.105   6.776  0.4058 -1.1062  2.3968
   38CHL1   H7B 2751   1.320   5.183   6.803 -2.8575 -0.4782  0.6067
   38CHL1    C8 2752   1.370   5.003   6.924 -0.1567 -0.3609  0.0606
   38CHL1    H8 2753   1.458   4.937   6.914  0.8887  1.0519 -0.3786
   38CHL1   C14 2754   1.400   5.091   7.040  0.1045 -0.2331  0.0460
   38CHL1   H14 2755   1.311   5.158   7.045  0.5845  0.2906  3.1894
   38CHL1   C15 2756   1.527   5.176   7.041  0.3537 -0.3617  1.1476
   38CHL1  H15A 2757   1.612   5.117   7.001  0.0028 -1.0114  1.3324
   38CHL1  H15B 2758   1.512   5.273   6.989 -1.2508 -1.2988 -0.2251
   38CHL1   C16 2759   1.553   5.203   7.193 -0.0941 -0.7082  0.1595
   38CHL1  H16A 2760   1.647   5.158   7.232 -0.3345  0.0233  1.6516
   38CHL1  H16B 2761   1.543   5.311   7.217  0.3734 -0.2981 -1.3734
   38CHL1   C17 2762   1.436   5.127   7.270  0.2417 -0.2854 -0.7114
   38CHL1   H17 2763   1.357   5.205   7.275  1.5024  0.9856  3.5487
   38CHL1   C13 2764   1.405   5.014   7.176  0.0920  0.3836  0.2885
   38CHL1   C18 2765   1.520   4.903   7.174  0.3599 -0.0354  0.4556
   38CHL1  H18A 2766   1.521   4.846   7.270 -1.9350  0.2506  0.7057
   38CHL1  H18B 2767   1.496   4.837   7.088 -1.8976  0.9274  0.2650
   38CHL1  H18C 2768   1.624   4.933   7.152  0.2472 -0.3901 -0.6096
   38CHL1   C12 2769   1.272   4.942   7.198 -0.2109 -0.8583 -0.4465
   38CHL1  H12A 2770   1.273   4.890   7.296  2.5689  2.2551  1.3952
   38CHL1  H12B 2771   1.190   5.017   7.199 -0.0000 -0.5997 -1.4537
   38CHL1   C11 2772   1.234   4.847   7.087 -0.7271 -0.3032  0.0121
   38CHL1  H11A 2773   1.289   4.751   7.099 -0.2913  0.1652  2.0831
   38CHL1  H11B 2774   1.131   4.810   7.107 -0.7755 -0.1667  0.0125
   38CHL1    C9 2775   1.237   4.921   6.940 -0.0557 -0.0502 -1.0259
   38CHL1    H9 2776   1.153   4.993   6.953 -1.6286 -2.0731  0.7916
   38CHL1   C10 2777   1.203   4.831   6.815  0.6381 -0.6958  0.0544
   38CHL1   C19 2778   1.292   4.700   6.838 -0.2307 -0.1076  0.2277
   38CHL1  H19A 2779   1.303   4.640   6.745  2.4314  1.6612 -0.7081
   38CHL1  H19B 2780   1.395   4.736   6.858 -0.8383  0.7056  2.0495
   38CHL1  H19C 2781   1.262   4.641   6.927 -1.7221  0.4360  0.1083
   38CHL1    C1 2782   1.055   4.796   6.821  0.0124 -0.1384  0.3978
   38CHL1   H1A 2783   1.024   4.741   6.913 -0.6748  2.1684  1.6375
   38CHL1   H1B 2784   1.001   4.893   6.823  0.0505 -0.0704 -0.9679
   38CHL1    C2 2785   1.006   4.717   6.693  0.2320 -0.3693  0.9843
   38CHL1   H2A 2786   0.897   4.698   6.698  0.3882 -1.5654  0.3298
   38CHL1   H2B 2787   1.050   4.618   6.665  0.2398 -0.1669  0.2610
   38CHL1   C20 2788   1.454   5.094   7.420  0.3171 -0.3623  0.3555
   38CHL1   H20 2789   1.425   4.987   7.426 -3.2095  0.5375  2.4523
   38CHL1   C21 2790   1.347   5.173   7.491  0.2930 -0.6612  0.4522
   38CHL1  H21A 2791   1.347   5.283   7.473 -1.6007 -0.6959 -0.0262
   38CHL1  H21B 2792   1.351   5.147   7.599 -1.0149  1.3872  1.0615
   38CHL1  H21C 2793   1.245   5.134   7.467  0.8026 -1.2894 -0.7841
   38CHL1   C22 2794   1.598   5.119   7.478 -0.6917  0.4373 -0.3603
   38CHL1  H22A 2795   1.667   5.058   7.417 -0.0617  2.4093 -1.7369
   38CHL1  H22B 2796   1.634   5.222   7.455  0.6892 -0.2869 -1.5910
   38CHL1   C23 2797   1.622   5.086   7.629 -0.4462 -0.2376  0.2819
   38CHL1  H23A 2798   1.706   5.156   7.651 -1.4000  1.6994 -1.8188
   38CHL1  H23B 2799   1.533   5.117   7.688  0.6171  3.5735  0.1908
   38CHL1   C24 2800   1.651   4.939   7.657 -0.2923 -0.2783 -0.0961
   38CHL1  H24A 2801   1.557   4.887   7.628 -0.0688 -0.4308 -0.5575
   38CHL1  H24B 2802   1.729   4.891   7.594 -1.4720 -0.7443 -1.2424
   38CHL1   C25 2803   1.669   4.904   7.803  0.1732 -0.1191 -0.0831
   38CHL1   H25 2804   1.740   4.974   7.852  1.5212 -0.7629 -1.0282
   38CHL1   C26 2805   1.532   4.918   7.875  0.5335  0.5731  0.4815
   38CHL1  H26A 2806   1.509   5.027   7.871  0.7020  0.6567  1.4415
   38CHL1  H26B 2807   1.455   4.858   7.822  3.5363 -0.5524 -3.0118
   38CHL1  H26C 2808   1.538   4.885   7.981  0.2206  0.8850  0.5996
   38CHL1   C27 2809   1.721   4.763   7.821  0.3838  0.6311  0.3130
   38CHL1  H27A 2810   1.636   4.693   7.806  1.6546 -0.8522 -0.2506
   38CHL1  H27B 2811   1.800   4.743   7.746  1.1594  0.0316  1.2607
   38CHL1  H27C 2812   1.751   4.755   7.928  0.0429 -1.3656  0.3042
   39CHL1    C3 2813   1.255   2.670   6.786  0.1861  0.0454 -0.3202
   39CHL1    H3 2814   1.306   2.762   6.823 -2.3128  1.1739  0.5411
   39CHL1    O3 2815   1.245   2.683   6.646  0.2820  0.6618  0.3306
   39CHL1   H3' 2816   1.197   2.605   6.617  2.2943 -0.7160  0.5188
   39CHL1    C4 2817   1.334   2.543   6.826 -0.6594 -0.8259 -0.0366
   39CHL1   H4A 2818   1.276   2.453   6.796  0.1125 -0.5750 -2.5094
   39CHL1   H4B 2819   1.429   2.538   6.770  0.3511  1.1720  1.3610
   39CHL1    C5 2820   1.346   2.537   6.980  0.5039 -0.4218 -0.0123
   39CHL1    C6 2821   1.466   2.536   7.044 -0.7290  0.0621 -0.2389
   39CHL1    H6 2822   1.560   2.527   6.989 -0.7161  1.2077 -0.4393
   39CHL1    C7 2823   1.483   2.537   7.185 -0.5312  0.0916  0.2750
   39CHL1   H7A 2824   1.536   2.445   7.217  0.6711  1.0745  1.1989
   39CHL1   H7B 2825   1.536   2.625   7.225 -1.8016  0.6853  0.7111
   39CHL1    C8 2826   1.346   2.515   7.268 -0.1760 -0.5739  0.3675
   39CHL1    H8 2827   1.322   2.407   7.259  0.4071 -0.7084  0.4062
   39CHL1   C14 2828   1.362   2.544   7.411  0.9003 -0.1436 -1.2492
   39CHL1   H14 2829   1.380   2.653   7.421  0.3790 -0.2425  2.1766
   39CHL1   C15 2830   1.470   2.470   7.491 -0.8186  0.5040  0.3251
   39CHL1  H15A 2831   1.465   2.360   7.479  0.3734  0.6578 -2.3667
   39CHL1  H15B 2832   1.574   2.497   7.460 -0.8007  1.9749  1.5541
   39CHL1   C16 2833   1.443   2.501   7.630  0.5171  0.1014 -0.0949
   39CHL1  H16A 2834   1.453   2.403   7.680 -1.0648 -0.9387 -1.6819
   39CHL1  H16B 2835   1.513   2.575   7.675  2.1601 -1.8899  0.7663
   39CHL1   C17 2836   1.292   2.550   7.632  0.4949  0.1421 -0.9171
   39CHL1   H17 2837   1.294   2.661   7.629  0.3861  0.2160  0.6764
   39CHL1   C13 2838   1.236   2.513   7.496 -0.3795 -0.1992  0.9872
   39CHL1   C18 2839   1.184   2.367   7.492 -0.9875 -0.7404  0.7713
   39CHL1  H18A 2840   1.170   2.328   7.388 -3.5555 -1.8301  1.4355
   39CHL1  H18B 2841   1.257   2.298   7.539  1.1927  1.5648  0.9393
   39CHL1  H18C 2842   1.083   2.358   7.538 -1.6594 -1.0953 -0.7135
   39CHL1   C12 2843   1.136   2.614   7.445 -0.2723  0.6766 -0.1578
   39CHL1  H12A 2844   1.047   2.609   7.513  2.1757  1.4060  3.3985
   39CHL1  H12B 2845   1.184   2.713   7.455  3.4079 -0.6054 -2.8775
   39CHL1   C11 2846   1.101   2.587   7.294 -0.3257 -0.3570 -0.0908
   39CHL1  H11A 2847   1.059   2.486   7.306  3.4712 -2.2404 -0.8954
   39CHL1  H11B 2848   1.023   2.655   7.253 -0.0759  1.1690  1.8048
   39CHL1    C9 2849   1.231   2.592   7.206 -0.1550 -0.1349 -0.1398
   39CHL1    H9 2850   1.271   2.696   7.209  1.7361 -0.6647 -2.8644
   39CHL1   C10 2851   1.213   2.552   7.053  0.1233 -0.2419  0.0555
   39CHL1   C19 2852   1.125   2.429   7.045  0.0816 -0.3114  0.6710
   39CHL1  H19A 2853   1.178   2.338   7.081  1.3408 -0.8441 -2.2457
   39CHL1  H19B 2854   1.031   2.452   7.098  1.7386  2.2088  2.7366
   39CHL1  H19C 2855   1.096   2.404   6.940 -0.6327 -2.3613  1.3032
   39CHL1    C1 2856   1.128   2.676   6.996  0.3106  0.3096  0.4760
   39CHL1   H1A 2857   1.030   2.665   7.046  0.7620 -2.2009  0.9671
   39CHL1   H1B 2858   1.178   2.773   7.020  0.6902  0.4497 -0.7916
   39CHL1    C2 2859   1.114   2.669   6.843 -0.0028  0.2496  0.0651
   39CHL1   H2A 2860   1.061   2.759   6.807  0.9799  0.8620  0.1213
   39CHL1   H2B 2861   1.052   2.580   6.818  1.1279 -0.5014 -0.1365
   39CHL1   C20 2862   1.225   2.500   7.760 -0.0900 -0.4344 -0.1449
   39CHL1   H20 2863   1.225   2.389   7.766  3.2096 -0.5384 -0.6039
   39CHL1   C21 2864   1.074   2.553   7.761 -0.4329 -0.1149  0.1088
   39CHL1  H21A 2865   1.066   2.661   7.736  0.9636 -0.2733 -1.1025
   39CHL1  H21B 2866   1.038   2.529   7.864 -1.2653  1.5924  0.2515
   39CHL1  H21C 2867   1.013   2.501   7.685 -1.0911 -0.9287  1.1613
   39CHL1   C22 2868   1.300   2.552   7.885 -0.1925 -0.0247  0.3095
   39CHL1  H22A 2869   1.251   2.504   7.972 -0.3899  1.5753  1.1319
   39CHL1  H22B 2870   1.408   2.528   7.882 -0.1191  0.4157 -0.9415
   39CHL1   C23 2871   1.294   2.701   7.918  0.2069 -0.4093  0.1644
   39CHL1  H23A 2872   1.363   2.760   7.855  1.0862  0.0431  1.5157
   39CHL1  H23B 2873   1.188   2.733   7.920  1.4699  4.4852  0.8131
   39CHL1   C24 2874   1.347   2.722   8.060  0.3517  0.6702 -0.3907
   39CHL1  H24A 2875   1.268   2.673   8.121  2.2001 -0.7247  0.9953
   39CHL1  H24B 2876   1.438   2.658   8.064 -0.3928 -0.3852  0.1212
   39CHL1   C25 2877   1.359   2.866   8.109  0.7035 -0.2439  0.1929
   39CHL1   H25 2878   1.437   2.929   8.062 -0.4543  1.3164  0.2626
   39CHL1   C26 2879   1.228   2.934   8.101  0.6235 -0.2722  0.1255
   39CHL1  H26A 2880   1.234   3.039   8.138 -0.8753 -0.0866 -0.1088
   39CHL1  H26B 2881   1.185   2.939   7.999  0.1815 -0.1553  0.3165
   39CHL1  H26C 2882   1.145   2.891   8.161 -0.0461 -0.6153 -1.0161
   39CHL1   C27 2883   1.398   2.857   8.252 -0.0684  0.3484  0.2906
   39CHL1  H27A 2884   1.316   2.820   8.317 -1.6970 -0.0388 -1.8902
   39CHL1  H27B 2885   1.487   2.795   8.274 -0.5960 -0.2197  0.8709
   39CHL1  H27C 2886   1.418   2.961   8.286 -1.6459  1.3653 -1.6419
   40CHL1    C3 2887   4.315   4.588   6.915 -0.3645  0.7593  0.4147
   40CHL1    H3 2888   4.374   4.667   6.965 -0.9455 -0.1598  2.6573
   40CHL1    O3 2889   4.356   4.556   6.776  0.4855  0.1023  0.0070
   40CHL1   H3' 2890   4.452   4.564   6.783  0.6718 -1.1441 -0.7942
   40CHL1    C4 2891   4.337   4.454   6.985 -0.5129 -0.1079  0.4646
   40CHL1   H4A 2892   4.288   4.371   6.929 -1.9373  0.8631  0.1923
   40CHL1   H4B 2893   4.447   4.442   6.989 -0.4774  0.0679  0.0949
   40CHL1    C5 2894   4.295   4.448   7.131  0.1325  0.5225  0.2732
   40CHL1    C6 2895   4.381   4.411   7.231  0.3707  0.1973 -0.4264
   40CHL1    H6 2896   4.479   4.370   7.203 -0.0344 -0.8055 -0.4161
   40CHL1    C7 2897   4.351   4.401   7.377  0.0617 -0.6181  0.1796
   40CHL1   H7A 2898   4.380   4.303   7.422 -0.8447 -2.3852 -2.8047
   40CHL1   H7B 2899   4.412   4.482   7.423 -2.0611  0.8169  0.6020
   40CHL1    C8 2900   4.199   4.433   7.404 -0.0064 -0.2239  0.3284
   40CHL1    H8 2901   4.151   4.334   7.398 -0.0656 -0.2490  1.1135
   40CHL1   C14 2902   4.192   4.482   7.543  0.1291  0.3014  0.5624
   40CHL1   H14 2903   4.233   4.585   7.550  1.5749 -0.2077 -0.0786
   40CHL1   C15 2904   4.274   4.401   7.651 -0.3645  0.0195  0.0097
   40CHL1  H15A 2905   4.280   4.294   7.621 -2.3605 -0.5567  1.4902
   40CHL1  H15B 2906   4.366   4.459   7.675 -0.0635 -0.5071  0.1568
   40CHL1   C16 2907   4.186   4.414   7.776  0.0751 -0.9690 -0.7517
   40CHL1  H16A 2908   4.134   4.320   7.802  0.9072 -0.7186  2.1960
   40CHL1  H16B 2909   4.243   4.445   7.866 -3.5347 -0.2012  1.5050
   40CHL1   C17 2910   4.070   4.521   7.743  0.3194  0.0161  0.4942
   40CHL1   H17 2911   4.124   4.618   7.746  0.9489 -0.1779 -2.0657
   40CHL1   C13 2912   4.046   4.491   7.598  0.1625 -0.5454  0.4575
   40CHL1   C18 2913   3.966   4.362   7.584 -0.2933 -0.4460  0.4599
   40CHL1  H18A 2914   4.021   4.282   7.638 -0.4525 -0.0303  1.2574
   40CHL1  H18B 2915   3.872   4.378   7.641  0.6911  1.0846  1.7371
   40CHL1  H18C 2916   3.939   4.333   7.480 -2.0116 -1.3423  1.1108
   40CHL1   C12 2917   3.978   4.601   7.513 -0.6339  0.2800 -0.2332
   40CHL1  H12A 2918   3.872   4.599   7.547 -0.4034 -1.3549  0.4718
   40CHL1  H12B 2919   4.029   4.696   7.540 -0.8133  0.2810  0.1088
   40CHL1   C11 2920   3.991   4.581   7.362  0.2438  0.2669  0.7068
   40CHL1  H11A 2921   3.930   4.494   7.330 -0.1995 -0.1873  2.6521
   40CHL1  H11B 2922   3.951   4.673   7.314  0.5644  2.3126  4.0802
   40CHL1    C9 2923   4.135   4.542   7.315 -0.2677 -0.5136  0.0094
   40CHL1    H9 2924   4.200   4.632   7.325  0.5375 -0.7367 -2.4161
   40CHL1   C10 2925   4.153   4.504   7.164  0.1510 -0.3762 -0.3300
   40CHL1   C19 2926   4.045   4.408   7.116 -0.1314  0.7460 -0.0818
   40CHL1  H19A 2927   3.951   4.466   7.105 -1.0041 -0.4083  0.9921
   40CHL1  H19B 2928   4.067   4.361   7.018  0.7307  1.1206 -0.0742
   40CHL1  H19C 2929   4.030   4.329   7.193  1.1474 -0.7491 -1.2945
   40CHL1    C1 2930   4.142   4.640   7.079 -0.2085 -0.5962  0.6062
   40CHL1   H1A 2931   4.035   4.669   7.085 -0.0479  1.1696 -2.5790
   40CHL1   H1B 2932   4.203   4.722   7.121 -0.8479 -0.2976  0.9608
   40CHL1    C2 2933   4.173   4.628   6.930  0.0684 -0.7784  0.8287
   40CHL1   H2A 2934   4.151   4.729   6.889  1.3919  0.1365  2.2282
   40CHL1   H2B 2935   4.108   4.558   6.874 -0.8769 -2.0988  3.3950
   40CHL1   C20 2936   3.947   4.537   7.842 -0.2696 -0.0089  1.0551
   40CHL1   H20 2937   3.863   4.584   7.787  0.3270  1.1478  1.1129
   40CHL1   C21 2938   3.986   4.638   7.953  0.1942 -0.8425  0.8349
   40CHL1  H21A 2939   4.079   4.604   8.003  0.7605 -0.5411  0.0169
   40CHL1  H21B 2940   3.902   4.664   8.021  1.1072 -1.0334  2.0742
   40CHL1  H21C 2941   4.022   4.732   7.905 -1.3636  0.0344  1.3185
   40CHL1   C22 2942   3.902   4.411   7.903 -0.1931 -0.2909 -0.2907
   40CHL1  H22A 2943   3.917   4.324   7.836  1.9222  0.0025 -0.2799
   40CHL1  H22B 2944   3.962   4.392   7.995  0.8122  0.7552 -0.6961
   40CHL1   C23 2945   3.746   4.408   7.932  0.3413  0.0923  0.6954
   40CHL1  H23A 2946   3.696   4.429   7.835 -1.6645 -1.2117  1.3711
   40CHL1  H23B 2947   3.716   4.306   7.965  2.0647  0.0666  2.3698
   40CHL1   C24 2948   3.687   4.512   8.028  0.5322  0.0540  0.3865
   40CHL1  H24A 2949   3.708   4.608   7.977  0.2324 -0.5573 -0.9175
   40CHL1  H24B 2950   3.576   4.504   8.023  0.6375 -0.7349 -1.5384
   40CHL1   C25 2951   3.729   4.501   8.184 -0.6217 -0.5727  0.7728
   40CHL1   H25 2952   3.839   4.499   8.199 -0.4117 -1.1117 -0.6908
   40CHL1   C26 2953   3.683   4.638   8.244  0.3536 -0.3470  0.5704
   40CHL1  H26A 2954   3.709   4.646   8.352 -1.2453 -1.0137  1.0315
   40CHL1  H26B 2955   3.732   4.722   8.189 -2.0333  1.9909  1.8263
   40CHL1  H26C 2956   3.575   4.654   8.229  0.6785  1.2579 -0.2202
   40CHL1   C27 2957   3.661   4.397   8.265 -0.5714 -0.6492  0.1406
   40CHL1  H27A 2958   3.553   4.404   8.241 -1.0566 -3.4772  1.1160
   40CHL1  H27B 2959   3.707   4.298   8.243 -0.7774 -0.4265 -1.4653
   40CHL1  H27C 2960   3.666   4.425   8.372 -1.7991  2.4906 -0.5089
   41CHL1    C3 2961   4.111   2.947   7.023  0.4813 -0.1707 -1.0734
   41CHL1    H3 2962   4.018   2.897   7.059  1.3977 -0.3573  1.2355
   41CHL1    O3 2963   4.093   3.004   6.891 -0.5096  0.7221 -1.0993
   41CHL1   H3' 2964   4.185   3.025   6.873  0.0197 -0.6984 -0.1634
   41CHL1    C4 2965   4.146   3.069   7.115  0.0646  0.2361  0.1246
   41CHL1   H4A 2966   4.229   3.126   7.068 -0.3054  0.6916  0.0122
   41CHL1   H4B 2967   4.066   3.146   7.109 -1.9319 -1.8875 -2.4410
   41CHL1    C5 2968   4.188   3.028   7.247 -0.6457  0.4669 -0.8596
   41CHL1    C6 2969   4.114   3.079   7.346 -0.3869 -0.1601  0.5805
   41CHL1    H6 2970   4.038   3.154   7.322  2.7937  2.9410 -0.7931
   41CHL1    C7 2971   4.140   3.057   7.490 -0.6184 -0.2794  0.0644
   41CHL1   H7A 2972   4.149   3.159   7.534  2.9288  0.3776 -1.8155
   41CHL1   H7B 2973   4.048   3.014   7.535  0.2441 -1.0542  1.1590
   41CHL1    C8 2974   4.272   2.989   7.513  0.1267 -0.3302 -0.0778
   41CHL1    H8 2975   4.348   3.070   7.507 -0.2344 -0.0863 -1.8997
   41CHL1   C14 2976   4.273   2.927   7.652 -0.0070  0.2134 -0.6015
   41CHL1   H14 2977   4.209   2.836   7.644 -2.6441  1.4352  3.6183
   41CHL1   C15 2978   4.216   3.000   7.770  0.0161 -0.2254  0.3666
   41CHL1  H15A 2979   4.255   3.104   7.777  0.6572 -0.4838  0.7084
   41CHL1  H15B 2980   4.106   2.991   7.769 -0.1104  0.6839  2.1011
   41CHL1   C16 2981   4.265   2.922   7.900  0.4574  0.5313  0.6166
   41CHL1  H16A 2982   4.323   2.994   7.962  0.4692  2.0358 -1.0555
   41CHL1  H16B 2983   4.185   2.868   7.955 -0.2783 -0.2566 -1.1350
   41CHL1   C17 2984   4.371   2.817   7.854 -0.0270 -0.3783  0.0181
   41CHL1   H17 2985   4.324   2.723   7.819 -0.0740  0.2856 -1.8426
   41CHL1   C13 2986   4.400   2.859   7.707 -0.2895 -0.5318 -0.0313
   41CHL1   C18 2987   4.510   2.972   7.721  0.4829  1.4878 -0.5110
   41CHL1  H18A 2988   4.535   3.020   7.624 -1.7565  3.7023 -0.0772
   41CHL1  H18B 2989   4.477   3.042   7.800 -0.8956  0.5999 -0.2562
   41CHL1  H18C 2990   4.603   2.927   7.764  0.4697  0.9576 -1.0259
   41CHL1   C12 2991   4.439   2.752   7.606  0.0594 -0.0463  0.1357
   41CHL1  H12A 2992   4.537   2.705   7.628 -0.1167  0.4413  2.2116
   41CHL1  H12B 2993   4.357   2.677   7.615 -0.2077 -0.4816 -4.0485
   41CHL1   C11 2994   4.440   2.813   7.461 -0.1270  0.0202 -0.9980
   41CHL1  H11A 2995   4.533   2.875   7.457 -0.0178 -0.1928 -2.6914
   41CHL1  H11B 2996   4.472   2.722   7.406 -1.0261 -1.3613  0.6773
   41CHL1    C9 2997   4.307   2.879   7.412  0.3001  0.6151  0.5668
   41CHL1    H9 2998   4.224   2.806   7.418 -1.4813  2.6654  3.2834
   41CHL1   C10 2999   4.302   2.928   7.262 -0.4653 -0.1094 -0.6069
   41CHL1   C19 3000   4.441   2.997   7.238  0.2828  0.5776 -0.4108
   41CHL1  H19A 3001   4.459   3.081   7.308  2.4725 -0.5133  0.4505
   41CHL1  H19B 3002   4.532   2.936   7.255 -0.1702  0.4843  2.0057
   41CHL1  H19C 3003   4.454   3.030   7.133  0.4118  0.1315 -0.5407
   41CHL1    C1 3004   4.274   2.804   7.167  0.5292 -0.0407  0.4297
   41CHL1   H1A 3005   4.367   2.747   7.149 -0.1096 -0.3515 -2.3328
   41CHL1   H1B 3006   4.192   2.740   7.205 -0.3984  0.0428 -1.3172
   41CHL1    C2 3007   4.231   2.851   7.026  0.0386  0.4047  0.6815
   41CHL1   H2A 3008   4.219   2.767   6.955  0.3684 -0.8572  2.0697
   41CHL1   H2B 3009   4.309   2.920   6.986 -0.3247 -0.5059 -1.8098
   41CHL1   C20 3010   4.481   2.789   7.955 -0.4552  0.3001 -0.3599
   41CHL1   H20 3011   4.532   2.884   7.983  0.0461 -0.1310  0.2167
   41CHL1   C21 3012   4.587   2.686   7.895 -0.5715 -0.3643 -0.0344
   41CHL1  H21A 3013   4.548   2.592   7.852  1.7183 -1.5141  0.2684
   41CHL1  H21B 3014   4.660   2.656   7.973  0.4864 -1.6472 -1.4604
   41CHL1  H21C 3015   4.649   2.739   7.820  1.0502 -0.0617  1.4503
   41CHL1   C22 3016   4.412   2.738   8.086 -0.4083  0.6698  0.7963
   41CHL1  H22A 3017   4.337   2.813   8.119 -1.1691  0.2605  0.0441
   41CHL1  H22B 3018   4.357   2.645   8.062 -1.4547  0.7154  2.8117
   41CHL1   C23 3019   4.507   2.713   8.202  0.5932  0.0965  0.1899
   41CHL1  H23A 3020   4.578   2.633   8.174  0.8462  0.7579 -1.1589
   41CHL1  H23B 3021   4.545   2.811   8.239  2.9872 -1.4494  2.0974
   41CHL1   C24 3022   4.430   2.670   8.328 -0.5053 -0.1098 -0.2908
   41CHL1  H24A 3023   4.375   2.761   8.360 -1.7820 -0.0748 -2.3355
   41CHL1  H24B 3024   4.357   2.594   8.292 -0.3991  0.3286 -1.4949
   41CHL1   C25 3025   4.526   2.635   8.451  0.1576 -0.0326  0.1268
   41CHL1   H25 3026   4.619   2.695   8.445  1.0879 -1.5124 -1.6015
   41CHL1   C26 3027   4.451   2.674   8.578 -0.9984  0.2869 -0.2695
   41CHL1  H26A 3028   4.515   2.641   8.663 -1.2060  1.5463  0.4006
   41CHL1  H26B 3029   4.452   2.785   8.576  1.8458  0.3209 -2.0951
   41CHL1  H26C 3030   4.350   2.628   8.588 -1.1339 -0.5086 -3.9041
   41CHL1   C27 3031   4.574   2.491   8.449 -0.2447 -0.2053 -0.3282
   41CHL1  H27A 3032   4.631   2.487   8.545  0.8276 -0.7307 -0.9623
   41CHL1  H27B 3033   4.493   2.415   8.447 -0.0220 -0.4271 -1.3024
   41CHL1  H27C 3034   4.657   2.479   8.377  0.8428  0.6371  0.7302
   42CHL1    C3 3035   4.472   6.513   6.533  0.4704 -0.0981 -0.1071
   42CHL1    H3 3036   4.549   6.592   6.547  0.8873 -0.0142 -2.5061
   42CHL1    O3 3037   4.456   6.498   6.399  0.4226 -0.0049  0.7374
   42CHL1   H3' 3038   4.444   6.588   6.369 -1.1097  0.4551  2.5667
   42CHL1    C4 3039   4.519   6.380   6.600  0.0687 -0.4542  0.1830
   42CHL1   H4A 3040   4.454   6.299   6.562  0.8148 -0.2871 -1.5432
   42CHL1   H4B 3041   4.620   6.349   6.568 -0.0640  0.5593 -1.3627
   42CHL1    C5 3042   4.512   6.390   6.755  0.4348 -0.2611  0.3180
   42CHL1    C6 3043   4.625   6.369   6.828  0.3807 -0.1575 -0.4799
   42CHL1    H6 3044   4.722   6.351   6.780  0.4369  0.1597 -0.4929
   42CHL1    C7 3045   4.637   6.377   6.975 -0.4230 -1.1677  0.6953
   42CHL1   H7A 3046   4.701   6.300   7.023 -0.1471 -1.7648 -0.5869
   42CHL1   H7B 3047   4.688   6.474   6.993 -1.4040 -0.5541  0.2832
   42CHL1    C8 3048   4.494   6.374   7.042  0.3676  0.9358 -0.1788
   42CHL1    H8 3049   4.454   6.270   7.039 -1.2571  1.5579 -3.0943
   42CHL1   C14 3050   4.504   6.411   7.195 -0.6427 -0.0244  0.7537
   42CHL1   H14 3051   4.533   6.518   7.195  0.0673 -0.1880  2.1498
   42CHL1   C15 3052   4.606   6.332   7.290 -0.0723  0.2196  0.1822
   42CHL1  H15A 3053   4.608   6.224   7.266  0.7699  0.1695  0.4695
   42CHL1  H15B 3054   4.711   6.364   7.277 -0.4002  0.9660 -0.7735
   42CHL1   C16 3055   4.552   6.351   7.429  1.1390 -0.0325 -0.3367
   42CHL1  H16A 3056   4.544   6.251   7.477  0.6851 -0.0499 -0.4442
   42CHL1  H16B 3057   4.622   6.414   7.488 -0.2402 -0.1146  1.4656
   42CHL1   C17 3058   4.409   6.419   7.413 -0.5350  0.0933  0.0239
   42CHL1   H17 3059   4.440   6.526   7.412 -0.6944  0.1325 -0.8630
   42CHL1   C13 3060   4.369   6.399   7.264 -0.0547 -0.5209  0.5601
   42CHL1   C18 3061   4.315   6.254   7.266  0.7651  0.3390  0.1973
   42CHL1  H18A 3062   4.211   6.258   7.305  0.7446  0.5732  0.1197
   42CHL1  H18B 3063   4.320   6.203   7.167  2.6749 -1.0702  0.9623
   42CHL1  H18C 3064   4.375   6.192   7.336  1.2145 -0.5582 -0.9456
   42CHL1   C12 3065   4.271   6.505   7.203 -0.2986 -0.1214  0.3753
   42CHL1  H12A 3066   4.172   6.496   7.252 -2.0930  0.3269 -2.8747
   42CHL1  H12B 3067   4.310   6.607   7.226  1.2217 -0.3940 -0.8153
   42CHL1   C11 3068   4.250   6.472   7.052 -1.1149  0.2307 -0.1093
   42CHL1  H11A 3069   4.204   6.371   7.045  2.2299 -1.5190  0.6558
   42CHL1  H11B 3070   4.197   6.553   6.997 -1.7908  2.1822  3.1682
   42CHL1    C9 3071   4.385   6.461   6.974  0.3220 -0.1242 -0.0676
   42CHL1    H9 3072   4.423   6.564   6.987  0.2554 -0.2966  1.7229
   42CHL1   C10 3073   4.374   6.437   6.815 -0.1553  0.2148  0.1282
   42CHL1   C19 3074   4.262   6.336   6.784 -0.1392  0.1917 -0.0612
   42CHL1  H19A 3075   4.163   6.377   6.811  0.4515  3.1894 -1.9698
   42CHL1  H19B 3076   4.241   6.309   6.678  0.7702 -2.4927  0.3579
   42CHL1  H19C 3077   4.288   6.248   6.847  0.0671  0.4471  0.2099
   42CHL1    C1 3078   4.342   6.573   6.751  0.2577 -0.3794 -0.2338
   42CHL1   H1A 3079   4.250   6.624   6.790  0.8835  0.9730 -0.4539
   42CHL1   H1B 3080   4.428   6.640   6.773  0.6643 -1.3517  1.2540
   42CHL1    C2 3081   4.345   6.571   6.592 -0.2495  0.4905 -0.1292
   42CHL1   H2A 3082   4.324   6.675   6.558 -0.9515  0.3303 -0.1999
   42CHL1   H2B 3083   4.253   6.520   6.559  0.7143 -1.0403 -0.5611
   42CHL1   C20 3084   4.324   6.387   7.530  0.1562 -0.0663 -0.0120
   42CHL1   H20 3085   4.304   6.279   7.549 -0.2276 -0.0785 -0.4719
   42CHL1   C21 3086   4.180   6.450   7.528  0.2706 -0.0896 -0.7239
   42CHL1  H21A 3087   4.134   6.404   7.437  0.7983 -0.6098 -0.7330
   42CHL1  H21B 3088   4.196   6.559   7.528 -2.0597  0.3111 -1.4503
   42CHL1  H21C 3089   4.118   6.418   7.614  0.4964 -0.0276 -0.5378
   42CHL1   C22 3090   4.389   6.423   7.666  0.0965  0.8067  0.0253
   42CHL1  H22A 3091   4.484   6.366   7.671 -0.5923 -0.6091 -1.8250
   42CHL1  H22B 3092   4.417   6.531   7.660  1.1360  0.6306  1.3632
   42CHL1   C23 3093   4.306   6.391   7.786  0.6012  0.0560  0.1777
   42CHL1  H23A 3094   4.206   6.440   7.784  0.5924  0.0284 -0.0348
   42CHL1  H23B 3095   4.287   6.283   7.804 -0.0693 -0.0445 -1.0194
   42CHL1   C24 3096   4.375   6.450   7.915 -0.6064 -0.2391 -0.1477
   42CHL1  H24A 3097   4.471   6.394   7.914  1.4362  2.9741 -0.3992
   42CHL1  H24B 3098   4.407   6.556   7.907 -0.6927 -0.3025 -1.8077
   42CHL1   C25 3099   4.298   6.434   8.046  0.5998  0.2457 -0.0390
   42CHL1   H25 3100   4.192   6.467   8.035  0.8833  0.7400 -1.4709
   42CHL1   C26 3101   4.291   6.288   8.090 -0.0587  0.1602  0.0686
   42CHL1  H26A 3102   4.227   6.231   8.019 -1.3651 -0.6827  1.8512
   42CHL1  H26B 3103   4.387   6.234   8.098 -0.7460 -1.2700 -0.8804
   42CHL1  H26C 3104   4.229   6.284   8.182 -1.0185  1.6999 -0.4580
   42CHL1   C27 3105   4.354   6.520   8.163  0.0015  0.2532  0.8890
   42CHL1  H27A 3106   4.465   6.519   8.161  0.0033  0.8670 -1.4979
   42CHL1  H27B 3107   4.314   6.485   8.261  1.7774  0.4142  1.7083
   42CHL1  H27C 3108   4.314   6.623   8.157 -0.1099  0.1151 -2.1749
   43CHL1    C3 3109   6.496   3.547   6.553 -0.1444  0.2872  0.5647
   43CHL1    H3 3110   6.385   3.551   6.564 -0.3331 -1.3633 -0.4217
   43CHL1    O3 3111   6.533   3.576   6.417 -0.7272  0.2720  0.0295
   43CHL1   H3' 3112   6.533   3.501   6.357 -0.5365  0.7069 -0.5166
   43CHL1    C4 3113   6.570   3.642   6.645 -0.3405  0.0120 -0.6349
   43CHL1   H4A 3114   6.677   3.650   6.617  0.5384  3.8192  2.9006
   43CHL1   H4B 3115   6.528   3.744   6.631  0.7479  1.0698  2.7717
   43CHL1    C5 3116   6.575   3.605   6.791  0.2734  0.4164  0.4827
   43CHL1    C6 3117   6.528   3.696   6.877 -0.4224  0.1437 -0.0322
   43CHL1    H6 3118   6.511   3.797   6.838 -0.1255  0.0768 -0.3457
   43CHL1    C7 3119   6.501   3.668   7.023  0.1608 -0.0334 -0.1075
   43CHL1   H7A 3120   6.521   3.753   7.092  1.5291  0.6690 -1.3205
   43CHL1   H7B 3121   6.394   3.642   7.035 -0.0515 -0.2251 -2.1593
   43CHL1    C8 3122   6.579   3.547   7.075 -0.6892 -0.2276 -0.5235
   43CHL1    H8 3123   6.683   3.587   7.079 -0.5009 -0.5578 -1.9043
   43CHL1   C14 3124   6.529   3.509   7.215  0.8156  0.1417 -0.8293
   43CHL1   H14 3125   6.420   3.487   7.214  0.9120 -0.3580 -0.7274
   43CHL1   C15 3126   6.543   3.621   7.332 -0.1447  0.6093 -0.4495
   43CHL1  H15A 3127   6.635   3.680   7.312  1.2038 -1.0543  0.6031
   43CHL1  H15B 3128   6.457   3.692   7.327  1.5246  2.6471 -1.5692
   43CHL1   C16 3129   6.551   3.538   7.465  0.0904  0.0733  0.4101
   43CHL1  H16A 3130   6.651   3.558   7.510  0.4154  1.9739 -1.0089
   43CHL1  H16B 3131   6.473   3.572   7.536  1.3415  1.1026  1.3462
   43CHL1   C17 3132   6.540   3.387   7.426  0.2602 -0.2317 -0.1082
   43CHL1   H17 3133   6.433   3.365   7.410  0.2385  0.7397 -1.4320
   43CHL1   C13 3134   6.603   3.387   7.282 -0.0549  0.4223  0.0778
   43CHL1   C18 3135   6.761   3.410   7.289  0.0525 -0.0919  0.1528
   43CHL1  H18A 3136   6.810   3.418   7.189  2.1068 -2.5095  0.8624
   43CHL1  H18B 3137   6.774   3.501   7.352 -0.2792 -1.5303  2.4211
   43CHL1  H18C 3138   6.816   3.325   7.334  2.6538  0.9254 -0.9256
   43CHL1   C12 3139   6.572   3.267   7.187 -0.5686 -0.4214  0.1135
   43CHL1  H12A 3140   6.606   3.166   7.216 -0.1532  0.2612  2.1813
   43CHL1  H12B 3141   6.461   3.254   7.183 -0.3871 -1.7689 -1.7597
   43CHL1   C11 3142   6.626   3.297   7.045 -0.7018  0.3253 -0.0167
   43CHL1  H11A 3143   6.737   3.301   7.041 -0.7467  1.0949 -0.8933
   43CHL1  H11B 3144   6.598   3.219   6.971 -1.7693  2.0771 -1.5499
   43CHL1    C9 3145   6.567   3.431   6.984 -0.0447  0.0044  0.7895
   43CHL1    H9 3146   6.457   3.414   6.979 -0.6423  3.5002 -2.3976
   43CHL1   C10 3147   6.608   3.461   6.837  0.3291 -0.2345  1.2667
   43CHL1   C19 3148   6.757   3.432   6.819 -0.8259 -0.1122  0.1113
   43CHL1  H19A 3149   6.774   3.323   6.828 -0.4817  0.0643  1.8260
   43CHL1  H19B 3150   6.777   3.461   6.713  1.7281  1.0099  0.8343
   43CHL1  H19C 3151   6.823   3.500   6.877  1.1334  0.6083 -2.7139
   43CHL1    C1 3152   6.520   3.367   6.736 -0.1304  0.1592 -0.4389
   43CHL1   H1A 3153   6.552   3.262   6.753  0.8598  0.5172  0.0125
   43CHL1   H1B 3154   6.412   3.373   6.760 -0.1902  1.2892 -0.9301
   43CHL1    C2 3155   6.540   3.401   6.588 -1.2043 -0.1447 -0.3762
   43CHL1   H2A 3156   6.482   3.324   6.532  0.7722 -0.7119 -1.7761
   43CHL1   H2B 3157   6.645   3.392   6.552 -0.8659 -0.9422  0.7585
   43CHL1   C20 3158   6.600   3.297   7.538 -0.5056 -0.0473  0.0811
   43CHL1   H20 3159   6.706   3.325   7.555 -0.1769 -0.1943 -1.6198
   43CHL1   C21 3160   6.601   3.150   7.492  0.4636  0.3731 -0.6324
   43CHL1  H21A 3161   6.675   3.143   7.410  0.6713 -1.5446 -0.3218
   43CHL1  H21B 3162   6.502   3.108   7.464 -0.3043  1.5973  0.0999
   43CHL1  H21C 3163   6.634   3.089   7.579  1.7128 -0.2720 -1.5395
   43CHL1   C22 3164   6.529   3.317   7.673 -0.4843 -0.1411  0.1712
   43CHL1  H22A 3165   6.516   3.425   7.696  2.0386 -0.0627  1.5278
   43CHL1  H22B 3166   6.422   3.287   7.666 -0.3510 -0.7311  0.5705
   43CHL1   C23 3167   6.601   3.256   7.796  0.2130  0.1442 -0.4642
   43CHL1  H23A 3168   6.606   3.145   7.786  0.3585  0.1589 -0.5519
   43CHL1  H23B 3169   6.700   3.303   7.808  0.6349 -0.6852 -0.6055
   43CHL1   C24 3170   6.516   3.302   7.916 -0.5648 -0.1867  0.3219
   43CHL1  H24A 3171   6.495   3.410   7.908  0.4021 -0.0261 -0.2864
   43CHL1  H24B 3172   6.418   3.250   7.918 -1.4526  1.3981 -0.5148
   43CHL1   C25 3173   6.587   3.280   8.052 -0.4799 -0.8865  0.3738
   43CHL1   H25 3174   6.686   3.330   8.061 -0.4532 -1.0019  0.7274
   43CHL1   C26 3175   6.500   3.329   8.174  0.2823 -0.0363  0.0312
   43CHL1  H26A 3176   6.552   3.321   8.272 -1.4415  2.9498  1.3343
   43CHL1  H26B 3177   6.480   3.435   8.149 -0.0484  0.1276  0.9394
   43CHL1  H26C 3178   6.403   3.274   8.172 -0.3074  1.0061 -1.0246
   43CHL1   C27 3179   6.598   3.133   8.073  0.1171  0.2946 -0.0352
   43CHL1  H27A 3180   6.645   3.088   7.983 -2.3997 -0.2060 -1.1938
   43CHL1  H27B 3181   6.648   3.094   8.164  0.1557  0.4326  0.0037
   43CHL1  H27C 3182   6.497   3.086   8.079  0.8539 -1.2917  0.3445
   44CHL1    C3 3183   5.393   3.239   6.536  0.2431  0.6850  0.4253
   44CHL1    H3 3184   5.282   3.248   6.532  0.3477  1.6533 -1.3588
   44CHL1    O3 3185   5.450   3.232   6.405 -0.0899 -0.0282  0.1538
   44CHL1   H3' 3186   5.536   3.197   6.428  0.7796  0.6888 -1.8081
   44CHL1    C4 3187   5.452   3.354   6.609 -0.0771 -0.2004  0.3380
   44CHL1   H4A 3188   5.563   3.351   6.600 -0.1594  0.0439 -0.8460
   44CHL1   H4B 3189   5.433   3.447   6.552  0.0588 -0.2944  0.1377
   44CHL1    C5 3190   5.399   3.370   6.754 -0.1996 -0.1462 -0.1333
   44CHL1    C6 3191   5.343   3.485   6.793 -0.1034  0.0974 -0.3616
   44CHL1    H6 3192   5.347   3.575   6.730 -0.7026  2.5011  2.7663
   44CHL1    C7 3193   5.295   3.510   6.931 -0.3657  0.0294  0.3783
   44CHL1   H7A 3194   5.320   3.614   6.959  2.3924  0.1555 -2.0715
   44CHL1   H7B 3195   5.186   3.496   6.947  0.1745 -3.2146  2.0853
   44CHL1    C8 3196   5.362   3.411   7.035 -0.5326 -0.4388  0.1098
   44CHL1    H8 3197   5.468   3.439   7.053 -0.5075 -0.7717  0.4841
   44CHL1   C14 3198   5.283   3.410   7.168 -0.2153  0.5962  0.5908
   44CHL1   H14 3199   5.184   3.364   7.147 -0.0861  0.6084 -0.0620
   44CHL1   C15 3200   5.259   3.548   7.238  0.0475 -0.4681  0.1888
   44CHL1  H15A 3201   5.359   3.596   7.228 -0.5273  0.8692  0.6167
   44CHL1  H15B 3202   5.178   3.607   7.191 -0.0515 -0.7457  0.0052
   44CHL1   C16 3203   5.223   3.509   7.381 -0.2196 -0.2379 -0.2580
   44CHL1  H16A 3204   5.284   3.573   7.448  0.6011  1.0517 -2.1281
   44CHL1  H16B 3205   5.115   3.517   7.401  0.0195  1.5682  0.5164
   44CHL1   C17 3206   5.256   3.357   7.392 -0.0568 -0.6090  0.5885
   44CHL1   H17 3207   5.160   3.305   7.373  0.9301 -2.1746 -0.3177
   44CHL1   C13 3208   5.341   3.320   7.273 -0.2321  0.5677  0.4279
   44CHL1   C18 3209   5.488   3.362   7.284  0.2488  0.4287 -0.4171
   44CHL1  H18A 3210   5.491   3.473   7.283 -0.8089  0.4833  0.4075
   44CHL1  H18B 3211   5.528   3.328   7.383 -1.0790  0.7161  0.2466
   44CHL1  H18C 3212   5.551   3.331   7.198  1.8484  0.0039  0.8496
   44CHL1   C12 3213   5.315   3.174   7.218 -0.6022 -0.4329  0.1637
   44CHL1  H12A 3214   5.358   3.099   7.289 -0.5018  0.8452  1.4966
   44CHL1  H12B 3215   5.206   3.154   7.209 -0.2060 -2.6786 -0.3098
   44CHL1   C11 3216   5.386   3.156   7.077  0.1259 -0.2055 -0.0884
   44CHL1  H11A 3217   5.495   3.165   7.093  0.2718  1.7491 -1.7000
   44CHL1  H11B 3218   5.370   3.050   7.046  0.0763  0.5000 -2.7745
   44CHL1    C9 3219   5.345   3.267   6.973  0.5822  0.0839 -0.0464
   44CHL1    H9 3220   5.236   3.253   6.958  0.5148  1.9746 -1.7102
   44CHL1   C10 3221   5.420   3.240   6.834  0.1795 -0.0124  0.6395
   44CHL1   C19 3222   5.577   3.231   6.852 -0.5529  0.6827 -0.1410
   44CHL1  H19A 3223   5.602   3.133   6.896  1.6580  1.0554 -0.4544
   44CHL1  H19B 3224   5.629   3.235   6.754 -1.0414 -0.2450 -0.4489
   44CHL1  H19C 3225   5.608   3.304   6.930 -0.0077 -1.5671  1.8413
   44CHL1    C1 3226   5.357   3.122   6.757 -0.4950  1.0205  1.1056
   44CHL1   H1A 3227   5.390   3.023   6.796  0.7768  0.6780 -0.6864
   44CHL1   H1B 3228   5.248   3.139   6.750 -0.9990 -0.9968  2.9213
   44CHL1    C2 3229   5.417   3.114   6.611  0.0268  0.4378  0.1022
   44CHL1   H2A 3230   5.370   3.033   6.552  0.4102 -0.1691  0.6136
   44CHL1   H2B 3231   5.526   3.097   6.625  0.3314  1.0327 -1.3565
   44CHL1   C20 3232   5.307   3.319   7.535 -0.6284  0.7306 -0.8333
   44CHL1   H20 3233   5.404   3.370   7.556 -0.4048 -0.2675  0.6781
   44CHL1   C21 3234   5.338   3.169   7.538 -0.6958 -0.0644 -0.5344
   44CHL1  H21A 3235   5.431   3.147   7.482 -1.1777  2.1122 -2.3510
   44CHL1  H21B 3236   5.253   3.109   7.497 -0.6114 -0.5918  0.0444
   44CHL1  H21C 3237   5.349   3.130   7.641 -2.6721  0.7439  0.0313
   44CHL1   C22 3238   5.215   3.362   7.653 -0.1301 -0.4491  0.2095
   44CHL1  H22A 3239   5.267   3.321   7.742 -1.1984  1.3853  1.7480
   44CHL1  H22B 3240   5.207   3.472   7.667  1.6931 -0.1426 -0.8265
   44CHL1   C23 3241   5.086   3.282   7.658 -1.0822 -0.2708 -0.1315
   44CHL1  H23A 3242   5.043   3.270   7.556 -2.7207 -3.5825  0.8145
   44CHL1  H23B 3243   5.113   3.178   7.687  0.5948 -0.0677 -0.8327
   44CHL1   C24 3244   4.980   3.339   7.758 -0.2645  0.9542 -0.1531
   44CHL1  H24A 3245   5.033   3.349   7.855  1.3975  0.5676 -0.9845
   44CHL1  H24B 3246   4.943   3.440   7.731  0.5417  0.8198 -1.9083
   44CHL1   C25 3247   4.855   3.256   7.769 -0.3875  1.1109  0.2873
   44CHL1   H25 3248   4.882   3.150   7.789 -1.5874  0.3981 -1.5688
   44CHL1   C26 3249   4.770   3.300   7.888 -1.0142  0.3885  0.0592
   44CHL1  H26A 3250   4.817   3.310   7.988  1.6179  0.2971 -1.0890
   44CHL1  H26B 3251   4.721   3.398   7.871  0.5852  1.6479  2.0813
   44CHL1  H26C 3252   4.686   3.229   7.901 -0.9428  0.1332 -0.8101
   44CHL1   C27 3253   4.779   3.274   7.638  0.6659 -0.0760 -0.3300
   44CHL1  H27A 3254   4.836   3.250   7.545  0.4229  0.2125 -0.5523
   44CHL1  H27B 3255   4.698   3.199   7.652  2.4666 -1.6859  2.4558
   44CHL1  H27C 3256   4.734   3.375   7.632 -1.5609 -0.7370  2.8412
   45CHL1    C3 3257   4.430   0.165   6.897  0.0047 -0.8480 -0.6193
   45CHL1    H3 3258   4.367   0.257   6.892 -0.5011 -1.1904 -0.5513
   45CHL1    O3 3259   4.461   0.124   6.766 -0.3365 -0.2476  0.0192
   45CHL1   H3' 3260   4.374   0.096   6.737 -0.7888  0.0373  1.0652
   45CHL1    C4 3261   4.554   0.205   6.986  0.3622  0.1735 -0.2830
   45CHL1   H4A 3262   4.627   0.123   6.967 -0.2581 -0.2467 -0.9330
   45CHL1   H4B 3263   4.614   0.290   6.947  0.3877  0.3604  0.1630
   45CHL1    C5 3264   4.512   0.225   7.137  0.9250 -0.3971 -0.2154
   45CHL1    C6 3265   4.527   0.344   7.198  0.9879 -0.0164 -0.2851
   45CHL1    H6 3266   4.576   0.415   7.129 -2.4715  0.9527 -1.9821
   45CHL1    C7 3267   4.493   0.359   7.347  0.6713 -0.2029  0.2499
   45CHL1   H7A 3268   4.584   0.410   7.384 -0.3405  1.2213  0.8807
   45CHL1   H7B 3269   4.395   0.411   7.355  0.9211  0.3534 -0.1942
   45CHL1    C8 3270   4.480   0.224   7.419  0.3498  0.6576 -0.4041
   45CHL1    H8 3271   4.571   0.160   7.423 -0.4309 -0.4283  0.6498
   45CHL1   C14 3272   4.431   0.253   7.556 -0.0645  0.5748  0.1430
   45CHL1   H14 3273   4.333   0.301   7.535  0.1906  0.9979 -0.0711
   45CHL1   C15 3274   4.505   0.352   7.646 -0.2837 -0.4240  0.5203
   45CHL1  H15A 3275   4.614   0.333   7.635 -0.6722 -4.3842  1.8644
   45CHL1  H15B 3276   4.482   0.453   7.606  0.8154  0.1117  1.2021
   45CHL1   C16 3277   4.448   0.323   7.787  0.3644 -0.5410  0.4810
   45CHL1  H16A 3278   4.539   0.293   7.844  1.7501  1.8359 -0.3478
   45CHL1  H16B 3279   4.397   0.416   7.822  0.6666 -0.1794 -0.0428
   45CHL1   C17 3280   4.344   0.201   7.765  0.4670  1.1202 -0.1209
   45CHL1   H17 3281   4.244   0.242   7.740  0.1492  0.4420  0.0111
   45CHL1   C13 3282   4.389   0.127   7.641 -0.3793  0.1985 -0.0189
   45CHL1   C18 3283   4.516   0.038   7.675  0.5569 -0.5611 -0.2400
   45CHL1  H18A 3284   4.568   0.005   7.583 -2.6607 -3.6664 -1.1495
   45CHL1  H18B 3285   4.587   0.094   7.741 -0.4306 -0.8610  1.1084
   45CHL1  H18C 3286   4.494  -0.054   7.733 -1.4156 -0.3212 -0.5401
   45CHL1   C12 3287   4.287   0.048   7.560  0.1024 -0.3579 -0.0818
   45CHL1  H12A 3288   4.254  -0.047   7.609 -1.3760 -1.2885 -2.6719
   45CHL1  H12B 3289   4.188   0.099   7.550  0.2182 -0.2186 -0.5538
   45CHL1   C11 3290   4.345   0.013   7.419  0.2269 -0.1575 -0.2492
   45CHL1  H11A 3291   4.425  -0.062   7.433 -0.4407 -0.5539  1.6583
   45CHL1  H11B 3292   4.261  -0.033   7.362 -0.1682  0.1651  0.0681
   45CHL1    C9 3293   4.388   0.133   7.342  0.2372 -0.0569 -0.0101
   45CHL1    H9 3294   4.293   0.188   7.326  0.7624  1.2612  1.1523
   45CHL1   C10 3295   4.442   0.099   7.197 -0.3437 -0.4191 -0.0350
   45CHL1   C19 3296   4.546  -0.019   7.206  0.1594  0.4085  0.0127
   45CHL1  H19A 3297   4.634   0.010   7.268  0.6889 -0.8773 -0.1032
   45CHL1  H19B 3298   4.491  -0.110   7.237  1.0652  0.5028  2.0579
   45CHL1  H19C 3299   4.576  -0.031   7.099 -1.6461  0.8016 -0.5696
   45CHL1    C1 3300   4.319   0.057   7.106  0.3768 -0.3303 -0.5051
   45CHL1   H1A 3301   4.264  -0.025   7.158 -1.9353  0.9954 -0.6877
   45CHL1   H1B 3302   4.248   0.143   7.111  0.1819 -0.1303 -4.2677
   45CHL1    C2 3303   4.349   0.046   6.961 -0.5612  0.5418  0.5136
   45CHL1   H2A 3304   4.269   0.002   6.898  0.2699 -0.7234  0.3064
   45CHL1   H2B 3305   4.421  -0.039   6.957 -2.5477 -1.1507 -1.4625
   45CHL1   C20 3306   4.330   0.121   7.897 -0.7437  0.7492 -0.1736
   45CHL1   H20 3307   4.433   0.083   7.918 -1.0157  0.2723  0.3054
   45CHL1   C21 3308   4.239  -0.005   7.893 -0.4486 -0.2845  0.4203
   45CHL1  H21A 3309   4.134   0.028   7.877 -0.3082  1.3402  2.4298
   45CHL1  H21B 3310   4.245  -0.078   7.976 -1.5451 -0.1036  0.6807
   45CHL1  H21C 3311   4.274  -0.068   7.808  0.8685 -2.9351  2.7780
   45CHL1   C22 3312   4.284   0.205   8.016  0.4634 -0.1848 -0.3600
   45CHL1  H22A 3313   4.354   0.291   8.025  0.2845 -0.1336  0.7173
   45CHL1  H22B 3314   4.181   0.242   7.998  1.5786  3.7763  0.4145
   45CHL1   C23 3315   4.290   0.144   8.155  0.0562  0.5022 -0.0172
   45CHL1  H23A 3316   4.224   0.055   8.155 -1.9308  1.8832 -1.8350
   45CHL1  H23B 3317   4.393   0.110   8.180  0.0010 -0.0835 -0.5698
   45CHL1   C24 3318   4.230   0.244   8.266 -0.4522  0.1194  0.5308
   45CHL1  H24A 3319   4.292   0.336   8.270  0.0588 -0.1195 -1.3191
   45CHL1  H24B 3320   4.136   0.274   8.216  0.7688  0.6471 -1.5866
   45CHL1   C25 3321   4.188   0.180   8.399 -0.2266  0.1466 -0.5587
   45CHL1   H25 3322   4.285   0.143   8.439  1.0490  1.3599 -2.3272
   45CHL1   C26 3323   4.133   0.293   8.492 -0.9530 -0.0466  0.0141
   45CHL1  H26A 3324   4.039   0.321   8.440 -0.9249  2.2217  1.0914
   45CHL1  H26B 3325   4.112   0.251   8.593 -0.5351 -0.3520 -0.0212
   45CHL1  H26C 3326   4.212   0.371   8.496 -1.4489  0.4249  0.8858
   45CHL1   C27 3327   4.106   0.053   8.388 -0.3846 -0.0795 -0.1788
   45CHL1  H27A 3328   4.009   0.069   8.335 -0.3210 -0.4070 -0.3974
   45CHL1  H27B 3329   4.168  -0.031   8.352  0.8643  0.9929 -0.6445
   45CHL1  H27C 3330   4.072   0.033   8.492 -0.8550 -1.8167 -0.6292
   46CHL1    C3 3331   5.419   1.297   6.565  0.1521 -0.2943  0.0569
   46CHL1    H3 3332   5.469   1.396   6.566 -1.0068  0.3139 -0.2709
   46CHL1    O3 3333   5.384   1.262   6.437 -0.2667  0.2308  0.0831
   46CHL1   H3' 3334   5.333   1.181   6.441 -0.8797  0.6266  0.4811
   46CHL1    C4 3335   5.504   1.188   6.628  0.2204 -0.4742 -0.2844
   46CHL1   H4A 3336   5.445   1.097   6.605  0.0268  0.2440 -3.0094
   46CHL1   H4B 3337   5.601   1.165   6.580  1.2119  0.8336  1.0074
   46CHL1    C5 3338   5.523   1.216   6.777 -0.0103  0.3051 -0.1909
   46CHL1    C6 3339   5.645   1.228   6.828 -0.1539 -0.1225 -0.4135
   46CHL1    H6 3340   5.731   1.227   6.759 -0.2001 -0.2263 -0.4704
   46CHL1    C7 3341   5.684   1.264   6.967 -0.1201  0.0926 -0.0918
   46CHL1   H7A 3342   5.782   1.221   6.999  2.4982  3.8005 -2.2738
   46CHL1   H7B 3343   5.702   1.374   6.967  4.5712 -0.4384  0.2692
   46CHL1    C8 3344   5.572   1.239   7.069 -0.3943  0.6771  0.6775
   46CHL1    H8 3345   5.551   1.130   7.072 -1.4849  0.8945  1.2269
   46CHL1   C14 3346   5.606   1.300   7.202 -0.2329  0.2808 -0.7130
   46CHL1   H14 3347   5.612   1.410   7.186 -0.8436  0.7732  1.9763
   46CHL1   C15 3348   5.740   1.261   7.265 -0.1203  0.3934 -0.5122
   46CHL1  H15A 3349   5.762   1.152   7.260 -1.8507  0.0597 -2.1011
   46CHL1  H15B 3350   5.828   1.312   7.218  1.3970 -1.4002  0.2369
   46CHL1   C16 3351   5.725   1.313   7.411 -0.1910  0.2000 -0.4739
   46CHL1  H16A 3352   5.737   1.231   7.485  0.1847 -0.2589 -1.0326
   46CHL1  H16B 3353   5.801   1.392   7.427  0.4188  0.5160 -4.0230
   46CHL1   C17 3354   5.576   1.364   7.420 -0.4132 -0.2490 -0.5078
   46CHL1   H17 3355   5.584   1.470   7.387  1.9129 -0.5984 -1.2590
   46CHL1   C13 3356   5.501   1.295   7.305 -0.6348  0.1471 -0.2254
   46CHL1   C18 3357   5.466   1.152   7.341 -0.1936  0.0486 -0.9975
   46CHL1  H18A 3358   5.391   1.141   7.422  2.4151  0.8946  1.7338
   46CHL1  H18B 3359   5.433   1.093   7.253  0.0470  1.1572 -1.8522
   46CHL1  H18C 3360   5.552   1.099   7.388 -0.4944 -0.1088 -0.6154
   46CHL1   C12 3361   5.382   1.374   7.255  0.6104 -0.2210  0.0046
   46CHL1  H12A 3362   5.303   1.385   7.331  0.3987  2.8416 -0.5208
   46CHL1  H12B 3363   5.409   1.481   7.245  0.4501  0.0636  2.2486
   46CHL1   C11 3364   5.332   1.307   7.124 -0.1801  0.3123 -0.1881
   46CHL1  H11A 3365   5.284   1.213   7.158  0.4410  0.3484  0.8212
   46CHL1  H11B 3366   5.240   1.357   7.087 -0.4761  0.4294  0.6866
   46CHL1    C9 3367   5.445   1.300   7.014  0.7036  0.5424  0.3264
   46CHL1    H9 3368   5.467   1.407   6.994 -1.9116  0.8560 -1.3514
   46CHL1   C10 3369   5.405   1.244   6.871  0.0392  0.0542  0.0003
   46CHL1   C19 3370   5.342   1.108   6.893  0.4692  0.0104  0.4897
   46CHL1  H19A 3371   5.414   1.038   6.940  0.8955  0.0812 -0.0388
   46CHL1  H19B 3372   5.256   1.113   6.963 -0.0371 -1.1639 -0.0372
   46CHL1  H19C 3373   5.297   1.069   6.799 -0.5576  0.7197  0.6710
   46CHL1    C1 3374   5.312   1.345   6.798 -0.1065 -0.0078  0.4941
   46CHL1   H1A 3375   5.213   1.343   6.849 -0.3305 -0.1857  0.0542
   46CHL1   H1B 3376   5.355   1.447   6.805  0.6662 -0.3113  0.1873
   46CHL1    C2 3377   5.287   1.314   6.644  0.0611 -0.4104 -0.4440
   46CHL1   H2A 3378   5.236   1.397   6.590 -1.2796 -1.9406 -1.6274
   46CHL1   H2B 3379   5.234   1.217   6.635  0.4450 -0.6109 -0.5750
   46CHL1   C20 3380   5.529   1.343   7.562  0.6896 -0.1535 -0.7231
   46CHL1   H20 3381   5.520   1.236   7.588 -0.9319  0.3145  0.7801
   46CHL1   C21 3382   5.393   1.416   7.582  0.1371 -0.5307  0.1821
   46CHL1  H21A 3383   5.369   1.416   7.691 -1.7464  0.7067 -0.1827
   46CHL1  H21B 3384   5.315   1.361   7.525 -1.6885  4.1123 -2.2857
   46CHL1  H21C 3385   5.398   1.523   7.554 -0.3423 -0.2402  1.1401
   46CHL1   C22 3386   5.626   1.394   7.677  0.1982 -0.0775  0.0158
   46CHL1  H22A 3387   5.584   1.380   7.779  0.1079  0.9083  0.1310
   46CHL1  H22B 3388   5.718   1.334   7.668  0.0344 -0.1506 -1.3098
   46CHL1   C23 3389   5.672   1.535   7.659  0.6703 -0.6270 -0.5894
   46CHL1  H23A 3390   5.727   1.549   7.564  1.0659  0.2405 -0.2387
   46CHL1  H23B 3391   5.582   1.601   7.660  0.3063 -1.0157 -2.7206
   46CHL1   C24 3392   5.770   1.580   7.765  0.0128 -0.1551 -0.8216
   46CHL1  H24A 3393   5.778   1.691   7.769  1.3098 -0.2474  0.0316
   46CHL1  H24B 3394   5.735   1.551   7.866  3.1523  2.5577  1.2694
   46CHL1   C25 3395   5.915   1.539   7.738 -0.2636  0.6261  0.4007
   46CHL1   H25 3396   5.920   1.438   7.693  0.0290  0.3726  0.9818
   46CHL1   C26 3397   5.980   1.643   7.638  0.4180  0.3067 -0.4103
   46CHL1  H26A 3398   5.996   1.743   7.684  2.4641 -0.4863  0.7652
   46CHL1  H26B 3399   6.078   1.610   7.597  1.9972  0.9810  2.5208
   46CHL1  H26C 3400   5.915   1.665   7.551  1.5380 -0.0693 -1.3748
   46CHL1   C27 3401   5.988   1.533   7.867 -0.3393  0.1591 -0.0990
   46CHL1  H27A 3402   6.098   1.536   7.855 -0.0115 -2.8974  1.1521
   46CHL1  H27B 3403   5.953   1.607   7.942 -1.1200  0.9710 -1.2319
   46CHL1  H27C 3404   5.961   1.435   7.912  1.0634 -1.0901 -1.8155
   47CHL1    C3 3405   5.713   1.719   6.423  0.3585  0.2106  0.2258
   47CHL1    H3 3406   5.650   1.808   6.407  0.4168 -0.1372 -2.3030
   47CHL1    O3 3407   5.746   1.667   6.295 -0.0182 -0.3363 -0.0538
   47CHL1   H3' 3408   5.842   1.666   6.291 -0.0001 -1.9574 -0.0657
   47CHL1    C4 3409   5.846   1.757   6.490 -0.4309  0.3096  0.1165
   47CHL1   H4A 3410   5.920   1.674   6.482  2.6574  2.8733  0.0271
   47CHL1   H4B 3411   5.891   1.842   6.434  0.2022  0.3024  0.5992
   47CHL1    C5 3412   5.831   1.788   6.636  0.5426  0.1680 -0.1724
   47CHL1    C6 3413   5.882   1.904   6.692  0.6284  0.5336  0.0988
   47CHL1    H6 3414   5.949   1.969   6.634  1.8473  0.5346  1.4643
   47CHL1    C7 3415   5.871   1.933   6.837  0.2369 -0.5693 -0.3845
   47CHL1   H7A 3416   5.975   1.961   6.866  0.7813 -1.9496 -0.9001
   47CHL1   H7B 3417   5.804   2.022   6.842  1.3177  0.2068  1.4507
   47CHL1    C8 3418   5.822   1.820   6.926  0.6630 -0.4416  0.1722
   47CHL1    H8 3419   5.911   1.756   6.941  1.6103  1.1707  1.7985
   47CHL1   C14 3420   5.776   1.880   7.062 -0.1762 -0.3975  0.3611
   47CHL1   H14 3421   5.697   1.953   7.032 -0.4855 -0.1871  1.6363
   47CHL1   C15 3422   5.886   1.953   7.147 -0.1251  0.3561  0.8645
   47CHL1  H15A 3423   5.974   1.886   7.155 -1.7007 -1.6879  2.0745
   47CHL1  H15B 3424   5.917   2.046   7.096 -1.5470 -0.1104 -0.9472
   47CHL1   C16 3425   5.822   1.956   7.285  0.4289  0.2671 -0.2523
   47CHL1  H16A 3426   5.890   1.899   7.351  0.9431 -1.1003 -1.9069
   47CHL1  H16B 3427   5.809   2.060   7.322  0.4665  0.2244 -0.1199
   47CHL1   C17 3428   5.681   1.886   7.269 -0.4561  0.7505 -0.0206
   47CHL1   H17 3429   5.596   1.951   7.241 -1.8428 -1.8073 -2.2063
   47CHL1   C13 3430   5.715   1.784   7.159  0.4202 -0.1706 -0.8245
   47CHL1   C18 3431   5.815   1.674   7.204 -0.0271  0.2449  0.0401
   47CHL1  H18A 3432   5.879   1.637   7.120  0.8821  1.3981  0.2165
   47CHL1  H18B 3433   5.885   1.713   7.281  0.1156  1.2588 -0.5815
   47CHL1  H18C 3434   5.764   1.587   7.251  0.0216  0.2808  0.1588
   47CHL1   C12 3435   5.596   1.710   7.094  0.0093  0.8628 -0.2636
   47CHL1  H12A 3436   5.563   1.636   7.170  1.3594 -1.9569 -2.1894
   47CHL1  H12B 3437   5.504   1.768   7.074 -3.3101 -3.3518  1.2982
   47CHL1   C11 3438   5.639   1.647   6.961 -0.2772  0.7887  0.3709
   47CHL1  H11A 3439   5.713   1.565   6.976 -1.0029 -0.6268 -3.0377
   47CHL1  H11B 3440   5.547   1.599   6.922  0.0161 -1.2404  2.0181
   47CHL1    C9 3441   5.706   1.749   6.859  0.8066  0.3378 -0.9065
   47CHL1    H9 3442   5.621   1.820   6.844 -0.3594 -1.2814 -2.4094
   47CHL1   C10 3443   5.735   1.687   6.716  0.2546 -0.5368 -0.1748
   47CHL1   C19 3444   5.820   1.558   6.743 -0.0855 -0.0813 -0.0878
   47CHL1  H19A 3445   5.898   1.577   6.820  0.1117 -1.3177  0.0454
   47CHL1  H19B 3446   5.754   1.478   6.784 -0.8860  0.0997 -1.0005
   47CHL1  H19C 3447   5.882   1.513   6.663  1.4553  1.4100  0.2148
   47CHL1    C1 3448   5.607   1.640   6.645  0.0552  0.3338 -0.5663
   47CHL1   H1A 3449   5.561   1.549   6.690 -1.5524  1.1056 -0.6154
   47CHL1   H1B 3450   5.533   1.722   6.651 -0.2985 -0.0388  0.4477
   47CHL1    C2 3451   5.637   1.609   6.501  0.2088  0.3435  0.9578
   47CHL1   H2A 3452   5.544   1.589   6.445  2.2288 -0.5871 -2.3054
   47CHL1   H2B 3453   5.692   1.514   6.485  0.7906  0.6131  1.3402
   47CHL1   C20 3454   5.637   1.838   7.410  0.7001 -0.0376  0.2981
   47CHL1   H20 3455   5.700   1.751   7.439  1.0581  0.2361  0.3578
   47CHL1   C21 3456   5.484   1.812   7.390  0.8935 -0.9316  0.4714
   47CHL1  H21A 3457   5.435   1.902   7.346  2.2730 -0.3462  0.0733
   47CHL1  H21B 3458   5.437   1.806   7.491 -0.2181 -1.1688 -0.0493
   47CHL1  H21C 3459   5.467   1.716   7.337  0.6209 -1.8617  2.1661
   47CHL1   C22 3460   5.662   1.946   7.516  0.4289 -0.4783  0.0320
   47CHL1  H22A 3461   5.770   1.962   7.537  0.0380 -1.1359  2.9963
   47CHL1  H22B 3462   5.612   2.039   7.481 -0.5540  0.6823  3.9915
   47CHL1   C23 3463   5.592   1.903   7.651  0.0611 -0.1485 -0.1420
   47CHL1  H23A 3464   5.482   1.913   7.661 -0.2900 -1.3866 -2.2024
   47CHL1  H23B 3465   5.618   1.798   7.676  0.5071  0.3670  1.6703
   47CHL1   C24 3466   5.646   1.990   7.767  0.2730  0.3280 -0.0167
   47CHL1  H24A 3467   5.755   1.968   7.768  0.2473 -0.2523  3.5051
   47CHL1  H24B 3468   5.634   2.098   7.746  1.2570  1.0142  2.5164
   47CHL1   C25 3469   5.597   1.943   7.909 -0.4522 -0.3362  0.2261
   47CHL1   H25 3470   5.630   1.837   7.915 -1.4156 -0.9863 -3.6320
   47CHL1   C26 3471   5.663   2.028   8.024 -0.1717  0.1716 -0.0584
   47CHL1  H26A 3472   5.619   2.130   8.021  0.5872  0.6007  1.7035
   47CHL1  H26B 3473   5.649   1.983   8.125  2.4443  0.7489  0.6446
   47CHL1  H26C 3474   5.772   2.017   8.005 -0.2954 -1.2394 -0.0922
   47CHL1   C27 3475   5.440   1.931   7.927  0.2855  0.0149 -0.9708
   47CHL1  H27A 3476   5.423   1.911   8.035  0.9643  1.0443 -0.6533
   47CHL1  H27B 3477   5.374   2.019   7.912 -3.3164 -1.8221  2.2858
   47CHL1  H27C 3478   5.407   1.850   7.859 -0.2328 -0.6089  0.0069
   48CHL1    C3 3479   0.186   4.868   6.393  0.1901  0.5309  0.4209
   48CHL1    H3 3480   0.289   4.828   6.403  0.2261  0.2942 -0.7970
   48CHL1    O3 3481   0.148   4.885   6.258  0.3912  0.0075  0.0028
   48CHL1   H3' 3482   0.061   4.924   6.261  1.1844  1.8205  0.8114
   48CHL1    C4 3483   0.090   4.758   6.450  0.1767  0.5777  0.7982
   48CHL1   H4A 3484  -0.012   4.795   6.427  0.6822  0.6105 -1.6456
   48CHL1   H4B 3485   0.098   4.662   6.395  0.4614 -1.2523  3.7860
   48CHL1    C5 3486   0.112   4.738   6.600 -0.2705  0.2332  0.6125
   48CHL1    C6 3487   0.124   4.611   6.649 -0.4811  0.7833 -0.2035
   48CHL1    H6 3488   0.115   4.533   6.573 -0.7421  1.3667 -0.7818
   48CHL1    C7 3489   0.135   4.572   6.794 -0.6092 -0.2185  0.0294
   48CHL1   H7A 3490   0.059   4.495   6.817  0.1257 -1.2242 -0.7862
   48CHL1   H7B 3491   0.233   4.521   6.801 -0.9364 -1.0895 -1.3075
   48CHL1    C8 3492   0.131   4.695   6.886  0.5091  0.7909  0.1201
   48CHL1    H8 3493   0.026   4.715   6.916 -0.4205 -2.5898 -0.4262
   48CHL1   C14 3494   0.204   4.668   7.017 -0.2311 -0.4082 -0.2717
   48CHL1   H14 3495   0.311   4.662   6.987 -0.1470 -0.6003  0.0578
   48CHL1   C15 3496   0.152   4.534   7.076 -0.3086 -0.1465 -0.0522
   48CHL1  H15A 3497   0.043   4.519   7.066 -0.5814  1.7121 -0.3301
   48CHL1  H15B 3498   0.206   4.452   7.024 -0.2518  0.2396 -0.6088
   48CHL1   C16 3499   0.194   4.552   7.223  0.3028  0.2141 -0.3934
   48CHL1  H16A 3500   0.105   4.539   7.287 -0.4487 -3.9388 -1.9518
   48CHL1  H16B 3501   0.277   4.481   7.243  1.3113  0.2823 -3.6327
   48CHL1   C17 3502   0.260   4.690   7.241  0.8254  0.2331  0.0920
   48CHL1   H17 3503   0.370   4.686   7.227  0.4582 -0.6759 -3.3931
   48CHL1   C13 3504   0.199   4.772   7.122  0.8857 -0.4095 -0.0458
   48CHL1   C18 3505   0.050   4.815   7.165  0.6202 -0.4987  0.0918
   48CHL1  H18A 3506  -0.001   4.721   7.197 -0.3315  0.6804  2.2279
   48CHL1  H18B 3507   0.048   4.883   7.252  1.2787 -0.9760  0.4880
   48CHL1  H18C 3508   0.004   4.866   7.078  0.7722 -0.8185 -0.1794
   48CHL1   C12 3509   0.272   4.894   7.060 -0.2740 -0.6551  0.2430
   48CHL1  H12A 3510   0.264   4.976   7.134 -0.0398 -1.7647  1.5398
   48CHL1  H12B 3511   0.381   4.877   7.047 -0.0027  1.1539 -0.1548
   48CHL1   C11 3512   0.202   4.936   6.926 -0.0628 -0.1654 -0.7336
   48CHL1  H11A 3513   0.106   4.990   6.943 -0.3937 -1.0119  0.1627
   48CHL1  H11B 3514   0.272   5.005   6.875  1.0517  1.1628  2.3722
   48CHL1    C9 3515   0.196   4.816   6.822  0.1357 -0.1859 -0.0653
   48CHL1    H9 3516   0.301   4.796   6.794  0.2986 -0.4144  0.6884
   48CHL1   C10 3517   0.132   4.864   6.692  0.6383 -0.1804 -0.1460
   48CHL1   C19 3518  -0.010   4.918   6.720  0.6810  0.5895 -0.1982
   48CHL1  H19A 3519  -0.072   4.940   6.630  1.1435 -0.2876 -0.7435
   48CHL1  H19B 3520  -0.065   4.846   6.784  1.6066  1.2141  1.3402
   48CHL1  H19C 3521   0.003   5.013   6.777 -1.2341  1.1395 -0.5708
   48CHL1    C1 3522   0.216   4.970   6.620  0.4401  0.2266 -0.3725
   48CHL1   H1A 3523   0.197   5.065   6.675 -2.7941 -1.0327  0.9203
   48CHL1   H1B 3524   0.323   4.940   6.608  0.7291  0.7584  0.7037
   48CHL1    C2 3525   0.176   4.999   6.475 -0.3744 -0.1202 -0.1087
   48CHL1   H2A 3526   0.248   5.072   6.431  0.2057 -0.5923  0.0453
   48CHL1   H2B 3527   0.080   5.054   6.463 -0.2271  0.2051  0.1901
   48CHL1   C20 3528   0.237   4.752   7.384 -0.2470  0.4002 -0.1149
   48CHL1   H20 3529   0.127   4.759   7.387 -0.4585 -0.3584 -3.1520
   48CHL1   C21 3530   0.310   4.891   7.379 -0.1280 -0.4320  0.8112
   48CHL1  H21A 3531   0.252   4.957   7.312  0.9975 -2.1198 -2.0201
   48CHL1  H21B 3532   0.413   4.871   7.343  1.1902  0.9555  3.4605
   48CHL1  H21C 3533   0.320   4.933   7.482  1.1456 -0.5017  0.7337
   48CHL1   C22 3534   0.281   4.662   7.500 -0.1643 -0.0406  0.1326
   48CHL1  H22A 3535   0.235   4.561   7.491  1.1022 -0.4342 -3.4774
   48CHL1  H22B 3536   0.388   4.631   7.504 -0.3189 -0.5058  1.3460
   48CHL1   C23 3537   0.259   4.713   7.641 -0.5078 -0.3932  0.1150
   48CHL1  H23A 3538   0.341   4.784   7.666 -0.8967  0.0919  0.0356
   48CHL1  H23B 3539   0.163   4.764   7.664 -0.3556  0.2363 -0.6085
   48CHL1   C24 3540   0.273   4.599   7.746  0.1975  0.3994  0.1700
   48CHL1  H24A 3541   0.204   4.515   7.724  2.9171 -2.0380  0.2824
   48CHL1  H24B 3542   0.371   4.552   7.726  0.4828  0.0491  2.1931
   48CHL1   C25 3543   0.270   4.643   7.894  0.4073  0.1013  0.3231
   48CHL1   H25 3544   0.325   4.740   7.887  0.4082 -0.0149 -1.7508
   48CHL1   C26 3545   0.123   4.650   7.935  0.7316 -0.1823 -0.5330
   48CHL1  H26A 3546   0.061   4.559   7.920  0.8012 -0.2922 -0.1600
   48CHL1  H26B 3547   0.106   4.682   8.041 -1.5906 -0.1202 -0.8657
   48CHL1  H26C 3548   0.079   4.738   7.882  2.0408  0.1313 -1.1334
   48CHL1   C27 3549   0.346   4.542   7.975 -1.0170 -0.6872 -0.3896
   48CHL1  H27A 3550   0.308   4.439   7.956  0.2482 -1.3252  0.3589
   48CHL1  H27B 3551   0.454   4.553   7.955 -0.9976 -0.0924  0.0298
   48CHL1  H27C 3552   0.325   4.560   8.083  0.6652  0.5189 -0.2340
   49CHL1    C3 3553   6.613   5.313   6.473 -0.2861 -0.1303  0.3009
   49CHL1    H3 3554   6.628   5.203   6.476  2.5469  0.1839  0.0189
   49CHL1    O3 3555   6.591   5.358   6.345 -0.4913  0.3660  0.0808
   49CHL1   H3' 3556   6.598   5.454   6.351  0.7520  0.2141  2.0654
   49CHL1    C4 3557   6.494   5.356   6.561  0.2237 -0.2267 -0.7491
   49CHL1   H4A 3558   6.482   5.466   6.555 -0.3693 -0.2236  0.3073
   49CHL1   H4B 3559   6.404   5.305   6.519 -1.3228 -1.8023  3.8786
   49CHL1    C5 3560   6.508   5.309   6.706  0.4221 -0.1889 -0.0658
   49CHL1    C6 3561   6.418   5.230   6.763  0.3137  0.7183 -0.6338
   49CHL1    H6 3562   6.326   5.211   6.707 -0.3757  0.7227  0.4652
   49CHL1    C7 3563   6.423   5.174   6.902  0.0966 -0.1643 -0.4908
   49CHL1   H7A 3564   6.325   5.169   6.954 -0.5568 -1.7756 -1.7959
   49CHL1   H7B 3565   6.460   5.069   6.899 -0.6173 -0.4253 -0.2084
   49CHL1    C8 3566   6.526   5.250   6.990  0.1227 -0.2035  0.1144
   49CHL1    H8 3567   6.477   5.348   7.008 -1.3801 -0.6897 -1.1127
   49CHL1   C14 3568   6.558   5.184   7.118  0.3040  0.1698  0.1729
   49CHL1   H14 3569   6.620   5.093   7.103 -1.2831 -0.7815 -0.8706
   49CHL1   C15 3570   6.438   5.138   7.206  0.0291 -0.3076  0.6224
   49CHL1  H15A 3571   6.348   5.195   7.176  0.7151  0.0172 -0.9215
   49CHL1  H15B 3572   6.419   5.035   7.169  0.6576  0.6883 -2.7332
   49CHL1   C16 3573   6.500   5.132   7.343  0.7114  0.0545  0.1179
   49CHL1  H16A 3574   6.437   5.195   7.408  2.0856 -0.4612  2.0233
   49CHL1  H16B 3575   6.490   5.030   7.387 -1.3806 -0.9499 -2.4103
   49CHL1   C17 3576   6.648   5.189   7.342  1.1372 -0.0147  0.0327
   49CHL1   H17 3577   6.711   5.100   7.322 -1.7012 -1.7190 -2.0656
   49CHL1   C13 3578   6.647   5.272   7.212  0.2561 -0.2131  0.5793
   49CHL1   C18 3579   6.587   5.408   7.248 -0.3744 -0.2499  0.2721
   49CHL1  H18A 3580   6.663   5.463   7.307 -0.1630 -1.3978  1.1114
   49CHL1  H18B 3581   6.564   5.467   7.157 -1.0092 -0.6473  0.1705
   49CHL1  H18C 3582   6.495   5.410   7.310 -1.7806 -0.8591 -1.6638
   49CHL1   C12 3583   6.785   5.277   7.143 -0.1723 -0.4097 -0.8114
   49CHL1  H12A 3584   6.861   5.334   7.201 -0.6372 -0.9308  0.3509
   49CHL1  H12B 3585   6.830   5.177   7.126 -2.8144 -1.7966 -0.1777
   49CHL1   C11 3586   6.780   5.333   6.996 -0.2793  0.4159 -0.5933
   49CHL1  H11A 3587   6.773   5.443   7.013 -0.9391  0.1405  1.1477
   49CHL1  H11B 3588   6.881   5.304   6.958 -0.5655 -1.2618 -0.1547
   49CHL1    C9 3589   6.658   5.276   6.910  1.0070 -0.1040  0.4376
   49CHL1    H9 3590   6.683   5.171   6.886 -2.1796 -0.8500 -0.0817
   49CHL1   C10 3591   6.639   5.358   6.777  0.3505 -0.2557 -0.8705
   49CHL1   C19 3592   6.630   5.510   6.806 -0.3327  0.1346 -0.9412
   49CHL1  H19A 3593   6.582   5.539   6.901  0.6529  1.0684 -0.7085
   49CHL1  H19B 3594   6.732   5.555   6.802 -0.2501  0.2324  1.1912
   49CHL1  H19C 3595   6.570   5.567   6.733 -0.1249  2.1436  0.3669
   49CHL1    C1 3596   6.764   5.322   6.682 -0.1388  0.2778 -0.9978
   49CHL1   H1A 3597   6.849   5.375   6.730 -0.5511  0.2144 -0.1747
   49CHL1   H1B 3598   6.795   5.216   6.694  3.6635  1.4043  0.7302
   49CHL1    C2 3599   6.749   5.357   6.528 -0.3869 -0.5797 -0.0241
   49CHL1   H2A 3600   6.832   5.319   6.465 -0.7055  0.7871 -1.3437
   49CHL1   H2B 3601   6.760   5.468   6.528 -1.6120 -0.4145  1.4789
   49CHL1   C20 3602   6.686   5.245   7.475  0.1253  0.6845  0.9491
   49CHL1   H20 3603   6.617   5.325   7.508 -1.7732  1.4984 -4.0522
   49CHL1   C21 3604   6.827   5.297   7.474 -0.7036  0.0948 -0.4531
   49CHL1  H21A 3605   6.854   5.355   7.565 -0.0982 -1.1694  0.2089
   49CHL1  H21B 3606   6.843   5.368   7.390 -2.9183  1.7597  0.4447
   49CHL1  H21C 3607   6.910   5.223   7.476 -0.5686  0.2095  2.1116
   49CHL1   C22 3608   6.675   5.146   7.591  0.1465  0.5080 -0.2099
   49CHL1  H22A 3609   6.568   5.114   7.586  0.5107 -1.1296  1.4620
   49CHL1  H22B 3610   6.734   5.055   7.570 -2.0843 -0.4647 -3.1011
   49CHL1   C23 3611   6.704   5.195   7.736  0.0673  0.4071  0.2538
   49CHL1  H23A 3612   6.811   5.222   7.744  0.4701 -1.4582  1.9450
   49CHL1  H23B 3613   6.644   5.286   7.757  2.7018  1.9110  1.7093
   49CHL1   C24 3614   6.669   5.092   7.841 -0.0667  1.1067 -0.0145
   49CHL1  H24A 3615   6.560   5.072   7.837  0.0363  0.1287  1.3831
   49CHL1  H24B 3616   6.722   4.998   7.814 -0.2166  0.5718  1.4669
   49CHL1   C25 3617   6.713   5.127   7.985  0.3170  0.1998  0.2866
   49CHL1   H25 3618   6.684   5.233   8.002  2.9545  1.4333 -2.0488
   49CHL1   C26 3619   6.649   5.039   8.087  0.5199  0.3971  0.1373
   49CHL1  H26A 3620   6.689   5.038   8.190  0.5067  0.4731  0.1433
   49CHL1  H26B 3621   6.539   5.055   8.093  0.4991  0.0686  0.7404
   49CHL1  H26C 3622   6.663   4.932   8.058 -0.8875 -0.0066  0.8484
   49CHL1   C27 3623   6.864   5.125   8.007  0.1760  0.1709 -0.2368
   49CHL1  H27A 3624   6.927   5.138   7.916  0.9982 -0.0837  0.2815
   49CHL1  H27B 3625   6.904   5.191   8.087 -1.2412  0.1643  0.5077
   49CHL1  H27C 3626   6.893   5.023   8.039  0.8852  0.8431  1.3971
   50CHL1    C3 3627   3.010   6.558   6.489 -0.1065 -0.2219  0.0236
   50CHL1    H3 3628   3.091   6.483   6.490 -0.3018 -0.5813 -2.7414
   50CHL1    O3 3629   2.991   6.569   6.350 -0.1263 -0.5676  0.2630
   50CHL1   H3' 3630   2.946   6.486   6.333 -0.8748 -0.0933 -0.1083
   50CHL1    C4 3631   2.883   6.513   6.563 -0.7684  0.5788  0.0175
   50CHL1   H4A 3632   2.797   6.572   6.523 -2.2241 -0.4214  1.5128
   50CHL1   H4B 3633   2.864   6.408   6.530 -0.7745  0.1487  1.3221
   50CHL1    C5 3634   2.891   6.513   6.716  0.5841 -0.6538 -0.3566
   50CHL1    C6 3635   2.862   6.414   6.803  0.0055  0.6270 -0.1143
   50CHL1    H6 3636   2.844   6.312   6.766  2.9476  0.5748 -1.6394
   50CHL1    C7 3637   2.869   6.423   6.955  0.4890 -0.1149 -0.2375
   50CHL1   H7A 3638   2.795   6.363   7.012 -1.2743 -0.2486 -2.5395
   50CHL1   H7B 3639   2.968   6.386   6.988 -0.6739 -1.4183  2.0433
   50CHL1    C8 3640   2.886   6.576   7.006  0.2857  0.1081  0.5456
   50CHL1    H8 3641   2.784   6.619   6.994 -0.7553 -1.9990  1.4114
   50CHL1   C14 3642   2.929   6.583   7.150 -0.2152  0.0595  0.0797
   50CHL1   H14 3643   3.034   6.550   7.140  0.3850  0.9859  2.5338
   50CHL1   C15 3644   2.848   6.509   7.257  0.0597 -0.1619  0.2520
   50CHL1  H15A 3645   2.738   6.523   7.260 -0.0967 -1.3129  2.7411
   50CHL1  H15B 3646   2.855   6.398   7.251 -1.0986 -0.1686 -3.8167
   50CHL1   C16 3647   2.890   6.568   7.393  0.6815 -0.2341 -0.2590
   50CHL1  H16A 3648   2.809   6.608   7.458  0.4395 -0.1129 -0.6298
   50CHL1  H16B 3649   2.956   6.495   7.444 -0.1538 -0.8679 -0.0639
   50CHL1   C17 3650   2.987   6.687   7.361  0.4608 -0.0176 -0.3187
   50CHL1   H17 3651   3.089   6.642   7.354 -0.2170 -1.5654 -0.6773
   50CHL1   C13 3652   2.952   6.729   7.215 -0.0633  0.7165  0.0226
   50CHL1   C18 3653   2.821   6.813   7.213  0.0183 -0.1062  0.1191
   50CHL1  H18A 3654   2.787   6.825   7.108 -0.1166  1.0197  0.2788
   50CHL1  H18B 3655   2.742   6.771   7.278 -0.6630 -1.2707 -1.3976
   50CHL1  H18C 3656   2.843   6.917   7.246 -1.8163  0.3480  0.0269
   50CHL1   C12 3657   3.056   6.793   7.125 -0.1606  0.0968 -0.8787
   50CHL1  H12A 3658   3.079   6.899   7.151  2.0825 -0.2896 -1.0668
   50CHL1  H12B 3659   3.144   6.727   7.141 -1.0424 -0.9273 -0.1099
   50CHL1   C11 3660   3.018   6.790   6.981  0.0290  0.4706 -0.0950
   50CHL1  H11A 3661   2.935   6.860   6.957 -0.4086  0.1382  0.4238
   50CHL1  H11B 3662   3.107   6.835   6.932  1.0308  1.5987  2.5846
   50CHL1    C9 3663   2.987   6.646   6.914 -0.3562 -0.4855  0.2656
   50CHL1    H9 3664   3.080   6.585   6.918  0.3594  0.5928  0.4327
   50CHL1   C10 3665   2.948   6.652   6.770 -0.9174  0.4197  0.7220
   50CHL1   C19 3666   2.833   6.754   6.750  0.2619 -1.1312  0.2572
   50CHL1  H19A 3667   2.850   6.860   6.776 -0.6577 -0.2886 -2.2595
   50CHL1  H19B 3668   2.799   6.754   6.644  0.0187 -2.0389  0.3243
   50CHL1  H19C 3669   2.744   6.722   6.810 -1.4192  0.0819 -1.4562
   50CHL1    C1 3670   3.074   6.704   6.694 -0.0767 -0.4780 -0.9033
   50CHL1   H1A 3671   3.099   6.811   6.713  0.6617 -0.0683 -3.6866
   50CHL1   H1B 3672   3.165   6.644   6.716  0.7386  0.5327 -1.4071
   50CHL1    C2 3673   3.064   6.694   6.541  0.8325  0.0785  0.0123
   50CHL1   H2A 3674   3.169   6.695   6.505  0.3607 -1.7822 -1.6012
   50CHL1   H2B 3675   2.998   6.774   6.503  0.5432  0.4258  1.2220
   50CHL1   C20 3676   2.985   6.797   7.465 -0.3970  0.0868 -0.3064
   50CHL1   H20 3677   2.886   6.847   7.466 -0.4218  0.0335  0.6303
   50CHL1   C21 3678   3.087   6.906   7.423  0.2473 -0.3233 -0.2844
   50CHL1  H21A 3679   3.168   6.877   7.353  1.3322  1.0833  0.3257
   50CHL1  H21B 3680   3.137   6.958   7.508 -1.5678  0.3738  0.4015
   50CHL1  H21C 3681   3.036   6.983   7.361 -1.0097  0.1324  1.2362
   50CHL1   C22 3682   3.023   6.750   7.609 -0.1657 -0.3565 -0.0589
   50CHL1  H22A 3683   2.975   6.653   7.632  0.6916 -1.1531 -1.4866
   50CHL1  H22B 3684   3.132   6.726   7.606  0.2408  1.3823 -0.4702
   50CHL1   C23 3685   2.992   6.857   7.718 -0.4897 -0.2571 -0.0040
   50CHL1  H23A 3686   3.071   6.935   7.726 -1.1819  0.3058  2.1521
   50CHL1  H23B 3687   2.890   6.894   7.692 -0.3221  0.1516 -0.0904
   50CHL1   C24 3688   2.984   6.809   7.864 -0.3143  0.2919  0.3857
   50CHL1  H24A 3689   2.880   6.778   7.890 -0.7046  1.1749 -0.0897
   50CHL1  H24B 3690   3.049   6.720   7.880  0.2872  0.9302  1.5175
   50CHL1   C25 3691   3.020   6.912   7.975  1.0260  0.8306  0.0497
   50CHL1   H25 3692   3.129   6.919   7.955  0.9575 -1.3009 -1.3163
   50CHL1   C26 3693   2.942   7.044   7.949  0.1691  0.5915 -0.1894
   50CHL1  H26A 3694   2.962   7.128   8.019 -2.0702  0.4618  0.6985
   50CHL1  H26B 3695   2.958   7.081   7.846  0.1693  1.6323  0.1707
   50CHL1  H26C 3696   2.836   7.014   7.959 -0.2741  2.2416  0.3817
   50CHL1   C27 3697   3.001   6.867   8.129  0.6308 -0.3829  0.0306
   50CHL1  H27A 3698   2.894   6.860   8.155  0.7504 -0.2890  0.5637
   50CHL1  H27B 3699   3.047   6.770   8.158  1.8303  0.1308 -0.0796
   50CHL1  H27C 3700   3.021   6.952   8.197 -0.1161 -1.4572  1.6366
   51CHL1    C3 3701   5.756   5.128   6.914 -0.2225  0.7710  0.2687
   51CHL1    H3 3702   5.789   5.031   6.956  1.1522  1.8503  1.8153
   51CHL1    O3 3703   5.675   5.111   6.795  0.2795  0.2433  0.2172
   51CHL1   H3' 3704   5.717   5.167   6.729  0.9667  0.9131  1.1907
   51CHL1    C4 3705   5.659   5.185   7.017 -0.3979  0.2388 -0.4034
   51CHL1   H4A 3706   5.604   5.271   6.972 -0.8672 -0.5317 -1.3471
   51CHL1   H4B 3707   5.571   5.120   7.037 -0.0490  0.4127  2.0222
   51CHL1    C5 3708   5.747   5.207   7.149  0.7514  0.2149 -0.6170
   51CHL1    C6 3709   5.703   5.159   7.264  0.8650  0.2035  0.0171
   51CHL1    H6 3710   5.601   5.120   7.251  0.4243  1.9823 -2.5123
   51CHL1    C7 3711   5.768   5.179   7.396  0.1919  0.5459 -0.5232
   51CHL1   H7A 3712   5.697   5.206   7.476  0.3373 -3.3045  1.1409
   51CHL1   H7B 3713   5.796   5.074   7.421  0.6951  0.8177  0.0881
   51CHL1    C8 3714   5.891   5.273   7.386 -0.0696  1.0940 -0.1811
   51CHL1    H8 3715   5.839   5.371   7.382  1.8076  2.0996 -2.3052
   51CHL1   C14 3716   5.972   5.268   7.514 -0.2976 -0.4213 -0.1280
   51CHL1   H14 3717   6.014   5.165   7.521 -0.1985 -0.4223 -0.6523
   51CHL1   C15 3718   5.893   5.279   7.650  0.1937  0.2149  0.9657
   51CHL1  H15A 3719   5.824   5.366   7.640 -2.0408 -1.5449  0.1380
   51CHL1  H15B 3720   5.844   5.189   7.692  0.1126 -0.3786 -0.3559
   51CHL1   C16 3721   6.008   5.321   7.741 -0.1079  0.2772 -0.2023
   51CHL1  H16A 3722   5.973   5.399   7.811 -0.0573 -0.6802  0.9227
   51CHL1  H16B 3723   6.038   5.239   7.809 -1.8542 -0.0104  0.2584
   51CHL1   C17 3724   6.142   5.351   7.665 -0.5129  0.4340 -0.7626
   51CHL1   H17 3725   6.202   5.258   7.673 -0.1190  0.7921  0.8812
   51CHL1   C13 3726   6.083   5.371   7.524 -0.4538  0.1316 -0.0459
   51CHL1   C18 3727   6.029   5.516   7.509  0.0094  0.2401  0.1943
   51CHL1  H18A 3728   5.963   5.544   7.593  1.7122  2.1084  1.0032
   51CHL1  H18B 3729   6.113   5.588   7.494  0.1029 -0.1413 -1.3715
   51CHL1  H18C 3730   5.955   5.532   7.428  0.8919  0.9074 -0.4993
   51CHL1   C12 3731   6.172   5.348   7.407 -0.3510 -0.3348  0.3693
   51CHL1  H12A 3732   6.252   5.426   7.398 -0.1740 -0.5735 -0.1867
   51CHL1  H12B 3733   6.218   5.249   7.425 -0.8246 -0.7213 -0.5044
   51CHL1   C11 3734   6.107   5.349   7.269  0.0306 -0.4110  0.4550
   51CHL1  H11A 3735   6.074   5.455   7.265  1.1101 -0.0780 -0.2801
   51CHL1  H11B 3736   6.178   5.330   7.186  0.5614 -0.5459  0.9267
   51CHL1    C9 3737   5.977   5.259   7.259  0.5388  0.1343 -0.0707
   51CHL1    H9 3738   6.018   5.156   7.253 -0.3630 -0.2469  0.1345
   51CHL1   C10 3739   5.877   5.285   7.137 -0.3516 -0.1517  0.0774
   51CHL1   C19 3740   5.823   5.429   7.125 -0.3932 -0.2572 -0.0573
   51CHL1  H19A 3741   5.909   5.497   7.105 -0.9933  0.4762 -0.1781
   51CHL1  H19B 3742   5.758   5.440   7.036  0.6805 -1.0308 -0.9657
   51CHL1  H19C 3743   5.771   5.473   7.213  0.9913 -1.1152  1.2440
   51CHL1    C1 3744   5.959   5.247   7.011  0.3244 -0.1621 -0.1000
   51CHL1   H1A 3745   6.053   5.303   6.997  0.6345 -0.5531  0.3947
   51CHL1   H1B 3746   5.998   5.144   7.026  0.7382 -0.1081 -0.8061
   51CHL1    C2 3747   5.872   5.231   6.884  0.2052  0.7971 -0.2429
   51CHL1   H2A 3748   5.942   5.196   6.805 -1.8990 -1.4413 -1.2534
   51CHL1   H2B 3749   5.817   5.322   6.851 -1.0606 -0.6846 -2.5242
   51CHL1   C20 3750   6.239   5.455   7.722 -0.2002  0.0743 -0.7430
   51CHL1   H20 3751   6.207   5.557   7.690 -2.5657 -0.5771 -0.6548
   51CHL1   C21 3752   6.381   5.434   7.659  0.0445 -0.7675  0.1778
   51CHL1  H21A 3753   6.403   5.325   7.671  1.2414 -0.3717  2.0099
   51CHL1  H21B 3754   6.460   5.494   7.709 -0.7184  0.0564  0.4252
   51CHL1  H21C 3755   6.379   5.460   7.552 -0.6383 -0.6847  0.2009
   51CHL1   C22 3756   6.237   5.480   7.875  0.1318  0.8249 -0.7638
   51CHL1  H22A 3757   6.139   5.507   7.919  1.7533  3.4361  1.5544
   51CHL1  H22B 3758   6.262   5.380   7.917  0.7785  1.1292 -0.4051
   51CHL1   C23 3759   6.339   5.583   7.924 -0.1313  0.0144  0.2685
   51CHL1  H23A 3760   6.440   5.540   7.907 -0.0764 -0.8292  2.4257
   51CHL1  H23B 3761   6.327   5.680   7.871  0.5333 -1.0008 -1.8391
   51CHL1   C24 3762   6.332   5.608   8.078 -0.0525  0.2051  0.1056
   51CHL1  H24A 3763   6.358   5.709   8.117  2.4023 -0.8518  1.4190
   51CHL1  H24B 3764   6.226   5.602   8.110  0.3700  3.0429  2.4799
   51CHL1   C25 3765   6.432   5.510   8.159 -0.8298  0.3812 -0.0067
   51CHL1   H25 3766   6.534   5.549   8.139 -1.0346 -0.0226 -2.0352
   51CHL1   C26 3767   6.415   5.544   8.313  0.2353 -0.0535 -0.3585
   51CHL1  H26A 3768   6.453   5.647   8.333 -3.2669  0.9674  1.9621
   51CHL1  H26B 3769   6.308   5.525   8.337  0.2163 -0.0926 -0.4761
   51CHL1  H26C 3770   6.477   5.479   8.379 -0.9594  0.9314  1.8480
   51CHL1   C27 3771   6.415   5.362   8.146  0.4490  0.7877  0.8360
   51CHL1  H27A 3772   6.452   5.324   8.048 -1.7820 -0.3447  0.3608
   51CHL1  H27B 3773   6.457   5.304   8.230 -0.6562  0.5134  1.2137
   51CHL1  H27C 3774   6.305   5.350   8.140  0.5928 -2.9481  3.0928
   52CHL1    C3 3775   3.344   6.373   6.710  0.0486 -0.4927 -0.3586
   52CHL1    H3 3776   3.316   6.477   6.739  1.3506 -0.0961 -0.4330
   52CHL1    O3 3777   3.379   6.377   6.571  0.2738 -0.5594 -0.0624
   52CHL1   H3' 3778   3.346   6.294   6.535 -0.9984 -0.2591  0.3507
   52CHL1    C4 3779   3.470   6.320   6.781 -0.1756 -0.5995 -0.7463
   52CHL1   H4A 3780   3.492   6.215   6.753 -0.3890 -1.2027  1.2323
   52CHL1   H4B 3781   3.551   6.379   6.732  1.8960 -2.1087  0.7014
   52CHL1    C5 3782   3.444   6.321   6.930  0.2750 -0.9385  0.1724
   52CHL1    C6 3783   3.521   6.398   7.013  0.5871  0.5455 -0.9465
   52CHL1    H6 3784   3.601   6.457   6.965  0.8268  0.6521 -0.4141
   52CHL1    C7 3785   3.503   6.411   7.166 -0.8526 -0.6533  0.6149
   52CHL1   H7A 3786   3.594   6.403   7.229 -0.9591 -0.5776  0.7814
   52CHL1   H7B 3787   3.473   6.516   7.185 -1.5101 -0.7171 -0.0120
   52CHL1    C8 3788   3.396   6.312   7.220 -0.6639  0.2469 -0.6679
   52CHL1    H8 3789   3.454   6.218   7.230  3.3194  2.6901  2.4641
   52CHL1   C14 3790   3.343   6.364   7.348  0.0992  0.8286 -0.2647
   52CHL1   H14 3791   3.283   6.452   7.316  1.2264  2.9482  3.0305
   52CHL1   C15 3792   3.431   6.417   7.455  0.6820 -0.1672  0.8768
   52CHL1  H15A 3793   3.525   6.358   7.456 -0.3421 -1.8712  1.8005
   52CHL1  H15B 3794   3.453   6.525   7.437  1.6821 -0.5178 -0.1342
   52CHL1   C16 3795   3.351   6.404   7.586  0.4437 -0.0092 -0.3293
   52CHL1  H16A 3796   3.413   6.341   7.653 -0.6058 -1.3483 -0.5651
   52CHL1  H16B 3797   3.341   6.504   7.632  3.1483  0.1287  0.0645
   52CHL1   C17 3798   3.212   6.336   7.552 -0.2348 -0.3018  0.1635
   52CHL1   H17 3799   3.148   6.420   7.519 -1.0293 -1.3010 -0.9497
   52CHL1   C13 3800   3.248   6.266   7.416  0.5690 -0.1575  0.0234
   52CHL1   C18 3801   3.315   6.135   7.451 -0.7801 -0.2962  0.6846
   52CHL1  H18A 3802   3.344   6.077   7.361  0.2871  0.2572  0.6552
   52CHL1  H18B 3803   3.409   6.155   7.507  0.4842 -0.8838 -1.1292
   52CHL1  H18C 3804   3.248   6.072   7.513 -0.3321  0.1359  1.6239
   52CHL1   C12 3805   3.126   6.238   7.331 -0.1367  0.2665  0.3572
   52CHL1  H12A 3806   3.067   6.158   7.380 -1.8740 -0.3352 -2.5173
   52CHL1  H12B 3807   3.055   6.322   7.320  0.1247  0.4955  0.3987
   52CHL1   C11 3808   3.163   6.193   7.188 -0.3515 -0.8729  0.1008
   52CHL1  H11A 3809   3.209   6.094   7.206  2.9923  0.8989  2.1154
   52CHL1  H11B 3810   3.067   6.186   7.132  0.7938 -2.0344 -1.8224
   52CHL1    C9 3811   3.281   6.281   7.123  0.1433  0.3148  0.2189
   52CHL1    H9 3812   3.227   6.378   7.117  0.8279  0.7581  0.9644
   52CHL1   C10 3813   3.321   6.242   6.976  0.3676  0.0451  0.7667
   52CHL1   C19 3814   3.344   6.092   6.976 -0.0967  0.2563 -0.4755
   52CHL1  H19A 3815   3.430   6.073   7.044 -1.4389  1.8295  1.7939
   52CHL1  H19B 3816   3.264   6.025   7.015 -0.0795 -0.3807 -1.4861
   52CHL1  H19C 3817   3.366   6.063   6.871  1.3326 -1.7496  0.3075
   52CHL1    C1 3818   3.205   6.271   6.886 -0.5270  0.4415  0.9824
   52CHL1   H1A 3819   3.129   6.198   6.919 -0.6081  0.0945  0.0683
   52CHL1   H1B 3820   3.172   6.375   6.904 -0.7166  0.5526  0.0250
   52CHL1    C2 3821   3.239   6.267   6.738 -0.3756  0.4152  0.4305
   52CHL1   H2A 3822   3.148   6.289   6.677 -0.1947 -0.5217 -0.2030
   52CHL1   H2B 3823   3.269   6.167   6.700 -1.5102 -0.3143  1.3881
   52CHL1   C20 3824   3.144   6.263   7.673 -0.4443  0.0013 -0.6811
   52CHL1   H20 3825   3.200   6.174   7.708 -2.8163 -0.1376  3.4693
   52CHL1   C21 3826   2.999   6.222   7.633  0.4824  0.3548 -0.2138
   52CHL1  H21A 3827   2.938   6.304   7.591  0.3523  0.4475  0.1514
   52CHL1  H21B 3828   2.934   6.193   7.718  0.5295 -1.3087 -0.7048
   52CHL1  H21C 3829   2.998   6.129   7.572  2.0976  0.1118  0.0857
   52CHL1   C22 3830   3.135   6.363   7.792 -0.0088  0.3959 -0.2932
   52CHL1  H22A 3831   3.176   6.461   7.759  0.8672 -0.5941 -2.2804
   52CHL1  H22B 3832   3.028   6.379   7.819  0.1304  1.2085 -0.1880
   52CHL1   C23 3833   3.232   6.326   7.905 -0.0435 -0.1645 -0.0225
   52CHL1  H23A 3834   3.228   6.223   7.947  2.6080  0.1441  1.2174
   52CHL1  H23B 3835   3.334   6.334   7.862  0.7055  1.1620  1.9109
   52CHL1   C24 3836   3.230   6.437   8.016 -0.1918  0.2221 -0.0025
   52CHL1  H24A 3837   3.259   6.536   7.976  0.8585 -0.9002 -2.2043
   52CHL1  H24B 3838   3.129   6.432   8.063  0.5220  2.0926  1.8217
   52CHL1   C25 3839   3.330   6.414   8.137 -0.5682  1.4409  0.2027
   52CHL1   H25 3840   3.430   6.409   8.088 -2.0796  0.0744 -3.0383
   52CHL1   C26 3841   3.331   6.526   8.241  0.2564  0.2646 -0.2342
   52CHL1  H26A 3842   3.362   6.621   8.193  1.4805  0.2604  0.5198
   52CHL1  H26B 3843   3.231   6.544   8.288 -0.1436  0.7043 -1.2253
   52CHL1  H26C 3844   3.402   6.502   8.323  2.0966  0.8990 -1.5892
   52CHL1   C27 3845   3.307   6.279   8.211  0.0921  0.6253  0.6126
   52CHL1  H27A 3846   3.373   6.267   8.300  0.9331  1.5640  0.1369
   52CHL1  H27B 3847   3.204   6.271   8.253 -1.2202 -0.3059 -2.5292
   52CHL1  H27C 3848   3.306   6.194   8.140  1.0546  1.1483 -0.0429
   53CHL1    C3 3849   0.150   2.015   6.799 -1.3508 -0.2682  0.1697
   53CHL1    H3 3850   0.211   2.024   6.891  0.0989 -0.1351 -0.7815
   53CHL1    O3 3851   0.234   2.008   6.685  0.4967  0.0584  0.0191
   53CHL1   H3' 3852   0.188   1.948   6.626 -1.5777  2.5025 -1.0410
   53CHL1    C4 3853   0.066   1.887   6.802  0.5560 -0.2715 -0.1683
   53CHL1   H4A 3854   0.003   1.886   6.710 -1.2376 -1.2461  1.0074
   53CHL1   H4B 3855   0.129   1.795   6.798 -1.9809 -2.1228 -4.0177
   53CHL1    C5 3856  -0.041   1.887   6.911  0.0211  0.5458 -0.0432
   53CHL1    C6 3857  -0.045   1.787   6.996  0.2671 -0.0436 -0.0171
   53CHL1    H6 3858   0.030   1.707   7.001  0.5846  0.1864 -0.9064
   53CHL1    C7 3859  -0.147   1.776   7.107 -0.2236  0.1470  0.3641
   53CHL1   H7A 3860  -0.188   1.675   7.128  0.7377 -1.1467 -3.3625
   53CHL1   H7B 3861  -0.090   1.798   7.200 -2.1084 -0.6649  1.7711
   53CHL1    C8 3862  -0.270   1.871   7.089  0.6329  0.1980  0.0248
   53CHL1    H8 3863  -0.343   1.823   7.020  0.9238 -1.4179  0.8050
   53CHL1   C14 3864  -0.343   1.888   7.221 -0.1281  0.5396 -0.1813
   53CHL1   H14 3865  -0.263   1.929   7.287 -1.2908  1.7498  0.5314
   53CHL1   C15 3866  -0.393   1.765   7.296 -0.9397  0.4479  0.4633
   53CHL1  H15A 3867  -0.440   1.688   7.231 -0.1819 -0.0114  0.4562
   53CHL1  H15B 3868  -0.314   1.698   7.337  2.0262 -0.2146 -5.3509
   53CHL1   C16 3869  -0.497   1.820   7.398  0.3801  0.4593  0.3358
   53CHL1  H16A 3870  -0.590   1.767   7.369  1.5174 -1.4567 -0.0159
   53CHL1  H16B 3871  -0.476   1.800   7.505  1.8708 -0.3864 -0.0780
   53CHL1   C17 3872  -0.520   1.972   7.365  0.2273 -0.7305  0.0439
   53CHL1   H17 3873  -0.467   2.037   7.437 -0.5556  0.4767 -0.4305
   53CHL1   C13 3874  -0.463   1.985   7.220 -0.4258 -0.3665 -0.5141
   53CHL1   C18 3875  -0.577   1.940   7.126 -0.5606 -0.0938  0.4251
   53CHL1  H18A 3876  -0.650   2.023   7.120 -0.2496  0.1697  0.2981
   53CHL1  H18B 3877  -0.548   1.932   7.019  0.5116  0.1903  0.6805
   53CHL1  H18C 3878  -0.628   1.847   7.160 -1.2420  0.5104  1.1108
   53CHL1   C12 3879  -0.413   2.126   7.174 -0.2929  0.5787 -0.8519
   53CHL1  H12A 3880  -0.495   2.202   7.175  0.5708  1.5258 -0.3834
   53CHL1  H12B 3881  -0.338   2.166   7.245 -0.7173  1.8065 -1.0668
   53CHL1   C11 3882  -0.339   2.119   7.041  0.1825  0.0199  0.6238
   53CHL1  H11A 3883  -0.413   2.082   6.967  0.5909  0.4927 -0.0354
   53CHL1  H11B 3884  -0.310   2.225   7.021  1.6073 -0.3530  0.6070
   53CHL1    C9 3885  -0.226   2.010   7.038  0.3138  0.1428  0.2991
   53CHL1    H9 3886  -0.160   2.049   7.118 -0.2233  0.2399  0.7035
   53CHL1   C10 3887  -0.138   2.004   6.916  0.4677 -0.4127 -0.4979
   53CHL1   C19 3888  -0.233   2.004   6.793 -0.1921  0.1808 -0.3021
   53CHL1  H19A 3889  -0.308   1.923   6.800  1.2861 -1.1033  2.3744
   53CHL1  H19B 3890  -0.275   2.107   6.784 -0.3995  0.0851 -0.4153
   53CHL1  H19C 3891  -0.167   1.990   6.705  1.1309 -0.8650  0.8112
   53CHL1    C1 3892  -0.045   2.133   6.908 -0.3205 -0.2024  0.2945
   53CHL1   H1A 3893  -0.108   2.224   6.893  0.1148  0.1772  0.7308
   53CHL1   H1B 3894   0.011   2.137   7.004  0.1151 -1.9981  0.1403
   53CHL1    C2 3895   0.063   2.138   6.796  0.0477 -0.1350  0.3084
   53CHL1   H2A 3896   0.116   2.235   6.781  0.9572 -1.0395 -3.3866
   53CHL1   H2B 3897   0.002   2.133   6.703 -1.1758 -1.3175  1.1471
   53CHL1   C20 3898  -0.660   2.034   7.392 -0.1102  0.5416  0.4862
   53CHL1   H20 3899  -0.734   1.990   7.322  0.1769  0.2192  0.3817
   53CHL1   C21 3900  -0.686   2.187   7.370 -1.1656  0.2169  0.2711
   53CHL1  H21A 3901  -0.787   2.218   7.405 -0.0363  1.0987  3.0270
   53CHL1  H21B 3902  -0.680   2.212   7.262  0.3377 -1.1359  0.0055
   53CHL1  H21C 3903  -0.606   2.235   7.431 -0.9165 -1.5323  1.3942
   53CHL1   C22 3904  -0.706   2.001   7.539  0.2272 -0.0296  0.1833
   53CHL1  H22A 3905  -0.807   2.048   7.539 -0.0007 -0.5151 -0.5776
   53CHL1  H22B 3906  -0.725   1.891   7.537 -2.8017  0.3169  2.3513
   53CHL1   C23 3907  -0.634   2.061   7.661 -0.3895  0.6777 -1.0395
   53CHL1  H23A 3908  -0.533   2.015   7.670 -1.1265 -0.5113  2.8275
   53CHL1  H23B 3909  -0.630   2.166   7.625 -0.8831  1.2958  0.6138
   53CHL1   C24 3910  -0.718   2.054   7.787 -0.2539  0.2632  0.1706
   53CHL1  H24A 3911  -0.808   2.119   7.787  1.6346  3.0421  0.7063
   53CHL1  H24B 3912  -0.744   1.953   7.826  3.2810 -0.9212 -0.1556
   53CHL1   C25 3913  -0.637   2.107   7.913 -0.1607  0.1996  0.1369
   53CHL1   H25 3914  -0.712   2.098   7.995 -1.6941  2.7171 -0.8646
   53CHL1   C26 3915  -0.521   2.014   7.932 -0.5043  0.1406  0.1176
   53CHL1  H26A 3916  -0.567   1.913   7.922 -0.1323  0.0081 -0.2744
   53CHL1  H26B 3917  -0.440   2.025   7.857 -1.1365 -1.5593 -0.8779
   53CHL1  H26C 3918  -0.471   2.028   8.031  0.5703 -0.3228 -0.3411
   53CHL1   C27 3919  -0.587   2.251   7.901  0.4309  0.0869  0.0254
   53CHL1  H27A 3920  -0.534   2.270   7.805 -2.3572 -0.6630 -1.7955
   53CHL1  H27B 3921  -0.675   2.318   7.917  1.5565  1.0675  2.7333
   53CHL1  H27C 3922  -0.524   2.279   7.988  1.1787 -0.6803 -0.2605
   54CHL1    C3 3923   5.712   5.939   6.602  0.2155  0.2070  0.1001
   54CHL1    H3 3924   5.686   6.044   6.626  0.6449  0.3748 -0.1719
   54CHL1    O3 3925   5.738   5.928   6.460  0.7164 -0.0771 -0.7620
   54CHL1   H3' 3926   5.657   5.906   6.414 -0.3721  0.8410  0.6316
   54CHL1    C4 3927   5.842   5.907   6.681  0.8165 -0.1340 -0.7037
   54CHL1   H4A 3928   5.876   5.802   6.664 -0.7583 -0.8853  0.5291
   54CHL1   H4B 3929   5.924   5.974   6.646  0.7194  0.1245 -0.4321
   54CHL1    C5 3930   5.815   5.919   6.834  0.0418  1.0094  0.1915
   54CHL1    C6 3931   5.888   6.007   6.907  0.0920  0.7478 -0.2163
   54CHL1    H6 3932   5.968   6.073   6.869  0.8522 -0.9750 -1.8082
   54CHL1    C7 3933   5.863   6.024   7.053  0.1747  0.0656 -0.1191
   54CHL1   H7A 3934   5.968   6.029   7.087  0.5382 -0.9896 -1.0253
   54CHL1   H7B 3935   5.807   6.117   7.077 -0.9726 -0.8709  0.9904
   54CHL1    C8 3936   5.777   5.906   7.118 -0.3077 -0.4775 -0.5454
   54CHL1    H8 3937   5.860   5.833   7.124  1.8944  1.9195 -0.3875
   54CHL1   C14 3938   5.727   5.944   7.261 -0.9357  0.0558 -0.1953
   54CHL1   H14 3939   5.661   6.032   7.245 -0.2816  1.3608  3.3372
   54CHL1   C15 3940   5.828   5.987   7.373  0.8384 -0.0782  0.1389
   54CHL1  H15A 3941   5.916   5.919   7.365  0.2563 -0.8510  0.2071
   54CHL1  H15B 3942   5.866   6.091   7.368 -0.9759  0.8039  2.6707
   54CHL1   C16 3943   5.754   5.969   7.505 -0.2754 -0.1840 -0.1950
   54CHL1  H16A 3944   5.819   5.906   7.571  0.2051  0.5695  0.0636
   54CHL1  H16B 3945   5.732   6.057   7.569 -0.6345 -1.5722  1.6884
   54CHL1   C17 3946   5.620   5.904   7.465  0.3914  0.4063  0.3156
   54CHL1   H17 3947   5.551   5.989   7.443 -0.6019 -0.4848 -0.1114
   54CHL1   C13 3948   5.643   5.840   7.333 -0.4242 -0.0519 -0.2120
   54CHL1   C18 3949   5.723   5.706   7.355 -0.3146 -0.2536  0.2084
   54CHL1  H18A 3950   5.672   5.631   7.420 -0.9801 -1.8354 -2.0306
   54CHL1  H18B 3951   5.751   5.658   7.259 -1.0500  0.7647 -0.5482
   54CHL1  H18C 3952   5.820   5.724   7.406 -1.7036  0.8038  2.6466
   54CHL1   C12 3953   5.519   5.811   7.249 -0.0061  0.7622 -0.3030
   54CHL1  H12A 3954   5.460   5.728   7.294 -4.3470  2.9436 -1.4824
   54CHL1  H12B 3955   5.465   5.907   7.241 -0.2659  0.7434  0.9912
   54CHL1   C11 3956   5.548   5.776   7.100  0.1393  0.3065  0.0179
   54CHL1  H11A 3957   5.593   5.675   7.105  2.1726  1.1792  0.8620
   54CHL1  H11B 3958   5.455   5.768   7.041 -0.7082  3.4956  0.7106
   54CHL1    C9 3959   5.656   5.875   7.034  0.0185 -0.1437  0.3189
   54CHL1    H9 3960   5.592   5.965   7.029 -0.8148 -0.7505 -0.3570
   54CHL1   C10 3961   5.691   5.834   6.885 -0.5755  0.0517  1.1018
   54CHL1   C19 3962   5.733   5.685   6.888  1.0406 -0.2121  0.2262
   54CHL1  H19A 3963   5.799   5.667   6.976 -0.9238 -3.7327  1.1642
   54CHL1  H19B 3964   5.640   5.626   6.902  1.3432 -1.0911 -1.2540
   54CHL1  H19C 3965   5.786   5.644   6.800  0.2697 -2.1850  0.6340
   54CHL1    C1 3966   5.569   5.855   6.791  0.1677 -0.0183 -0.2157
   54CHL1   H1A 3967   5.487   5.788   6.824 -0.1942  0.3954 -0.2686
   54CHL1   H1B 3968   5.532   5.955   6.821  0.4098 -0.9371  3.7332
   54CHL1    C2 3969   5.600   5.838   6.639  0.3763 -0.1644  0.1640
   54CHL1   H2A 3970   5.512   5.857   6.574  0.4243 -0.2697  0.0669
   54CHL1   H2B 3971   5.626   5.730   6.632 -0.6972 -0.4645  0.5686
   54CHL1   C20 3972   5.543   5.829   7.578 -0.1477  0.0158  0.1894
   54CHL1   H20 3973   5.571   5.722   7.578 -0.9493 -0.2939 -2.7009
   54CHL1   C21 3974   5.386   5.836   7.545 -0.6362 -0.7930 -0.3186
   54CHL1  H21A 3975   5.335   5.810   7.640  2.4564  2.5232  2.5430
   54CHL1  H21B 3976   5.362   5.751   7.477 -1.9751  0.3821 -1.3672
   54CHL1  H21C 3977   5.359   5.939   7.515 -1.5991 -1.6134 -2.5132
   54CHL1   C22 3978   5.563   5.894   7.720 -0.0372 -0.7002 -0.6799
   54CHL1  H22A 3979   5.495   5.834   7.783 -2.1103  1.3819 -0.8038
   54CHL1  H22B 3980   5.664   5.867   7.759 -0.1039  0.6425  0.5380
   54CHL1   C23 3981   5.525   6.043   7.745  0.6167  0.4332 -0.0488
   54CHL1  H23A 3982   5.558   6.096   7.654  3.0974  1.0354  1.1171
   54CHL1  H23B 3983   5.415   6.049   7.757  0.6627 -0.6374  1.1102
   54CHL1   C24 3984   5.598   6.105   7.865  0.2802  0.1868  0.4421
   54CHL1  H24A 3985   5.705   6.080   7.850  0.3534 -0.2598  1.6264
   54CHL1  H24B 3986   5.586   6.215   7.876  1.6889  0.5208 -1.0059
   54CHL1   C25 3987   5.569   6.029   7.995 -0.3132 -0.1264  0.7621
   54CHL1   H25 3988   5.596   5.925   7.966 -0.3357  0.3278 -1.0339
   54CHL1   C26 3989   5.665   6.087   8.108 -0.1023 -0.1946  0.1545
   54CHL1  H26A 3990   5.629   6.183   8.151 -0.1367 -1.2204  2.5688
   54CHL1  H26B 3991   5.670   6.008   8.185 -0.2552 -1.0638 -0.7102
   54CHL1  H26C 3992   5.766   6.099   8.063 -0.2209 -1.2726 -0.4249
   54CHL1   C27 3993   5.418   6.034   8.037 -0.0152 -0.4653 -0.1822
   54CHL1  H27A 3994   5.406   5.991   8.138  2.7552  0.0337  0.4224
   54CHL1  H27B 3995   5.368   6.133   8.034 -0.6386 -0.7691 -0.0830
   54CHL1  H27C 3996   5.358   5.973   7.966  0.7749  1.6469 -2.8595
   55CHL1    C3 3997   4.853   0.257   6.716 -0.1056  0.3374  0.5471
   55CHL1    H3 3998   4.752   0.227   6.753 -0.3811  0.0142 -0.4324
   55CHL1    O3 3999   4.851   0.266   6.577 -0.4320 -0.6282 -0.0902
   55CHL1   H3' 4000   4.944   0.273   6.553 -0.4343 -0.5149 -0.0660
   55CHL1    C4 4001   4.897   0.387   6.779 -1.1581  0.6873  0.0228
   55CHL1   H4A 4002   4.994   0.411   6.732 -1.5280  4.0554  0.7360
   55CHL1   H4B 4003   4.828   0.465   6.740  1.0755  2.3051 -0.8274
   55CHL1    C5 4004   4.911   0.385   6.926  0.3018 -0.1858  0.1130
   55CHL1    C6 4005   4.856   0.483   6.998 -0.6177  0.6592  0.0059
   55CHL1    H6 4006   4.797   0.563   6.951  0.3224  1.9047  0.8717
   55CHL1    C7 4007   4.867   0.500   7.148 -0.7331  0.1788  0.1914
   55CHL1   H7A 4008   4.897   0.604   7.174  0.5418  0.2597 -1.4180
   55CHL1   H7B 4009   4.771   0.480   7.199 -2.5449  1.6137 -2.3962
   55CHL1    C8 4010   4.981   0.407   7.203  0.4387  0.3354  0.5621
   55CHL1    H8 4011   5.082   0.451   7.192  0.4051  0.7766  1.8574
   55CHL1   C14 4012   4.961   0.392   7.355  0.4535 -0.0620  0.5588
   55CHL1   H14 4013   4.858   0.352   7.366  0.6081 -0.6176  0.0324
   55CHL1   C15 4014   4.951   0.518   7.442 -0.3202 -0.3751 -0.2353
   55CHL1  H15A 4015   5.044   0.568   7.406  0.1372 -0.9739  0.1067
   55CHL1  H15B 4016   4.870   0.593   7.425  0.9663  1.3796  0.9445
   55CHL1   C16 4017   4.967   0.466   7.588 -0.3239  1.0157  0.2080
   55CHL1  H16A 4018   5.047   0.521   7.642  0.0246  1.1768 -0.4729
   55CHL1  H16B 4019   4.867   0.469   7.638 -0.0733 -1.3936  1.0038
   55CHL1   C17 4020   5.011   0.319   7.576  0.2600 -0.0817 -0.4831
   55CHL1   H17 4021   4.917   0.260   7.586  1.1442 -1.3087  0.9775
   55CHL1   C13 4022   5.063   0.304   7.425  0.3865  0.8283  0.5125
   55CHL1   C18 4023   5.201   0.368   7.422  0.4424  0.2863 -0.4296
   55CHL1  H18A 4024   5.275   0.296   7.463 -0.0362  1.2739  2.4359
   55CHL1  H18B 4025   5.236   0.395   7.320  0.3197 -3.7113 -1.6925
   55CHL1  H18C 4026   5.204   0.456   7.489  0.5623  0.3715 -0.5481
   55CHL1   C12 4027   5.049   0.167   7.359 -0.2616  0.1240 -0.7501
   55CHL1  H12A 4028   5.116   0.091   7.404  0.0198 -1.6073 -3.8293
   55CHL1  H12B 4029   4.945   0.135   7.383  0.9298 -2.0124  2.2390
   55CHL1   C11 4030   5.073   0.173   7.210 -0.1335  0.0504 -0.1591
   55CHL1  H11A 4031   5.181   0.196   7.202  0.5375 -2.1409  1.6275
   55CHL1  H11B 4032   5.059   0.069   7.172 -2.0480 -0.0605  0.7231
   55CHL1    C9 4033   4.983   0.267   7.141 -0.0269  0.0557 -0.2343
   55CHL1    H9 4034   4.878   0.232   7.152  0.1196  0.2108  2.2521
   55CHL1   C10 4035   4.994   0.273   6.986 -0.3577 -0.1038  0.4869
   55CHL1   C19 4036   5.143   0.293   6.948  0.3445  0.1229 -0.5479
   55CHL1  H19A 4037   5.195   0.197   6.967  1.4974  1.4183  4.2637
   55CHL1  H19B 4038   5.161   0.324   6.843  0.8624 -1.4251 -0.9490
   55CHL1  H19C 4039   5.190   0.354   7.028 -3.6647  0.6213  1.6932
   55CHL1    C1 4040   4.946   0.135   6.926  0.2147 -0.6234 -0.8144
   55CHL1   H1A 4041   5.015   0.057   6.965  1.0466  0.5668  0.1656
   55CHL1   H1B 4042   4.844   0.106   6.959  0.0381  1.5932  0.7204
   55CHL1    C2 4043   4.944   0.138   6.768  0.4227  0.5111 -0.3284
   55CHL1   H2A 4044   4.900   0.047   6.721  2.3172 -0.3234 -0.6110
   55CHL1   H2B 4045   5.047   0.157   6.729  1.9125 -1.1565  2.4958
   55CHL1   C20 4046   5.089   0.265   7.690  0.3196 -0.3139  0.3435
   55CHL1   H20 4047   5.190   0.312   7.702 -0.2855  0.7392  1.6919
   55CHL1   C21 4048   5.129   0.112   7.675 -0.9265 -0.8107 -0.2344
   55CHL1  H21A 4049   5.185   0.073   7.763 -0.6103 -0.5812 -0.3334
   55CHL1  H21B 4050   5.194   0.099   7.585  0.3667  3.2154 -0.1043
   55CHL1  H21C 4051   5.038   0.051   7.658 -0.3456 -1.0574 -2.8599
   55CHL1   C22 4052   5.027   0.296   7.827 -0.0998  0.3642 -0.7783
   55CHL1  H22A 4053   5.108   0.287   7.903 -1.1751 -1.1598  0.2344
   55CHL1  H22B 4054   4.983   0.398   7.830  0.1471  0.5181 -2.0359
   55CHL1   C23 4055   4.913   0.215   7.868 -0.1237  0.1477 -0.9215
   55CHL1  H23A 4056   4.843   0.206   7.783  0.2267 -0.2615 -1.1696
   55CHL1  H23B 4057   4.941   0.111   7.897  0.5712  0.8399  1.0841
   55CHL1   C24 4058   4.841   0.274   8.002  0.2718  0.1002  0.3598
   55CHL1  H24A 4059   4.919   0.296   8.078  1.5892 -0.3039 -0.8256
   55CHL1  H24B 4060   4.791   0.368   7.970  0.6428 -0.0675 -0.7394
   55CHL1   C25 4061   4.737   0.176   8.069  0.5050  0.9142 -0.0758
   55CHL1   H25 4062   4.664   0.134   7.996 -0.8384 -0.6894  2.0808
   55CHL1   C26 4063   4.815   0.066   8.158 -0.1794  0.5454  0.0875
   55CHL1  H26A 4064   4.747  -0.006   8.208  2.3504  0.2046  3.3671
   55CHL1  H26B 4065   4.869  -0.008   8.094 -2.6014 -0.3077 -1.0680
   55CHL1  H26C 4066   4.890   0.104   8.230  1.6399 -4.5381  1.3495
   55CHL1   C27 4067   4.652   0.265   8.176 -0.0771  0.5592  0.1306
   55CHL1  H27A 4068   4.722   0.329   8.233  1.7823 -2.1853  1.1215
   55CHL1  H27B 4069   4.590   0.332   8.112  0.0141 -0.3253 -0.9283
   55CHL1  H27C 4070   4.597   0.200   8.248 -0.2204 -1.6454 -1.8268
   56CHL1    C3 4071   6.637   4.008   6.528  0.9942 -0.6679  0.5824
   56CHL1    H3 4072   6.567   3.923   6.543  0.0316  0.0744  0.4212
   56CHL1    O3 4073   6.637   4.026   6.391  0.1907 -0.6900  0.3235
   56CHL1   H3' 4074   6.563   4.086   6.375  0.4375 -0.6055 -0.5614
   56CHL1    C4 4075   6.581   4.135   6.602 -0.0387 -0.2012  0.9978
   56CHL1   H4A 4076   6.641   4.217   6.559  0.2955 -0.6718  0.5627
   56CHL1   H4B 4077   6.480   4.156   6.561 -0.6270 -0.4066  2.2741
   56CHL1    C5 4078   6.592   4.126   6.756 -0.1294 -0.1405  0.3854
   56CHL1    C6 4079   6.485   4.139   6.835 -0.0870  0.1688 -0.5858
   56CHL1    H6 4080   6.388   4.151   6.784 -0.2027  1.0956 -0.1580
   56CHL1    C7 4081   6.491   4.131   6.986 -0.0056 -0.0264 -0.7274
   56CHL1   H7A 4082   6.436   4.217   7.030 -0.5902  0.9507 -3.2037
   56CHL1   H7B 4083   6.440   4.038   7.018 -1.6128  0.8842 -0.4879
   56CHL1    C8 4084   6.640   4.124   7.045 -0.2485  0.3835  0.4240
   56CHL1    H8 4085   6.675   4.229   7.040 -1.6965  1.1380  3.3947
   56CHL1   C14 4086   6.636   4.079   7.189 -0.1498 -0.3826  0.9540
   56CHL1   H14 4087   6.586   3.980   7.192  1.5275 -1.3333 -0.4223
   56CHL1   C15 4088   6.553   4.158   7.289 -0.3532  0.2678 -0.3794
   56CHL1  H15A 4089   6.545   4.269   7.284 -1.3953  0.3334  1.7974
   56CHL1  H15B 4090   6.446   4.128   7.284 -0.4925  0.1393  2.1482
   56CHL1   C16 4091   6.612   4.120   7.425  0.6798 -0.1863 -0.8519
   56CHL1  H16A 4092   6.631   4.215   7.478  1.9064 -0.3989 -0.8694
   56CHL1  H16B 4093   6.545   4.064   7.494  1.7534  0.5418  0.8444
   56CHL1   C17 4094   6.731   4.027   7.401 -0.2265  0.2488 -0.2356
   56CHL1   H17 4095   6.682   3.927   7.395 -1.7325  0.9724 -0.3849
   56CHL1   C13 4096   6.774   4.056   7.256  0.2169  0.4136  0.1819
   56CHL1   C18 4097   6.852   4.190   7.256  0.6788  0.0068  0.9209
   56CHL1  H18A 4098   6.872   4.228   7.154 -0.7278 -0.5105  0.4310
   56CHL1  H18B 4099   6.799   4.264   7.320  2.0583 -0.4479  2.7037
   56CHL1  H18C 4100   6.951   4.181   7.306  0.7639  0.9261  0.9321
   56CHL1   C12 4101   6.843   3.944   7.171 -0.3049 -0.6404  0.0380
   56CHL1  H12A 4102   6.944   3.925   7.213 -0.7858 -0.3738  1.3697
   56CHL1  H12B 4103   6.783   3.850   7.172 -2.9512  0.9259  2.1642
   56CHL1   C11 4104   6.850   3.994   7.029  0.5348 -0.0307  0.1143
   56CHL1  H11A 4105   6.931   4.070   7.033  1.5972 -1.1839  1.7703
   56CHL1  H11B 4106   6.902   3.922   6.962 -1.9834 -1.9568  0.0826
   56CHL1    C9 4107   6.722   4.028   6.958  0.0076 -1.0250  0.5673
   56CHL1    H9 4108   6.658   3.937   6.951 -2.1393  0.5454 -3.2525
   56CHL1   C10 4109   6.728   4.083   6.815 -0.2215  0.6760 -0.2754
   56CHL1   C19 4110   6.831   4.200   6.802 -0.0965 -0.1683 -0.5788
   56CHL1  H19A 4111   6.841   4.224   6.694 -0.7467 -0.5088 -0.7215
   56CHL1  H19B 4112   6.803   4.290   6.862  2.3131 -0.1144  0.5962
   56CHL1  H19C 4113   6.931   4.164   6.836 -0.4758 -1.5523 -0.8875
   56CHL1    C1 4114   6.772   3.968   6.723 -0.1975  1.2258  0.5381
   56CHL1   H1A 4115   6.879   3.943   6.742 -0.4486  0.3992  0.9149
   56CHL1   H1B 4116   6.711   3.878   6.747 -1.5214  2.3414  1.5206
   56CHL1    C2 4117   6.772   3.977   6.573  0.0929  0.3173  0.0841
   56CHL1   H2A 4118   6.810   3.881   6.534  3.4937  0.8295  1.7751
   56CHL1   H2B 4119   6.841   4.057   6.539 -0.7052  0.2800 -1.7548
   56CHL1   C20 4120   6.833   4.022   7.518  0.5464  0.0151  0.1987
   56CHL1   H20 4121   6.858   4.130   7.528  0.1593  0.1355 -0.0724
   56CHL1   C21 4122   6.957   3.941   7.480  0.4679  0.1009 -0.1539
   56CHL1  H21A 4123   7.018   4.005   7.413 -3.7101  1.5253 -2.9893
   56CHL1  H21B 4124   6.925   3.843   7.440  2.0417  0.6348 -2.9636
   56CHL1  H21C 4125   7.016   3.928   7.574  1.6339  0.3704 -0.8306
   56CHL1   C22 4126   6.779   3.975   7.655  0.0259 -0.0426  0.1449
   56CHL1  H22A 4127   6.868   3.993   7.719  0.3388 -0.1031 -0.2666
   56CHL1  H22B 4128   6.700   4.045   7.690  0.1875  1.6462 -2.5492
   56CHL1   C23 4129   6.722   3.830   7.664 -0.1814 -0.1106  0.4840
   56CHL1  H23A 4130   6.623   3.821   7.615 -0.0855 -0.6200  0.3786
   56CHL1  H23B 4131   6.791   3.763   7.609  0.7674  1.2523 -0.0596
   56CHL1   C24 4132   6.700   3.794   7.813 -0.4472 -0.3248 -0.1861
   56CHL1  H24A 4133   6.626   3.866   7.855 -2.3208 -1.8561 -0.7037
   56CHL1  H24B 4134   6.644   3.698   7.812  0.5080 -0.8861 -0.7755
   56CHL1   C25 4135   6.821   3.766   7.899 -0.2327 -0.5352  0.0232
   56CHL1   H25 4136   6.876   3.859   7.928  2.2141 -1.8681 -0.0367
   56CHL1   C26 4137   6.777   3.690   8.031  0.2903  0.4175 -0.0385
   56CHL1  H26A 4138   6.728   3.759   8.103 -2.0784 -0.7375 -0.4403
   56CHL1  H26B 4139   6.865   3.641   8.078  0.2474 -0.4477 -0.8290
   56CHL1  H26C 4140   6.704   3.613   8.000  0.2173  0.3590  0.2732
   56CHL1   C27 4141   6.924   3.672   7.826 -0.4512  0.7190 -0.3041
   56CHL1  H27A 4142   6.960   3.726   7.736 -0.1474  1.3228  0.1793
   56CHL1  H27B 4143   7.003   3.652   7.900  1.6071  0.5563 -2.4218
   56CHL1  H27C 4144   6.866   3.582   7.793 -0.5309  0.9503 -0.8160
   57SAPC     N 4145   6.529   1.548  10.376 -0.4408  0.1467 -0.4581
   57SAPC   C12 4146   6.624   1.447  10.456  0.0080 -0.1476  0.4936
   57SAPC  H12A 4147   6.580   1.423  10.551 -0.3625  2.0774  0.9490
   57SAPC  H12B 4148   6.712   1.506  10.477 -0.5708  0.5453  1.0161
   57SAPC   C13 4149   6.539   1.536  10.228  0.4105  0.2688 -0.5243
   57SAPC  H13A 4150   6.641   1.514  10.198  0.0066  0.4125 -2.1085
   57SAPC  H13B 4151   6.480   1.453  10.194  0.8308 -0.4262  0.3990
   57SAPC  H13C 4152   6.502   1.625  10.178  0.5476 -0.2796 -1.6295
   57SAPC   C14 4153   6.386   1.522  10.415 -0.7860  0.5837 -1.0396
   57SAPC  H14A 4154   6.368   1.416  10.417 -1.6801  0.7290 -1.0871
   57SAPC  H14B 4155   6.365   1.549  10.518 -1.4325  0.8650 -1.2391
   57SAPC  H14C 4156   6.315   1.570  10.350 -2.4617 -0.2643  0.0857
   57SAPC   C15 4157   6.572   1.683  10.416 -0.0656  0.3611 -0.3479
   57SAPC  H15A 4158   6.481   1.740  10.428 -1.4279 -1.6810 -0.4681
   57SAPC  H15B 4159   6.609   1.668  10.516 -1.0216 -0.6545 -0.1275
   57SAPC  H15C 4160   6.647   1.728  10.354  0.7311  0.8671  0.9450
   57SAPC   C11 4161   6.662   1.321  10.386  0.1504  0.7491 -0.0668
   57SAPC  H11A 4162   6.565   1.267  10.377  0.6321  0.2427 -3.0028
   57SAPC  H11B 4163   6.724   1.255  10.450 -0.0953 -0.8994 -1.4555
   57SAPC     P 4164   6.865   1.368  10.237 -0.0619 -0.1118  0.4217
   57SAPC   O13 4165   6.901   1.476  10.332  0.4359 -0.0327  0.6804
   57SAPC   O14 4166   6.944   1.242  10.247 -0.5171  0.1181 -0.6230
   57SAPC   O12 4167   6.718   1.327  10.255  0.4171  0.0231 -0.1977
   57SAPC   O11 4168   6.862   1.420  10.092  0.0829 -0.0534  0.6292
   57SAPC    C1 4169   6.960   1.524  10.050  0.5814  0.5265  0.8028
   57SAPC    HA 4170   6.972   1.609  10.120  1.6344  1.3912 -0.3700
   57SAPC    HB 4171   7.064   1.484  10.047  1.2742  2.2602  0.3447
   57SAPC    C2 4172   6.928   1.572   9.906  0.3957  0.6006 -0.2584
   57SAPC    HS 4173   7.018   1.631   9.875  1.2373 -0.1642  0.6404
   57SAPC   O21 4174   6.810   1.651   9.892  0.8434  0.6932 -0.5337
   57SAPC   C21 4175   6.784   1.747   9.970 -0.0328  0.1802  0.4253
   57SAPC   O22 4176   6.863   1.805  10.047 -0.6493 -0.0138  0.8559
   57SAPC   C22 4177   6.641   1.791   9.941 -0.8001 -0.0887  0.6415
   57SAPC   H2R 4178   6.584   1.695   9.947  1.3464 -1.6932 -2.1055
   57SAPC   H2S 4179   6.616   1.852  10.030  2.1021 -0.1542  1.5995
   57SAPC    C3 4180   6.923   1.446   9.808 -0.1427  0.2321 -0.1808
   57SAPC    HX 4181   6.858   1.368   9.853 -0.5323 -1.1708 -2.9393
   57SAPC    HY 4182   7.022   1.399   9.788 -0.6094  0.2186 -2.8871
   57SAPC   O31 4183   6.861   1.476   9.679  0.1763  1.1474 -0.1321
   57SAPC   C31 4184   6.942   1.537   9.595 -0.2862  1.1493 -0.4697
   57SAPC   O32 4185   7.058   1.557   9.608  0.3553 -0.8402 -0.3046
   57SAPC   C32 4186   6.859   1.581   9.478 -0.1826  0.6178  0.3877
   57SAPC   H2X 4187   6.803   1.675   9.499 -2.3322 -0.3256 -0.8597
   57SAPC   H2Y 4188   6.795   1.499   9.440  0.4612  0.3019 -0.0475
   57SAPC   C23 4189   6.631   1.846   9.794 -0.0684  0.3442 -0.0810
   57SAPC   H3R 4190   6.663   1.765   9.724 -0.4398 -0.1257  0.2819
   57SAPC   H3S 4191   6.692   1.936   9.771 -2.1115  1.6991 -0.4918
   57SAPC   C24 4192   6.486   1.890   9.756 -0.7946  0.2492  0.1588
   57SAPC   H4R 4193   6.482   1.942   9.658  2.4999 -2.1741 -1.4992
   57SAPC   H4S 4194   6.448   1.957   9.836  1.4447  0.9457  0.7098
   57SAPC   C25 4195   6.418   1.758   9.758  0.6157  0.1340  0.3865
   57SAPC   H5R 4196   6.378   1.732   9.857  2.0699 -0.7467  0.7914
   57SAPC   C26 4197   6.403   1.674   9.653  0.2410 -0.0861 -0.2883
   57SAPC   H6R 4198   6.362   1.574   9.673 -0.3934 -0.0088 -1.1334
   57SAPC   C27 4199   6.448   1.683   9.508 -0.5749 -0.7401 -0.2003
   57SAPC   H7R 4200   6.443   1.582   9.460  1.3488  0.3065 -2.8443
   57SAPC   H7S 4201   6.553   1.715   9.492 -0.8077 -1.2150 -3.1559
   57SAPC   C28 4202   6.370   1.772   9.422  0.0376  0.3983 -0.0965
   57SAPC   H8R 4203   6.277   1.803   9.471  0.0604 -1.3488  1.1411
   57SAPC   C29 4204   6.403   1.820   9.301  0.0533 -0.1222 -0.6801
   57SAPC   H9R 4205   6.319   1.868   9.250 -0.0377 -1.8117 -2.2259
   57SAPC  C210 4206   6.524   1.800   9.221  0.2720  0.3441 -0.1211
   57SAPC  H10R 4207   6.583   1.711   9.250 -0.7668 -0.3498 -0.0855
   57SAPC  H10S 4208   6.583   1.894   9.233 -0.2030  0.6518 -0.1510
   57SAPC  C211 4209   6.499   1.793   9.072 -0.7586  0.1784 -0.1193
   57SAPC  H11R 4210   6.498   1.691   9.031 -0.9070 -0.6870  1.9387
   57SAPC  C212 4211   6.480   1.899   8.986 -0.3636 -0.3052  0.1364
   57SAPC  H12R 4212   6.473   1.875   8.879  0.9094 -1.3035  0.2546
   57SAPC  C213 4213   6.474   2.046   9.022 -0.3609  0.1746 -0.1984
   57SAPC  H13R 4214   6.576   2.087   9.007 -1.4886  3.1959 -0.1206
   57SAPC  H13S 4215   6.450   2.056   9.130 -0.5320 -1.5244 -0.0487
   57SAPC  C214 4216   6.376   2.121   8.933 -0.5238 -0.4243 -0.6685
   57SAPC  H14R 4217   6.283   2.145   8.987  0.6881  2.1584  0.4271
   57SAPC  C215 4218   6.405   2.165   8.803 -0.3634 -0.2607  0.4082
   57SAPC  H15R 4219   6.327   2.215   8.744 -0.3495  0.1185  0.7070
   57SAPC  C216 4220   6.537   2.145   8.733  0.2687  0.3025 -0.0447
   57SAPC  H16R 4221   6.516   2.076   8.649 -0.2632 -0.5438  0.7715
   57SAPC  H16S 4222   6.610   2.098   8.803 -1.7658  0.8879  2.6249
   57SAPC  C217 4223   6.590   2.286   8.684  0.0174  0.1531  0.1682
   57SAPC  H17R 4224   6.601   2.358   8.768  1.7346  0.4826 -0.3005
   57SAPC  H17S 4225   6.516   2.327   8.612  0.5452 -0.3906 -0.7048
   57SAPC  C218 4226   6.724   2.287   8.610  0.3322 -0.8898  0.6804
   57SAPC  H18R 4227   6.786   2.205   8.652  0.3981 -1.8676 -1.2102
   57SAPC  H18S 4228   6.780   2.382   8.626  1.4067 -1.7217  2.0386
   57SAPC  C219 4229   6.711   2.266   8.459 -0.4045 -0.1473  0.6800
   57SAPC  H19R 4230   6.637   2.343   8.427 -0.5120 -0.7029 -0.4400
   57SAPC  H19S 4231   6.664   2.171   8.429  0.7347 -1.2755  2.2687
   57SAPC  C220 4232   6.845   2.285   8.395  0.1305  0.5973 -0.0844
   57SAPC  H20R 4233   6.909   2.365   8.437  0.8039 -0.9371  1.9506
   57SAPC  H20S 4234   6.832   2.312   8.288  1.0790  1.2207 -0.0530
   57SAPC  H20T 4235   6.909   2.195   8.393 -2.0140 -1.0371  1.1984
   57SAPC   C33 4236   6.947   1.608   9.355 -0.2652  0.0675 -0.0003
   57SAPC   H3X 4237   7.005   1.516   9.331  0.3852  0.0675  1.4883
   57SAPC   H3Y 4238   7.017   1.689   9.386 -0.8369  0.1873  1.0152
   57SAPC   C34 4239   6.861   1.656   9.240  0.3734  0.2729  0.2528
   57SAPC   H4X 4240   6.815   1.752   9.271 -0.0306  0.0805  0.2550
   57SAPC   H4Y 4241   6.787   1.575   9.222 -0.5781  1.3799 -1.0415
   57SAPC   C35 4242   6.932   1.670   9.105 -0.7155 -0.5542  0.2255
   57SAPC   H5X 4243   6.979   1.573   9.076 -2.0471 -1.0957 -0.1765
   57SAPC   H5Y 4244   7.019   1.737   9.123  0.3744 -0.9315 -2.9990
   57SAPC   C36 4245   6.845   1.743   9.002  0.6608 -0.4776 -0.3059
   57SAPC   H6X 4246   6.812   1.838   9.048 -0.0090 -0.9978  0.3088
   57SAPC   H6Y 4247   6.756   1.684   8.972 -0.4106  1.7846 -1.8329
   57SAPC   C37 4248   6.924   1.771   8.878 -0.0889  0.2347 -0.4608
   57SAPC   H7X 4249   6.977   1.680   8.843 -0.4833 -0.0341 -0.3692
   57SAPC   H7Y 4250   7.005   1.843   8.901  1.1891 -1.2755 -0.0481
   57SAPC   C38 4251   6.838   1.818   8.760 -0.7419 -1.0175 -0.5093
   57SAPC   H8X 4252   6.817   1.921   8.795  0.4429 -0.9549  0.0708
   57SAPC   H8Y 4253   6.737   1.771   8.765 -1.4734  0.6168  1.4604
   57SAPC   C39 4254   6.904   1.819   8.618  0.0850 -0.0191  0.3134
   57SAPC   H9X 4255   6.905   1.711   8.589 -2.0815  0.7310 -3.0638
   57SAPC   H9Y 4256   7.007   1.859   8.624  0.2888 -0.4711 -0.0772
   57SAPC  C310 4257   6.825   1.890   8.505  0.4650 -0.4747 -0.3610
   57SAPC  H10X 4258   6.836   2.000   8.494 -0.3538 -0.2963  0.4460
   57SAPC  H10Y 4259   6.716   1.873   8.510  0.0760  1.8176 -0.2386
   57SAPC  C311 4260   6.873   1.831   8.373 -0.3454 -0.2854  0.2540
   57SAPC  H11X 4261   6.823   1.731   8.374 -1.8110  0.3950 -0.4390
   57SAPC  H11Y 4262   6.983   1.826   8.378 -0.2185  0.7006 -0.9759
   57SAPC  C312 4263   6.828   1.915   8.249 -0.4257  0.2316 -0.0105
   57SAPC  H12X 4264   6.891   2.006   8.244  0.3693 -0.3431 -0.9813
   57SAPC  H12Y 4265   6.722   1.940   8.268  0.2239  0.1880  4.8549
   57SAPC  C313 4266   6.836   1.828   8.126 -0.3431 -0.5610  0.4481
   57SAPC  H13X 4267   6.757   1.750   8.128 -0.9182  0.0247  2.0045
   57SAPC  H13Y 4268   6.932   1.774   8.114 -0.5119 -0.3819 -2.7738
   57SAPC  C314 4269   6.819   1.914   8.002  0.2892 -0.1008 -0.0424
   57SAPC  H14X 4270   6.908   1.978   7.984 -0.9222  1.0292 -2.3008
   57SAPC  H14Y 4271   6.727   1.975   8.011  0.6658  0.4970 -0.1365
   57SAPC  C315 4272   6.803   1.819   7.885  0.7112 -0.1495  0.5730
   57SAPC  H15X 4273   6.719   1.752   7.909  2.6960 -1.9669  2.9531
   57SAPC  H15Y 4274   6.902   1.769   7.876  1.5840  1.7794 -1.9042
   57SAPC  C316 4275   6.760   1.904   7.755 -0.0888  0.1348 -0.5455
   57SAPC  H16X 4276   6.826   1.993   7.763  0.4845 -0.4406  1.9486
   57SAPC  H16Y 4277   6.658   1.945   7.767 -0.2716 -0.5757  0.4790
   57SAPC  C317 4278   6.778   1.827   7.623 -0.2742  0.1781 -0.3108
   57SAPC  H17X 4279   6.728   1.728   7.618 -0.1437  0.1590 -1.2851
   57SAPC  H17Y 4280   6.887   1.809   7.629 -0.1569  1.2603  1.6415
   57SAPC  C318 4281   6.749   1.911   7.505  0.9938 -0.1247 -0.0370
   57SAPC  H18X 4282   6.788   1.867   7.411 -2.3953  0.5365 -1.9414
   57SAPC  H18Y 4283   6.794   2.012   7.521  0.7994  0.0874 -0.7628
   57SAPC  H18Z 4284   6.640   1.920   7.486  0.9916  1.6846  0.6146
   58SAPC     N 4285   0.680   2.850   0.555  0.1240 -0.5639 -0.0408
   58SAPC   C12 4286   0.782   2.837   0.668  0.4157  0.7282 -0.0397
   58SAPC  H12A 4287   0.862   2.908   0.652  0.1642  0.9653 -0.2649
   58SAPC  H12B 4288   0.815   2.735   0.662  1.4352  0.9148  1.7468
   58SAPC   C13 4289   0.638   2.994   0.537  0.1555  0.8763  0.8811
   58SAPC  H13A 4290   0.623   3.038   0.634 -1.2878  2.5697 -0.0319
   58SAPC  H13B 4291   0.722   3.047   0.496  1.5870  0.2761  2.9041
   58SAPC  H13C 4292   0.541   3.000   0.488  0.1917  1.0517  0.8290
   58SAPC   C14 4293   0.726   2.804   0.422 -0.3511 -0.2522 -0.6952
   58SAPC  H14A 4294   0.817   2.856   0.395  0.9058 -0.1604  3.0409
   58SAPC  H14B 4295   0.734   2.696   0.419 -0.9261 -0.3732  0.9884
   58SAPC  H14C 4296   0.646   2.834   0.356 -0.8024  0.6738  0.2435
   58SAPC   C15 4297   0.557   2.771   0.589 -0.1246 -0.0284  0.0691
   58SAPC  H15A 4298   0.575   2.665   0.586 -0.5338 -0.0868 -0.8364
   58SAPC  H15B 4299   0.513   2.805   0.681  0.2137 -1.5747  0.8332
   58SAPC  H15C 4300   0.480   2.781   0.513 -1.3288 -2.0820  0.9435
   58SAPC   C11 4301   0.735   2.859   0.810 -0.4471  0.0762 -0.6654
   58SAPC  H11A 4302   0.809   2.829   0.886 -3.9421  1.8326  3.9130
   58SAPC  H11B 4303   0.647   2.796   0.833 -0.0103  0.2457  1.7355
   58SAPC     P 4304   0.773   3.118   0.858  0.1609  0.1559  0.3498
   58SAPC   O13 4305   0.900   3.118   0.779  0.3039  0.3957 -0.1836
   58SAPC   O14 4306   0.678   3.233   0.838 -0.1169  1.0781  0.0593
   58SAPC   O12 4307   0.687   2.989   0.839  0.1254  0.2239  0.6271
   58SAPC   O11 4308   0.824   3.113   1.011 -0.1001 -0.6070  0.0921
   58SAPC    C1 4309   0.726   3.124   1.117  0.0233  0.7544  0.1585
   58SAPC    HA 4310   0.732   3.225   1.162 -1.4662 -0.0366  2.3373
   58SAPC    HB 4311   0.619   3.102   1.096  0.5026 -2.6573  0.5684
   58SAPC    C2 4312   0.765   3.037   1.234 -0.0528 -0.3454 -0.3901
   58SAPC    HS 4313   0.875   3.037   1.246 -0.2692  0.8086  2.3903
   58SAPC   O21 4314   0.722   2.904   1.194 -0.7827  0.2004  0.2452
   58SAPC   C21 4315   0.812   2.813   1.205 -0.0541  0.6373  0.2432
   58SAPC   O22 4316   0.926   2.828   1.256 -0.2094  0.2099  0.2707
   58SAPC   C22 4317   0.751   2.684   1.160  0.9123  0.1183  0.7685
   58SAPC   H2R 4318   0.656   2.655   1.209 -1.2932  0.8949 -2.7363
   58SAPC   H2S 4319   0.718   2.696   1.055  0.2142 -0.1628  0.9562
   58SAPC    C3 4320   0.695   3.074   1.374 -0.2597 -0.6617 -0.4075
   58SAPC    HX 4321   0.585   3.063   1.373 -0.2229 -1.4014  1.0431
   58SAPC    HY 4322   0.727   3.178   1.400  1.9156 -1.1047 -1.0800
   58SAPC   O31 4323   0.752   2.983   1.476 -0.3252  0.2682 -0.2941
   58SAPC   C31 4324   0.690   2.970   1.597  0.9275 -0.4567  0.6122
   58SAPC   O32 4325   0.595   3.035   1.632 -0.2607  0.6533 -0.1910
   58SAPC   C32 4326   0.748   2.850   1.678  0.7063 -0.2229  0.2494
   58SAPC   H2X 4327   0.705   2.860   1.780  0.0009  0.3941 -0.0974
   58SAPC   H2Y 4328   0.858   2.859   1.671  0.7909 -1.2695  0.0398
   58SAPC   C23 4329   0.857   2.577   1.183 -0.0117 -0.7398 -0.1681
   58SAPC   H3R 4330   0.863   2.560   1.293 -1.4876  1.3439  0.2907
   58SAPC   H3S 4331   0.961   2.597   1.150  0.5112  0.1890  1.8582
   58SAPC   C24 4332   0.812   2.445   1.125  0.3873  0.3021  0.2339
   58SAPC   H4R 4333   0.709   2.417   1.157  0.1905 -2.0037 -2.1114
   58SAPC   H4S 4334   0.885   2.378   1.175  0.2237  0.5675  0.8363
   58SAPC   C25 4335   0.817   2.453   0.975 -0.5239  0.2902  0.0675
   58SAPC   H5R 4336   0.919   2.452   0.933  0.5356 -2.8863  2.3030
   58SAPC   C26 4337   0.708   2.461   0.891 -0.5014  0.2937  0.3662
   58SAPC   H6R 4338   0.726   2.493   0.788  1.6240 -1.0683  0.2670
   58SAPC   C27 4339   0.565   2.432   0.928 -0.3241  0.0722 -1.0117
   58SAPC   H7R 4340   0.538   2.508   1.004  0.8808 -1.0916  0.6373
   58SAPC   H7S 4341   0.556   2.337   0.985 -0.9010  0.8496  0.2415
   58SAPC   C28 4342   0.480   2.433   0.803  0.5930 -0.5968  0.3143
   58SAPC   H8R 4343   0.515   2.375   0.717 -0.4045  0.4786 -0.8644
   58SAPC   C29 4344   0.374   2.512   0.787  0.2759  0.0902 -0.3409
   58SAPC   H9R 4345   0.324   2.497   0.690  1.6368 -0.8212 -0.9493
   58SAPC  C210 4346   0.327   2.620   0.883 -0.2280 -0.9630 -0.1673
   58SAPC  H10R 4347   0.347   2.720   0.839 -2.3573 -1.3925 -2.3357
   58SAPC  H10S 4348   0.373   2.623   0.984 -1.1899 -0.3903  0.2681
   58SAPC  C211 4349   0.179   2.611   0.907  0.6923  0.1488  0.0052
   58SAPC  H11R 4350   0.129   2.522   0.865 -1.9917  1.2243  0.7120
   58SAPC  C212 4351   0.097   2.691   0.976 -0.1502 -0.7639 -0.1791
   58SAPC  H12R 4352  -0.008   2.657   0.982  0.0134 -1.8710 -2.5289
   58SAPC  C213 4353   0.129   2.828   1.030  0.6287  0.1378 -0.3639
   58SAPC  H13R 4354   0.075   2.902   0.966 -1.1664 -0.8133 -0.0147
   58SAPC  H13S 4355   0.235   2.851   1.007  1.0469 -1.8723 -0.5955
   58SAPC  C214 4356   0.091   2.863   1.173  0.0933  1.1742  0.4670
   58SAPC  H14R 4357  -0.018   2.853   1.183 -0.0448 -1.3771 -2.4138
   58SAPC  C215 4358   0.176   2.874   1.276 -0.9799 -0.1932  0.3490
   58SAPC  H15R 4359   0.133   2.908   1.371  1.4413  0.8344  1.1530
   58SAPC  C216 4360   0.331   2.870   1.276 -0.2288 -0.2637  0.6596
   58SAPC  H16R 4361   0.372   2.969   1.247  0.8235 -1.3407 -1.9132
   58SAPC  H16S 4362   0.363   2.798   1.197  0.4541 -1.4697  1.9800
   58SAPC  C217 4363   0.392   2.812   1.402 -0.3287 -0.3883  0.2402
   58SAPC  H17R 4364   0.352   2.850   1.498 -0.4354 -3.5947  1.5968
   58SAPC  H17S 4365   0.503   2.809   1.398 -0.1921  0.2321  2.4651
   58SAPC  C218 4366   0.350   2.665   1.420  0.0894 -0.0825  0.9128
   58SAPC  H18R 4367   0.242   2.660   1.395  1.0095 -0.3583 -4.1987
   58SAPC  H18S 4368   0.365   2.625   1.523 -0.3537 -0.8689  0.6787
   58SAPC  C219 4369   0.406   2.559   1.330 -0.1850 -0.7785  0.1534
   58SAPC  H19R 4370   0.516   2.545   1.337 -0.0562 -1.3029 -2.2010
   58SAPC  H19S 4371   0.407   2.579   1.221  0.8144  0.1333  0.3034
   58SAPC  C220 4372   0.347   2.425   1.357  0.7041  0.4305  0.2357
   58SAPC  H20R 4373   0.390   2.355   1.283 -0.6475 -2.1013  1.7022
   58SAPC  H20S 4374   0.238   2.433   1.334  1.2123  0.6964 -2.5205
   58SAPC  H20T 4375   0.366   2.387   1.459 -0.7812  0.8052  0.6751
   58SAPC   C33 4376   0.683   2.721   1.619  0.1285 -0.0950  0.5036
   58SAPC   H3X 4377   0.706   2.705   1.511  1.3421 -0.1490  0.7633
   58SAPC   H3Y 4378   0.573   2.737   1.609  0.5687  2.3309 -1.6536
   58SAPC   C34 4379   0.717   2.589   1.694  0.5365 -0.1280 -0.6177
   58SAPC   H4X 4380   0.683   2.593   1.800 -0.7749  1.8257 -1.0595
   58SAPC   H4Y 4381   0.827   2.577   1.686  0.4853 -0.7218 -0.5097
   58SAPC   C35 4382   0.632   2.476   1.643 -0.4447 -0.1693  0.5805
   58SAPC   H5X 4383   0.633   2.479   1.532 -0.3140  0.8759  0.6025
   58SAPC   H5Y 4384   0.530   2.500   1.680 -0.4717  0.9776 -0.1840
   58SAPC   C36 4385   0.687   2.341   1.689 -0.9330 -0.2998 -0.1688
   58SAPC   H6X 4386   0.689   2.329   1.799  0.8500 -2.2679 -0.3392
   58SAPC   H6Y 4387   0.792   2.318   1.660 -1.0812 -0.6584 -0.4408
   58SAPC   C37 4388   0.599   2.227   1.643 -0.2465 -0.0217  0.0309
   58SAPC   H7X 4389   0.493   2.259   1.645  0.1823  1.7486 -2.2483
   58SAPC   H7Y 4390   0.611   2.138   1.709  0.1813  1.6486  2.3252
   58SAPC   C38 4391   0.619   2.186   1.496  0.3543 -0.4087  0.6124
   58SAPC   H8X 4392   0.723   2.149   1.490  0.8211  1.0804 -1.0954
   58SAPC   H8Y 4393   0.608   2.279   1.436 -1.1078 -1.3100 -0.5991
   58SAPC   C39 4394   0.505   2.092   1.448 -0.1132 -0.1901 -0.0557
   58SAPC   H9X 4395   0.412   2.149   1.472  0.0895 -0.5026  1.5323
   58SAPC   H9Y 4396   0.514   2.001   1.511 -1.4118 -0.3269 -0.0248
   58SAPC  C310 4397   0.514   2.056   1.298  0.3041  0.3799 -0.4117
   58SAPC  H10X 4398   0.612   2.006   1.282  0.9222  1.4460 -0.0369
   58SAPC  H10Y 4399   0.503   2.149   1.239  0.1141 -0.2025 -1.3105
   58SAPC  C311 4400   0.405   1.963   1.263  0.6764 -0.5530  0.1143
   58SAPC  H11X 4401   0.310   2.017   1.279  1.5711  0.9651  0.4866
   58SAPC  H11Y 4402   0.393   1.875   1.330 -2.8098 -0.0131  0.3844
   58SAPC  C312 4403   0.405   1.915   1.124  0.7566  0.2708  0.1481
   58SAPC  H12X 4404   0.343   1.823   1.118  0.9724 -0.0267  1.9834
   58SAPC  H12Y 4405   0.511   1.894   1.096  0.5226  0.8809 -1.2622
   58SAPC  C313 4406   0.349   2.016   1.022  0.0748  0.0935  0.2761
   58SAPC  H13X 4407   0.381   1.986   0.920  1.0894  0.3415  0.5064
   58SAPC  H13Y 4408   0.371   2.124   1.039 -1.6452  1.0686 -2.9499
   58SAPC  C314 4409   0.199   1.991   1.014 -0.1651  0.0923  0.6229
   58SAPC  H14X 4410   0.151   1.991   1.114 -2.4629 -0.3177 -0.4317
   58SAPC  H14Y 4411   0.179   1.895   0.963 -0.7540  1.8156 -2.6812
   58SAPC  C315 4412   0.120   2.092   0.921  0.4781  0.1975 -0.7056
   58SAPC  H15X 4413   0.135   2.051   0.818 -4.4663 -0.0019 -1.5907
   58SAPC  H15Y 4414   0.175   2.188   0.921  1.3812 -0.2441  2.0051
   58SAPC  C316 4415  -0.034   2.095   0.942 -0.5778 -0.0299 -0.3758
   58SAPC  H16X 4416  -0.042   2.155   1.035  1.2192 -1.9370  1.0879
   58SAPC  H16Y 4417  -0.067   1.989   0.941 -2.0338  0.3873 -1.9024
   58SAPC  C317 4418  -0.102   2.153   0.821 -0.0366  0.1289 -0.1908
   58SAPC  H17X 4419  -0.108   2.070   0.748  0.4129 -1.8023  1.8470
   58SAPC  H17Y 4420  -0.040   2.229   0.768 -0.1031 -0.0482 -0.5192
   58SAPC  C318 4421  -0.246   2.185   0.855 -0.3058 -0.2487 -0.1703
   58SAPC  H18X 4422  -0.290   2.249   0.776  2.0122  0.8897 -0.6573
   58SAPC  H18Y 4423  -0.257   2.244   0.949 -0.9221  0.6706 -0.8035
   58SAPC  H18Z 4424  -0.309   2.097   0.877  1.1878 -1.6237 -1.2270
   59SAPC     N 4425   0.752   1.296  10.124 -0.3436  0.5297 -0.7143
   59SAPC   C12 4426   0.813   1.204  10.020 -0.2163 -0.4691  0.5740
   59SAPC  H12A 4427   0.851   1.119  10.074  1.1315  0.5593  1.3133
   59SAPC  H12B 4428   0.907   1.250   9.992 -1.3252  1.5589 -0.0805
   59SAPC   C13 4429   0.734   1.426  10.063 -0.8515  0.0544  0.3032
   59SAPC  H13A 4430   0.832   1.457  10.032 -0.2597 -0.5953  1.4495
   59SAPC  H13B 4431   0.668   1.421   9.977 -0.2494  1.3160 -0.2570
   59SAPC  H13C 4432   0.696   1.499  10.134  1.8001  1.1987  0.6497
   59SAPC   C14 4433   0.617   1.241  10.174  0.0355  0.6748  0.2403
   59SAPC  H14A 4434   0.548   1.230  10.092 -0.9772 -2.5969  1.3500
   59SAPC  H14B 4435   0.633   1.138  10.204 -0.6376 -0.2106 -2.2383
   59SAPC  H14C 4436   0.567   1.306  10.243  0.5917  1.5421 -0.1630
   59SAPC   C15 4437   0.843   1.309  10.248 -0.2002  0.0181  0.3052
   59SAPC  H15A 4438   0.796   1.366  10.326  1.2248 -0.0300  1.2414
   59SAPC  H15B 4439   0.869   1.210  10.282 -3.0578 -1.0053 -0.2212
   59SAPC  H15C 4440   0.934   1.356  10.213 -0.4420  1.4732  1.5401
   59SAPC   C11 4441   0.742   1.174   9.883 -0.3919 -0.1918 -0.3635
   59SAPC  H11A 4442   0.798   1.096   9.827 -1.5253 -1.9662  0.8637
   59SAPC  H11B 4443   0.737   1.271   9.830  2.1134 -0.5760 -1.4305
   59SAPC     P 4444   0.559   0.996   9.844  0.0996  0.4702 -0.1298
   59SAPC   O13 4445   0.658   0.887   9.864 -0.3375 -0.3769 -0.4326
   59SAPC   O14 4446   0.416   0.972   9.871 -0.0757 -0.1133 -0.1527
   59SAPC   O12 4447   0.605   1.132   9.908  0.1206 -0.3797  0.8901
   59SAPC   O11 4448   0.569   1.022   9.683  0.7802 -0.4951  0.4049
   59SAPC    C1 4449   0.531   1.138   9.612  0.1378  0.3914 -0.5717
   59SAPC    HA 4450   0.559   1.228   9.670 -0.6197 -1.7998  3.5983
   59SAPC    HB 4451   0.590   1.141   9.518  0.6053  2.2275 -0.2661
   59SAPC    C2 4452   0.375   1.137   9.592 -0.1948 -0.0296 -0.3303
   59SAPC    HS 4453   0.331   1.134   9.694  1.0764  1.6550  0.3154
   59SAPC   O21 4454   0.347   1.029   9.503  0.1917 -0.1945  0.0818
   59SAPC   C21 4455   0.230   0.977   9.501 -0.4206  0.0041 -0.1906
   59SAPC   O22 4456   0.127   1.016   9.558 -0.3308  0.0390 -0.3586
   59SAPC   C22 4457   0.232   0.856   9.410  0.3276  0.5604  0.1996
   59SAPC   H2R 4458   0.329   0.807   9.431  0.8771  1.2277 -0.7410
   59SAPC   H2S 4459   0.151   0.786   9.442 -0.3125  0.8397 -0.7597
   59SAPC    C3 4460   0.320   1.264   9.533 -0.1122 -0.2621  0.5717
   59SAPC    HX 4461   0.348   1.339   9.611  0.4773  0.6670 -0.4996
   59SAPC    HY 4462   0.209   1.273   9.540 -0.3661 -1.9418 -0.8337
   59SAPC   O31 4463   0.361   1.295   9.396 -0.6991  0.1723  0.3292
   59SAPC   C31 4464   0.479   1.373   9.391  0.0624 -0.5987 -0.5535
   59SAPC   O32 4465   0.550   1.399   9.486  0.5036 -0.3687 -0.3896
   59SAPC   C32 4466   0.501   1.420   9.243 -0.6571 -0.0141  0.8603
   59SAPC   H2X 4467   0.610   1.418   9.222 -0.8019 -3.4269 -0.1920
   59SAPC   H2Y 4468   0.457   1.522   9.240  0.0951  0.3003  0.4519
   59SAPC   C23 4469   0.211   0.888   9.262  0.4192 -0.2630 -0.3012
   59SAPC   H3R 4470   0.115   0.944   9.257  0.8972  0.4444 -3.6532
   59SAPC   H3S 4471   0.194   0.797   9.201  1.0105  0.4092 -1.5028
   59SAPC   C24 4472   0.330   0.947   9.178  0.0380 -0.0977 -0.5144
   59SAPC   H4R 4473   0.425   0.891   9.198  1.2450  1.1693 -2.4411
   59SAPC   H4S 4474   0.349   1.045   9.226 -0.6770  0.2426 -0.9207
   59SAPC   C25 4475   0.300   0.943   9.026  1.2341 -0.2023 -0.4944
   59SAPC   H5R 4476   0.197   0.977   9.004  1.8736  1.1420 -1.6138
   59SAPC   C26 4477   0.388   0.915   8.925 -0.0381 -0.2014  0.2424
   59SAPC   H6R 4478   0.354   0.927   8.821 -0.3081  0.7624  0.4324
   59SAPC   C27 4479   0.535   0.879   8.950 -0.3963 -0.2738  0.1057
   59SAPC   H7R 4480   0.536   0.821   9.045 -2.4382  0.5824  0.7179
   59SAPC   H7S 4481   0.591   0.972   8.974 -1.2654  0.9623 -2.3301
   59SAPC   C28 4482   0.605   0.814   8.833 -0.6557 -0.1965  1.0340
   59SAPC   H8R 4483   0.594   0.705   8.840 -0.7420 -0.7021 -3.6697
   59SAPC   C29 4484   0.681   0.869   8.738  0.1513 -0.6456  0.3015
   59SAPC   H9R 4485   0.711   0.804   8.655 -0.9746 -1.0973  0.2458
   59SAPC  C210 4486   0.719   1.021   8.731 -0.3763 -0.9922 -0.0594
   59SAPC  H10R 4487   0.630   1.084   8.751  1.2923  0.8867  1.8623
   59SAPC  H10S 4488   0.747   1.055   8.629 -2.1894 -0.1613 -0.3051
   59SAPC  C211 4489   0.836   1.050   8.825 -0.0432 -0.0939 -0.6492
   59SAPC  H11R 4490   0.837   0.992   8.919 -0.7283  0.6443 -0.1795
   59SAPC  C212 4491   0.935   1.140   8.804  0.0574  0.5464 -0.2842
   59SAPC  H12R 4492   1.012   1.154   8.881  1.2518  0.6130 -1.4591
   59SAPC  C213 4493   0.949   1.232   8.686  0.2711  0.3107  0.2269
   59SAPC  H13R 4494   0.937   1.179   8.589 -0.7753 -0.1020  0.5687
   59SAPC  H13S 4495   1.051   1.277   8.689  0.7137 -0.5841 -0.6292
   59SAPC  C214 4496   0.860   1.358   8.683 -0.4620  0.2272 -0.0465
   59SAPC  H14R 4497   0.851   1.403   8.783  0.4261  1.0636 -0.3177
   59SAPC  C215 4498   0.809   1.431   8.577  0.2759  0.4172  0.4354
   59SAPC  H15R 4499   0.739   1.514   8.589  0.5480  0.4223  2.4391
   59SAPC  C216 4500   0.827   1.378   8.434  0.2064  0.3950  0.0894
   59SAPC  H16R 4501   0.729   1.332   8.409  0.7914 -0.0237 -1.5595
   59SAPC  H16S 4502   0.910   1.305   8.420  0.3472  0.7434 -0.9962
   59SAPC  C217 4503   0.841   1.481   8.319  0.2857  0.1133  0.2477
   59SAPC  H17R 4504   0.746   1.537   8.301  0.7384  1.4758  1.8314
   59SAPC  H17S 4505   0.846   1.420   8.227  0.7633  3.1748 -1.9266
   59SAPC  C218 4506   0.957   1.582   8.323  0.2692  0.2957  0.6804
   59SAPC  H18R 4507   1.054   1.533   8.345  0.4215  0.9287  1.4443
   59SAPC  H18S 4508   0.944   1.657   8.403  0.0441 -0.1260  1.0410
   59SAPC  C219 4509   0.971   1.643   8.182 -0.1884  0.0741  0.4652
   59SAPC  H19R 4510   0.880   1.702   8.161  0.4988  0.4759 -1.5607
   59SAPC  H19S 4511   0.991   1.566   8.105  0.5794  1.5837 -0.9138
   59SAPC  C220 4512   1.077   1.747   8.162 -0.6788 -0.3122  0.3655
   59SAPC  H20R 4513   1.177   1.708   8.191 -0.2690  0.7662  0.4585
   59SAPC  H20S 4514   1.049   1.839   8.219 -0.0682  0.3706 -0.4081
   59SAPC  H20T 4515   1.073   1.786   8.058 -0.6621  1.3363  0.9516
   59SAPC   C33 4516   0.432   1.330   9.133 -1.0183 -0.1559 -0.1329
   59SAPC   H3X 4517   0.327   1.357   9.158 -0.2375  1.1798  2.0124
   59SAPC   H3Y 4518   0.465   1.226   9.154  2.9596  0.8294 -0.5312
   59SAPC   C34 4519   0.464   1.359   8.993  0.3295  0.0996  0.0431
   59SAPC   H4X 4520   0.429   1.267   8.942 -1.8567  0.2128  1.2153
   59SAPC   H4Y 4521   0.574   1.355   8.978  0.5374  0.6329  1.2858
   59SAPC   C35 4522   0.414   1.491   8.944  0.3001 -0.0832  0.4010
   59SAPC   H5X 4523   0.469   1.574   8.993  0.8820 -2.0743  3.3569
   59SAPC   H5Y 4524   0.307   1.507   8.970 -0.1270 -1.0255 -0.7196
   59SAPC   C36 4525   0.443   1.499   8.789  0.7716  0.2826  0.2512
   59SAPC   H6X 4526   0.386   1.418   8.739  1.5824 -0.9774  1.2921
   59SAPC   H6Y 4527   0.550   1.479   8.770  0.8293  1.3094 -0.5588
   59SAPC   C37 4528   0.403   1.628   8.711 -0.9705  0.1264  0.8388
   59SAPC   H7X 4529   0.448   1.705   8.777 -0.4707  0.7104 -0.1645
   59SAPC   H7Y 4530   0.295   1.630   8.685 -1.0217 -0.2898  1.0082
   59SAPC   C38 4531   0.472   1.632   8.571 -0.2699 -0.0402  0.2341
   59SAPC   H8X 4532   0.483   1.530   8.529  0.2225  0.3238 -0.5404
   59SAPC   H8Y 4533   0.579   1.655   8.590 -0.2356  0.0111 -0.0240
   59SAPC   C39 4534   0.411   1.738   8.483  0.0474  0.3648  0.2999
   59SAPC   H9X 4535   0.376   1.824   8.545 -1.4222  1.3795 -1.8200
   59SAPC   H9Y 4536   0.316   1.698   8.441 -0.2535  0.1145  1.1925
   59SAPC  C310 4537   0.505   1.783   8.375  0.4323  0.4600  0.2504
   59SAPC  H10X 4538   0.513   1.702   8.299  2.6561 -1.5483  2.4284
   59SAPC  H10Y 4539   0.608   1.782   8.418 -0.3345 -1.2493  2.2138
   59SAPC  C311 4540   0.467   1.919   8.319  0.0173 -0.1308 -0.3949
   59SAPC  H11X 4541   0.515   1.999   8.379 -0.2495  0.1076 -0.4937
   59SAPC  H11Y 4542   0.361   1.935   8.351  0.6432 -0.2148  1.8790
   59SAPC  C312 4543   0.496   1.949   8.177 -0.7957  0.0961 -0.1767
   59SAPC  H12X 4544   0.516   1.852   8.125 -0.9076  0.3517 -0.7064
   59SAPC  H12Y 4545   0.575   2.027   8.174 -0.5399 -0.1656 -0.3039
   59SAPC  C313 4546   0.378   2.005   8.095 -0.3626  0.6775  0.1070
   59SAPC  H13X 4547   0.288   2.057   8.135  1.1344  2.0784  1.8463
   59SAPC  H13Y 4548   0.329   1.914   8.052  1.1645 -0.4968  0.7509
   59SAPC  C314 4549   0.421   2.096   7.979  0.4651 -0.7517 -0.3765
   59SAPC  H14X 4550   0.501   2.037   7.929  1.0287 -0.3411  0.0246
   59SAPC  H14Y 4551   0.469   2.183   8.029 -0.1968 -1.3740  1.4423
   59SAPC  C315 4552   0.303   2.146   7.886 -0.3672  0.4112  0.2915
   59SAPC  H15X 4553   0.233   2.207   7.946  0.8505  0.5470  1.6407
   59SAPC  H15Y 4554   0.247   2.055   7.856  1.7364 -0.7598 -0.2910
   59SAPC  C316 4555   0.348   2.215   7.758  0.2637  0.1664  0.0517
   59SAPC  H16X 4556   0.400   2.147   7.687 -2.5401 -1.4484 -0.5776
   59SAPC  H16Y 4557   0.425   2.293   7.778 -1.0649  1.6183 -0.2732
   59SAPC  C317 4558   0.238   2.294   7.689  0.0836 -0.4029 -0.3070
   59SAPC  H17X 4559   0.150   2.226   7.688 -0.7487  0.6511 -0.2558
   59SAPC  H17Y 4560   0.272   2.314   7.585  0.2117  0.7828 -0.0532
   59SAPC  C318 4561   0.186   2.418   7.763 -0.5104  0.4989  0.1149
   59SAPC  H18X 4562   0.136   2.385   7.856 -0.5342 -0.7411 -0.3181
   59SAPC  H18Y 4563   0.120   2.479   7.697 -2.3254 -1.6124 -0.1440
   59SAPC  H18Z 4564   0.279   2.476   7.782  1.0213 -1.5064 -0.7976
   60SAPC     N 4565   4.667   6.438  10.467 -0.1272  0.2083 -0.4156
   60SAPC   C12 4566   4.556   6.495  10.381 -0.7581  0.8647  0.0974
   60SAPC  H12A 4567   4.505   6.407  10.343  0.9138  0.2694 -0.8724
   60SAPC  H12B 4568   4.599   6.544  10.295  0.6384 -0.4455  0.0227
   60SAPC   C13 4569   4.600   6.375  10.588  0.1153  0.5260  0.7261
   60SAPC  H13A 4570   4.682   6.345  10.652 -0.9780 -0.3140  1.7781
   60SAPC  H13B 4571   4.533   6.440  10.643 -2.1457  0.3300 -1.6184
   60SAPC  H13C 4572   4.538   6.292  10.560  0.6720  0.2625  0.2601
   60SAPC   C14 4573   4.743   6.336  10.387 -0.1707 -0.2536  0.0371
   60SAPC  H14A 4574   4.835   6.307  10.435 -0.7499 -2.2470 -0.0019
   60SAPC  H14B 4575   4.678   6.251  10.383 -0.3529 -0.1133 -0.0059
   60SAPC  H14C 4576   4.770   6.382  10.293  1.0110  0.2158  0.5826
   60SAPC   C15 4577   4.752   6.541  10.524 -0.2853  0.3930 -0.2589
   60SAPC  H15A 4578   4.823   6.500  10.594 -1.7465 -0.9830  0.4898
   60SAPC  H15B 4579   4.799   6.597  10.444  1.4062  2.0836  1.7866
   60SAPC  H15C 4580   4.696   6.611  10.584 -1.4142 -0.8924  0.2364
   60SAPC   C11 4581   4.460   6.588  10.446  0.1998 -0.3214 -0.0413
   60SAPC  H11A 4582   4.386   6.537  10.512  0.6122  1.2985  1.7446
   60SAPC  H11B 4583   4.399   6.641  10.369  0.7948  0.3253 -0.0728
   60SAPC     P 4584   4.457   6.826  10.556  0.0078  0.0508  0.2901
   60SAPC   O13 4585   4.326   6.785  10.619 -0.5292 -0.9954 -0.1952
   60SAPC   O14 4586   4.551   6.899  10.641 -0.2668  0.3274 -0.1272
   60SAPC   O12 4587   4.524   6.688  10.526 -0.0081 -0.2791  0.2608
   60SAPC   O11 4588   4.442   6.883  10.411 -0.8009  0.4374 -0.3467
   60SAPC    C1 4589   4.299   6.894  10.365  0.0674  0.6232  0.0581
   60SAPC    HA 4590   4.268   6.790  10.340  1.0862  0.5945 -1.1829
   60SAPC    HB 4591   4.232   6.948  10.435 -0.4132 -0.9332  0.8609
   60SAPC    C2 4592   4.273   6.969  10.231 -0.3950  0.0057  0.1550
   60SAPC    HS 4593   4.169   6.948  10.200 -0.1685  0.9343 -1.3394
   60SAPC   O21 4594   4.364   6.943  10.122  0.1855  0.2082  0.2404
   60SAPC   C21 4595   4.348   6.827  10.072  0.2234 -0.3407 -0.1631
   60SAPC   O22 4596   4.278   6.735  10.114  0.1888  0.1123  0.3554
   60SAPC   C22 4597   4.437   6.810   9.951  0.8639 -0.1527  0.1254
   60SAPC   H2R 4598   4.447   6.907   9.898  0.6924 -0.2592 -0.1011
   60SAPC   H2S 4599   4.534   6.768   9.985  1.4362  3.0668  3.1513
   60SAPC    C3 4600   4.277   7.124  10.259 -0.4118  0.0995 -0.4010
   60SAPC    HX 4601   4.377   7.148  10.302  0.2203 -2.9573  0.1266
   60SAPC    HY 4602   4.203   7.162  10.332  0.0944 -0.8724  0.6635
   60SAPC   O31 4603   4.265   7.198  10.138 -0.1564 -0.2861  0.1819
   60SAPC   C31 4604   4.146   7.213  10.080  0.0023  0.1834  0.5023
   60SAPC   O32 4605   4.041   7.175  10.133 -0.1269  0.1748 -0.0711
   60SAPC   C32 4606   4.173   7.274   9.943  0.4282  1.2514  0.3479
   60SAPC   H2X 4607   4.282   7.254   9.930  0.1823 -1.6379  1.8443
   60SAPC   H2Y 4608   4.163   7.385   9.945  2.7921  1.5154  0.5827
   60SAPC   C23 4609   4.362   6.715   9.853  0.2353  0.3531 -0.4630
   60SAPC   H3R 4610   4.265   6.755   9.817 -0.5221 -3.2342 -2.9338
   60SAPC   H3S 4611   4.343   6.614   9.897  0.1563  0.8398  0.6374
   60SAPC   C24 4612   4.437   6.700   9.713 -0.2384  0.3039  0.6988
   60SAPC   H4R 4613   4.443   6.804   9.675  0.2321  0.0774  0.1305
   60SAPC   H4S 4614   4.373   6.641   9.643 -3.0489  1.7593  1.8842
   60SAPC   C25 4615   4.578   6.644   9.699  0.1995 -0.2585 -0.4515
   60SAPC   H5R 4616   4.590   6.549   9.752 -0.3972  0.9159  1.9512
   60SAPC   C26 4617   4.676   6.711   9.629  0.0025  0.1919  0.8099
   60SAPC   H6R 4618   4.772   6.657   9.630 -1.2209 -2.1830 -0.7875
   60SAPC   C27 4619   4.670   6.844   9.545  0.0953 -0.4094 -0.3629
   60SAPC   H7R 4620   4.757   6.912   9.557  0.1168  0.0542 -2.6835
   60SAPC   H7S 4621   4.586   6.907   9.581 -0.4936 -0.1806 -2.0445
   60SAPC   C28 4622   4.663   6.814   9.407  0.3270  0.2942  0.1819
   60SAPC   H8R 4623   4.730   6.734   9.373 -0.7567  0.0165 -1.3884
   60SAPC   C29 4624   4.582   6.872   9.313  0.1682  0.6721 -0.4682
   60SAPC   H9R 4625   4.587   6.848   9.206  4.0609 -4.4769  0.4591
   60SAPC  C210 4626   4.477   6.977   9.348  0.4501 -0.3653 -0.2988
   60SAPC  H10R 4627   4.457   7.037   9.257 -0.7462  0.1418  0.2716
   60SAPC  H10S 4628   4.508   7.050   9.425 -0.6093  0.9475 -1.0731
   60SAPC  C211 4629   4.346   6.907   9.395  1.0667 -0.6056  0.1031
   60SAPC  H11R 4630   4.358   6.861   9.494  0.5154  0.2728  0.5958
   60SAPC  C212 4631   4.223   6.914   9.339  0.3839 -0.2490  0.7453
   60SAPC  H12R 4632   4.140   6.861   9.388  0.6488  0.7626  2.3488
   60SAPC  C213 4633   4.190   6.980   9.204  0.0481 -0.2908  0.6112
   60SAPC  H13R 4634   4.265   6.945   9.130  1.3669  3.5889 -0.1284
   60SAPC  H13S 4635   4.202   7.090   9.215 -1.4560  0.1995 -1.8910
   60SAPC  C214 4636   4.054   6.947   9.143  0.9632  0.1815  0.1718
   60SAPC  H14R 4637   3.973   6.952   9.217 -0.7036  1.0084 -1.6177
   60SAPC  C215 4638   4.025   6.903   9.021 -0.2105  0.2369 -0.4051
   60SAPC  H15R 4639   3.922   6.868   9.005 -0.0918 -1.5136  2.0816
   60SAPC  C216 4640   4.128   6.891   8.916 -0.0070  0.8716  0.3143
   60SAPC  H16R 4641   4.226   6.939   8.939  0.8631 -0.8976  0.4092
   60SAPC  H16S 4642   4.085   6.953   8.834 -0.4173  0.8911  0.5442
   60SAPC  C217 4643   4.151   6.746   8.865  0.4372 -0.4598 -0.1012
   60SAPC  H17R 4644   4.074   6.715   8.791 -2.3882  0.4837  2.2801
   60SAPC  H17S 4645   4.141   6.685   8.957  2.0816  0.3340  0.6522
   60SAPC  C218 4646   4.281   6.745   8.791 -0.1120  1.1522 -0.5420
   60SAPC  H18R 4647   4.363   6.752   8.867  0.5973 -1.3899 -0.9604
   60SAPC  H18S 4648   4.281   6.838   8.731  1.7782  2.6097  1.5495
   60SAPC  C219 4649   4.300   6.624   8.708 -0.0949  0.6470  0.0415
   60SAPC  H19R 4650   4.213   6.603   8.642 -0.2087 -0.6279  0.5623
   60SAPC  H19S 4651   4.294   6.532   8.770 -0.9837  0.5597 -0.1708
   60SAPC  C220 4652   4.434   6.624   8.634  0.3072 -0.4028  0.1575
   60SAPC  H20R 4653   4.454   6.530   8.578  0.1629 -0.6735  0.5588
   60SAPC  H20S 4654   4.513   6.642   8.710  0.4327 -0.8652  0.1366
   60SAPC  H20T 4655   4.439   6.712   8.566  1.1480 -1.0491 -0.6518
   60SAPC   C33 4656   4.101   7.203   9.824  0.5616 -0.5273 -0.2761
   60SAPC   H3X 4657   4.114   7.262   9.731  0.3843 -0.4769 -0.2694
   60SAPC   H3Y 4658   3.990   7.199   9.833  0.6340 -0.6733  0.6021
   60SAPC   C34 4659   4.146   7.060   9.808  0.2803 -0.7583 -0.0291
   60SAPC   H4X 4660   4.119   7.003   9.899 -0.5576  0.3966  0.4584
   60SAPC   H4Y 4661   4.257   7.056   9.802  0.3682 -2.0072  1.6471
   60SAPC   C35 4662   4.081   6.991   9.689 -0.3195 -0.4443  0.0798
   60SAPC   H5X 4663   4.107   6.883   9.701  1.3478  0.0188  1.1273
   60SAPC   H5Y 4664   4.131   7.014   9.593 -1.6017  4.0536  0.2492
   60SAPC   C36 4665   3.927   6.994   9.692 -0.1708  0.0553  0.6933
   60SAPC   H6X 4666   3.888   7.097   9.677 -0.7357 -0.3352 -0.6992
   60SAPC   H6Y 4667   3.872   6.964   9.783  0.0037  0.4620  0.9361
   60SAPC   C37 4668   3.879   6.898   9.581  0.7405 -0.1006 -0.5406
   60SAPC   H7X 4669   3.936   6.803   9.589 -0.8537 -1.0617 -0.2418
   60SAPC   H7Y 4670   3.906   6.947   9.484 -3.0083  2.1306 -0.6285
   60SAPC   C38 4671   3.729   6.881   9.586  0.7612 -0.2698  0.2584
   60SAPC   H8X 4672   3.670   6.972   9.562 -0.4288 -0.4998  2.1504
   60SAPC   H8Y 4673   3.700   6.856   9.690  1.9857 -0.5472  0.5545
   60SAPC   C39 4674   3.672   6.776   9.488  0.5267  0.0576  0.4243
   60SAPC   H9X 4675   3.563   6.795   9.501  0.4973  1.5561 -1.4500
   60SAPC   H9Y 4676   3.704   6.675   9.521  1.3743 -0.8356 -2.7547
   60SAPC  C310 4677   3.702   6.796   9.340 -0.2778 -0.5127  0.4089
   60SAPC  H10X 4678   3.808   6.763   9.330 -0.7429 -1.9039 -0.2742
   60SAPC  H10Y 4679   3.684   6.901   9.311 -0.8245 -0.6757  0.1441
   60SAPC  C311 4680   3.625   6.699   9.245 -0.2393  0.6205 -0.1616
   60SAPC  H11X 4681   3.519   6.707   9.276 -0.1696  0.6508  0.0696
   60SAPC  H11Y 4682   3.667   6.598   9.267  1.1055  0.8371 -1.6097
   60SAPC  C312 4683   3.650   6.742   9.105  0.0234 -0.5676 -0.3521
   60SAPC  H12X 4684   3.759   6.748   9.085 -0.1880 -1.3519 -1.9075
   60SAPC  H12Y 4685   3.597   6.838   9.090 -0.9904 -0.9607  0.6366
   60SAPC  C313 4686   3.596   6.651   8.998 -0.3087  0.7002 -0.1808
   60SAPC  H13X 4687   3.485   6.661   9.004 -0.3101  1.6321 -1.2885
   60SAPC  H13Y 4688   3.627   6.547   9.020  2.6655  1.6527  0.6529
   60SAPC  C314 4689   3.666   6.676   8.864  0.6421  0.0899  0.5255
   60SAPC  H14X 4690   3.776   6.691   8.875  0.3409  6.5573 -1.1419
   60SAPC  H14Y 4691   3.622   6.769   8.823  0.3765  0.0280  0.6728
   60SAPC  C315 4692   3.642   6.560   8.766  0.2779 -0.0843 -0.1646
   60SAPC  H15X 4693   3.647   6.461   8.817 -0.9978 -0.5490 -0.8735
   60SAPC  H15Y 4694   3.722   6.538   8.693  1.3947 -3.4003  1.8267
   60SAPC  C316 4695   3.504   6.556   8.699 -0.5626  0.3262  0.3953
   60SAPC  H16X 4696   3.512   6.637   8.623 -0.8309  0.6000  0.6523
   60SAPC  H16Y 4697   3.422   6.582   8.769  0.1323 -1.6154  2.0317
   60SAPC  C317 4698   3.453   6.415   8.638  0.0860 -0.4161 -0.3566
   60SAPC  H17X 4699   3.464   6.342   8.720 -1.2142 -0.4774 -0.2272
   60SAPC  H17Y 4700   3.524   6.403   8.553 -0.0215  0.4270 -0.5803
   60SAPC  C318 4701   3.304   6.419   8.590 -0.6446  0.0168  0.7331
   60SAPC  H18X 4702   3.238   6.391   8.675 -2.2063 -4.0065 -1.4922
   60SAPC  H18Y 4703   3.294   6.336   8.516  2.5057 -0.6081  0.8659
   60SAPC  H18Z 4704   3.270   6.515   8.546 -1.1762  0.0640  1.2269
   61SAPC     N 4705   4.325   4.754  10.352 -0.0228 -0.0180  0.0575
   61SAPC   C12 4706   4.436   4.651  10.358 -0.9340 -0.3936 -0.3722
   61SAPC  H12A 4707   4.403   4.560  10.310 -1.8417 -1.6014  2.3166
   61SAPC  H12B 4708   4.453   4.626  10.461  1.4237  3.1412  0.2615
   61SAPC   C13 4709   4.296   4.802  10.209  0.5322  0.2261 -0.7235
   61SAPC  H13A 4710   4.291   4.717  10.143  3.5047 -0.8084  0.1759
   61SAPC  H13B 4711   4.210   4.867  10.209  0.2627 -0.1312 -0.7511
   61SAPC  H13C 4712   4.381   4.862  10.179 -0.2686  0.4691 -2.6098
   61SAPC   C14 4713   4.199   4.678  10.393 -0.8755  0.4330 -0.4746
   61SAPC  H14A 4714   4.112   4.741  10.384  0.4125  2.2588 -0.6577
   61SAPC  H14B 4715   4.172   4.595  10.329 -0.7908  1.0048 -1.2661
   61SAPC  H14C 4716   4.209   4.633  10.491 -1.2086 -1.4844 -1.2660
   61SAPC   C15 4717   4.347   4.864  10.444 -0.0572  0.1820  0.0375
   61SAPC  H15A 4718   4.252   4.914  10.454 -0.8611 -1.5528  1.7474
   61SAPC  H15B 4719   4.373   4.829  10.543  0.2371 -0.5171 -0.2812
   61SAPC  H15C 4720   4.431   4.930  10.424  0.9759 -0.4013  2.1266
   61SAPC   C11 4721   4.572   4.699  10.303  0.5453  0.1838  0.8339
   61SAPC  H11A 4722   4.556   4.718  10.195  0.1271  0.2562  0.9048
   61SAPC  H11B 4723   4.639   4.611  10.309 -1.4814 -1.5947 -0.8067
   61SAPC     P 4724   4.709   4.810  10.492 -0.3736  0.3235  0.2976
   61SAPC   O13 4725   4.734   4.941  10.552  0.2667 -0.7943 -0.4534
   61SAPC   O14 4726   4.665   4.705  10.582 -0.7827 -0.7836 -0.4184
   61SAPC   O12 4727   4.613   4.821  10.370 -0.0051  0.2224 -0.0271
   61SAPC   O11 4728   4.837   4.758  10.412  0.1601 -0.3926 -0.4836
   61SAPC    C1 4729   4.911   4.844  10.322 -0.0898  0.1542  0.2794
   61SAPC    HA 4730   4.850   4.931  10.290 -0.6033 -0.6980 -1.1317
   61SAPC    HB 4731   5.007   4.885  10.359 -0.0383  0.9794 -0.7376
   61SAPC    C2 4732   4.949   4.759  10.200  0.0641 -0.2082 -0.1980
   61SAPC    HS 4733   5.028   4.814  10.143 -0.2673 -0.3109 -0.7597
   61SAPC   O21 4734   4.840   4.729  10.105 -0.0447 -0.2739  0.1356
   61SAPC   C21 4735   4.829   4.814  10.006 -0.0988  0.2032  0.7041
   61SAPC   O22 4736   4.897   4.914   9.992  0.6238  0.0616  0.5101
   61SAPC   C22 4737   4.716   4.783   9.917 -0.1640 -0.0916 -0.5084
   61SAPC   H2R 4738   4.713   4.674   9.893 -0.4494 -0.5442  1.3633
   61SAPC   H2S 4739   4.621   4.792   9.975  0.0243 -4.0464  0.7632
   61SAPC    C3 4740   5.020   4.622  10.248  0.0491  0.3329  0.2103
   61SAPC    HX 4741   4.954   4.549  10.299  0.4394 -0.0789  0.1331
   61SAPC    HY 4742   5.090   4.641  10.332  0.3695  0.1763 -0.0193
   61SAPC   O31 4743   5.098   4.570  10.133  0.0791 -0.4297 -0.3056
   61SAPC   C31 4744   5.036   4.469  10.079 -0.6273 -0.4628 -0.1028
   61SAPC   O32 4745   4.926   4.426  10.112  0.1046 -0.2201 -0.1823
   61SAPC   C32 4746   5.115   4.415   9.955  0.4734  0.2033 -0.0861
   61SAPC   H2X 4747   5.156   4.314   9.977  0.8480  0.5778  1.0173
   61SAPC   H2Y 4748   5.205   4.478   9.934  1.4421 -1.0679  0.1418
   61SAPC   C23 4749   4.707   4.872   9.792 -0.8277  0.2760  0.1221
   61SAPC   H3R 4750   4.785   4.847   9.718 -0.1915  1.9756  0.1974
   61SAPC   H3S 4751   4.724   4.975   9.829  0.8146  0.3056 -0.6503
   61SAPC   C24 4752   4.578   4.843   9.715 -0.0535  0.4575 -0.0727
   61SAPC   H4R 4753   4.558   4.922   9.639 -0.1596  0.9686  0.4763
   61SAPC   H4S 4754   4.504   4.868   9.794 -0.2699 -0.9399  0.1914
   61SAPC   C25 4755   4.573   4.699   9.668 -0.1519  0.8102  0.0562
   61SAPC   H5R 4756   4.532   4.621   9.734  1.9020 -1.4833 -1.1957
   61SAPC   C26 4757   4.614   4.664   9.545 -0.0470  0.4820  0.0794
   61SAPC   H6R 4758   4.588   4.562   9.514 -3.1642  1.3807 -0.6404
   61SAPC   C27 4759   4.676   4.752   9.437  0.8769 -0.3041  0.1601
   61SAPC   H7R 4760   4.727   4.683   9.366  0.0412 -0.6315 -0.1366
   61SAPC   H7S 4761   4.753   4.814   9.487 -1.6155  2.2913  1.0093
   61SAPC   C28 4762   4.562   4.820   9.360  0.0776 -1.2183  0.2744
   61SAPC   H8R 4763   4.517   4.905   9.413  1.9048  0.3619 -0.5973
   61SAPC   C29 4764   4.525   4.798   9.235  0.0511 -0.7705  0.3963
   61SAPC   H9R 4765   4.448   4.869   9.201  0.6802  0.0684  0.6724
   61SAPC  C210 4766   4.569   4.689   9.136 -0.6425 -0.0940  0.4569
   61SAPC  H10R 4767   4.647   4.623   9.180  0.9901  0.2304 -1.8050
   61SAPC  H10S 4768   4.616   4.739   9.049 -1.1706  0.7670  0.6484
   61SAPC  C211 4769   4.456   4.602   9.085 -0.4149 -0.3607 -0.3122
   61SAPC  H11R 4770   4.398   4.642   9.001  0.4669 -0.3056 -0.9022
   61SAPC  C212 4771   4.419   4.481   9.133  0.3890  0.1156  0.3906
   61SAPC  H12R 4772   4.322   4.445   9.095  0.8188  0.6569 -1.2821
   61SAPC  C213 4773   4.470   4.415   9.264  0.0378  0.3034  0.4997
   61SAPC  H13R 4774   4.478   4.484   9.351 -0.9697  3.1877 -1.5480
   61SAPC  H13S 4775   4.572   4.373   9.256 -0.1851 -0.7892  2.6425
   61SAPC  C214 4776   4.378   4.297   9.295 -0.5060  0.5493  0.0940
   61SAPC  H14R 4777   4.294   4.283   9.226  0.0808  0.9921 -0.7191
   61SAPC  C215 4778   4.394   4.208   9.396 -0.3917  0.2347 -0.3655
   61SAPC  H15R 4779   4.318   4.132   9.420 -1.0467  1.2439  0.9077
   61SAPC  C216 4780   4.508   4.231   9.495  0.3360  0.3500  0.5814
   61SAPC  H16R 4781   4.577   4.307   9.453 -0.2692  1.4592  1.5569
   61SAPC  H16S 4782   4.564   4.135   9.499  1.9351  1.1746 -0.7003
   61SAPC  C217 4783   4.480   4.279   9.633 -0.1699 -0.6750 -0.3350
   61SAPC  H17R 4784   4.383   4.239   9.670  0.0329 -1.2961 -0.4490
   61SAPC  H17S 4785   4.480   4.390   9.633  1.3697 -0.6099 -2.5713
   61SAPC  C218 4786   4.587   4.242   9.737 -0.1163 -0.5102 -0.1557
   61SAPC  H18R 4787   4.686   4.248   9.688 -0.4625 -4.3524 -1.5975
   61SAPC  H18S 4788   4.578   4.134   9.762  0.4785 -0.5343 -0.0427
   61SAPC  C219 4789   4.552   4.317   9.868 -0.2630  0.8179 -0.1143
   61SAPC  H19R 4790   4.453   4.289   9.908 -0.6947  1.6603 -0.5837
   61SAPC  H19S 4791   4.538   4.425   9.848  1.6649  1.1732  0.2567
   61SAPC  C220 4792   4.653   4.311   9.985 -0.1246  0.4408 -0.0483
   61SAPC  H20R 4793   4.620   4.353  10.083 -1.7208  1.7125 -1.0601
   61SAPC  H20S 4794   4.749   4.361   9.959 -1.2520  2.0244 -1.4007
   61SAPC  H20T 4795   4.661   4.202  10.004 -3.5949  0.2258  1.0070
   61SAPC   C33 4796   5.021   4.407   9.834 -0.2164 -0.2570  0.5722
   61SAPC   H3X 4797   4.952   4.494   9.828 -1.1731 -1.0922 -1.2781
   61SAPC   H3Y 4798   4.955   4.319   9.847  2.3364 -2.2043  1.3677
   61SAPC   C34 4799   5.095   4.385   9.703  0.4742 -0.2333  0.0319
   61SAPC   H4X 4800   5.175   4.308   9.711 -0.0213 -0.6353  1.2478
   61SAPC   H4Y 4801   5.147   4.481   9.682 -0.3298 -0.0465 -1.1979
   61SAPC   C35 4802   4.992   4.350   9.596  0.3340  0.2622  0.4763
   61SAPC   H5X 4803   4.897   4.402   9.617  0.1927  0.0898  0.2740
   61SAPC   H5Y 4804   4.989   4.239   9.605  2.1001  0.0930 -0.4111
   61SAPC   C36 4805   5.042   4.390   9.456  0.2608 -0.4950 -0.3981
   61SAPC   H6X 4806   5.127   4.325   9.424 -1.0141 -2.5670  0.2267
   61SAPC   H6Y 4807   5.083   4.493   9.448  1.6137 -1.1483 -2.7952
   61SAPC   C37 4808   4.938   4.375   9.343 -0.4616 -0.8272 -0.5918
   61SAPC   H7X 4809   4.848   4.436   9.369  0.3132 -1.0955  3.2638
   61SAPC   H7Y 4810   4.906   4.269   9.351 -0.0644 -0.8557  0.8797
   61SAPC   C38 4811   5.006   4.402   9.214  0.1574 -0.5799 -0.2222
   61SAPC   H8X 4812   5.053   4.312   9.169  1.8372  0.0891  0.1029
   61SAPC   H8Y 4813   5.075   4.489   9.224 -2.4679  1.8664 -1.9780
   61SAPC   C39 4814   4.911   4.442   9.099  0.1589 -0.2052 -0.5714
   61SAPC   H9X 4815   4.871   4.543   9.124 -0.1630 -0.6114  0.6526
   61SAPC   H9Y 4816   4.833   4.363   9.108  0.9648 -0.9425  0.0454
   61SAPC  C310 4817   4.985   4.444   8.965 -0.7522 -0.0581 -0.8392
   61SAPC  H10X 4818   5.009   4.340   8.937 -0.9963 -0.0598 -1.0468
   61SAPC  H10Y 4819   5.086   4.491   8.972  0.2694 -1.7466 -2.9732
   61SAPC  C311 4820   4.910   4.514   8.846 -0.2085 -0.5072  0.3276
   61SAPC  H11X 4821   4.984   4.516   8.763  0.8786 -1.8999  1.2151
   61SAPC  H11Y 4822   4.878   4.614   8.882 -0.6743 -0.5827  0.1290
   61SAPC  C312 4823   4.790   4.431   8.798  0.0192 -0.4859  0.1040
   61SAPC  H12X 4824   4.728   4.424   8.889 -0.5419 -1.0068 -0.3132
   61SAPC  H12Y 4825   4.812   4.323   8.786 -0.3285 -0.4041 -1.5046
   61SAPC  C313 4826   4.711   4.491   8.682 -0.0952 -1.0814 -0.0883
   61SAPC  H13X 4827   4.689   4.599   8.699  1.2324 -0.5816 -1.2655
   61SAPC  H13Y 4828   4.614   4.437   8.673  0.4901 -2.1668 -0.0210
   61SAPC  C314 4829   4.781   4.459   8.551 -0.7292  0.1767 -0.4928
   61SAPC  H14X 4830   4.775   4.350   8.528  0.0244  0.0468 -0.0779
   61SAPC  H14Y 4831   4.887   4.486   8.568 -0.4898  1.0327 -2.9443
   61SAPC  C315 4832   4.730   4.526   8.425 -0.4556 -0.0508  0.2419
   61SAPC  H15X 4833   4.780   4.477   8.339 -1.2935 -0.1242 -0.2123
   61SAPC  H15Y 4834   4.751   4.634   8.439  0.5843 -0.1552 -0.3740
   61SAPC  C316 4835   4.586   4.496   8.397  0.0938  0.2861 -0.3522
   61SAPC  H16X 4836   4.521   4.523   8.483 -0.7969 -1.6301 -0.3785
   61SAPC  H16Y 4837   4.592   4.386   8.401  0.6110  0.3143 -0.2719
   61SAPC  C317 4838   4.533   4.539   8.259 -1.0003 -0.1761  0.9072
   61SAPC  H17X 4839   4.592   4.475   8.190  0.8828  0.5970  1.7443
   61SAPC  H17Y 4840   4.557   4.647   8.246  0.8851 -0.5673  0.9626
   61SAPC  C318 4841   4.385   4.503   8.237  0.0355 -0.4344  0.1003
   61SAPC  H18X 4842   4.322   4.536   8.323  0.8689 -0.8892  0.9098
   61SAPC  H18Y 4843   4.368   4.395   8.255 -1.0368  0.1490  3.2875
   61SAPC  H18Z 4844   4.341   4.551   8.147  0.8823 -0.5449 -0.3778
   62SAPC     N 4845   3.209   2.321  10.689  0.6710 -0.5532  0.2310
   62SAPC   C12 4846   3.348   2.335  10.753 -0.2096  0.3277 -0.4228
   62SAPC  H12A 4847   3.342   2.304  10.856  1.7485  1.3840  0.0528
   62SAPC  H12B 4848   3.371   2.441  10.747 -2.4202  0.8163 -1.4672
   62SAPC   C13 4849   3.113   2.387  10.779 -0.5163  0.1672 -0.0994
   62SAPC  H13A 4850   3.114   2.345  10.878  0.4076  3.2036  1.3150
   62SAPC  H13B 4851   3.122   2.495  10.784 -1.7329  0.2384  1.0964
   62SAPC  H13C 4852   3.014   2.368  10.739 -0.3087 -0.1525 -0.4697
   62SAPC   C14 4853   3.201   2.390  10.558 -0.1858 -0.1446 -0.7295
   62SAPC  H14A 4854   3.102   2.388  10.515  0.8574  0.4118 -3.3403
   62SAPC  H14B 4855   3.231   2.492  10.577 -0.2184 -0.9004  5.2456
   62SAPC  H14C 4856   3.264   2.335  10.489  1.5597  0.4925  0.2892
   62SAPC   C15 4857   3.167   2.172  10.673 -0.1842 -0.7910  0.1676
   62SAPC  H15A 4858   3.237   2.121  10.608  0.1417  0.7644 -0.7439
   62SAPC  H15B 4859   3.157   2.126  10.770 -3.9256 -0.6831 -0.0033
   62SAPC  H15C 4860   3.071   2.161  10.624 -1.7434  1.1635  2.5663
   62SAPC   C11 4861   3.468   2.265  10.692 -0.2925  0.6217 -0.5159
   62SAPC  H11A 4862   3.564   2.294  10.739  1.4486 -4.5693 -0.2101
   62SAPC  H11B 4863   3.469   2.298  10.586 -2.8237  2.9200  0.0705
   62SAPC     P 4864   3.552   2.024  10.630 -0.2607 -0.4746 -0.3422
   62SAPC   O13 4865   3.683   2.016  10.692 -0.5071  0.0888  0.4261
   62SAPC   O14 4866   3.483   1.904  10.593 -0.1261  0.6972 -0.3496
   62SAPC   O12 4867   3.453   2.124  10.707  0.0246 -0.0553 -0.6635
   62SAPC   O11 4868   3.569   2.097  10.499 -0.3751  0.1518 -0.7851
   62SAPC    C1 4869   3.688   2.112  10.430 -0.4246  0.8634  0.7211
   62SAPC    HA 4870   3.773   2.050  10.466 -1.8497 -1.0026  1.0187
   62SAPC    HB 4871   3.671   2.104  10.320 -1.3713 -0.4799  0.9331
   62SAPC    C2 4872   3.739   2.259  10.453 -0.2042  0.2851 -0.2132
   62SAPC    HS 4873   3.762   2.267  10.561 -0.9239  0.4369 -0.0682
   62SAPC   O21 4874   3.646   2.358  10.410 -0.2260 -0.6099 -0.6462
   62SAPC   C21 4875   3.657   2.474  10.470 -0.2057  0.4603  0.5683
   62SAPC   O22 4876   3.726   2.498  10.571  0.4537  0.0933 -0.1096
   62SAPC   C22 4877   3.573   2.581  10.401 -0.1713 -0.1793  0.1139
   62SAPC   H2R 4878   3.611   2.585  10.297  0.7228 -0.8306  0.4113
   62SAPC   H2S 4879   3.468   2.543  10.399 -0.6520  1.0146  1.0537
   62SAPC    C3 4880   3.870   2.296  10.385 -0.4135 -0.1572 -0.3051
   62SAPC    HX 4881   3.945   2.218  10.408  1.4343  2.0872  1.8114
   62SAPC    HY 4882   3.917   2.389  10.422  0.8580 -1.6764  2.0872
   62SAPC   O31 4883   3.847   2.287  10.240  0.1305 -0.1943 -0.3351
   62SAPC   C31 4884   3.842   2.399  10.174  0.1172  0.0798 -0.1286
   62SAPC   O32 4885   3.864   2.509  10.226  0.3735 -0.2965  0.0362
   62SAPC   C32 4886   3.787   2.377  10.030  0.0568 -0.0262  0.1267
   62SAPC   H2X 4887   3.862   2.416   9.958  0.1609 -0.9387 -0.2666
   62SAPC   H2Y 4888   3.690   2.430  10.020  0.1813 -0.1175 -1.9397
   62SAPC   C23 4889   3.600   2.720  10.471  0.8715 -0.1038 -0.0383
   62SAPC   H3R 4890   3.700   2.765  10.455  0.9209 -0.5409 -1.0227
   62SAPC   H3S 4891   3.574   2.725  10.579 -0.4461  1.9182 -0.3905
   62SAPC   C24 4892   3.510   2.821  10.391 -0.4399 -0.5045 -0.1030
   62SAPC   H4R 4893   3.409   2.776  10.403 -0.7417 -0.2168 -1.4326
   62SAPC   H4S 4894   3.538   2.816  10.284  2.3322 -1.0358  0.5773
   62SAPC   C25 4895   3.501   2.962  10.454  0.4540  0.7533 -0.2416
   62SAPC   H5R 4896   3.441   2.974  10.546  1.4001  1.3967  0.3018
   62SAPC   C26 4897   3.571   3.068  10.407  0.3767 -0.5253 -0.5400
   62SAPC   H6R 4898   3.556   3.166  10.455  2.2088 -0.1276 -0.7110
   62SAPC   C27 4899   3.676   3.072  10.304 -0.3206  0.4195  0.5531
   62SAPC   H7R 4900   3.644   3.003  10.223  1.5398  0.0674  0.0736
   62SAPC   H7S 4901   3.775   3.031  10.334 -0.3925 -1.4954 -1.5670
   62SAPC   C28 4902   3.694   3.205  10.237  0.1244  0.1469 -0.2755
   62SAPC   H8R 4903   3.703   3.294  10.300  1.7998  0.3119 -0.7008
   62SAPC   C29 4904   3.711   3.222  10.100  0.0379  0.4888 -1.2149
   62SAPC   H9R 4905   3.720   3.325  10.061 -0.0452  1.0858  0.2547
   62SAPC  C210 4906   3.703   3.116   9.992 -0.0458 -0.0740  0.5103
   62SAPC  H10R 4907   3.613   3.051  10.000 -0.0133 -0.6007 -2.2016
   62SAPC  H10S 4908   3.783   3.042  10.018 -0.4409 -0.1304  1.6094
   62SAPC  C211 4909   3.720   3.160   9.848  0.7966 -0.6655  0.9164
   62SAPC  H11R 4910   3.767   3.258   9.831 -0.7358  0.1854  1.3976
   62SAPC  C212 4911   3.686   3.079   9.746  0.1965  0.0151 -0.0372
   62SAPC  H12R 4912   3.686   3.129   9.648  0.8552  1.8979  0.8934
   62SAPC  C213 4913   3.628   2.942   9.748 -0.1326  0.4813  0.1817
   62SAPC  H13R 4914   3.578   2.913   9.653  1.3938 -4.0962  0.5478
   62SAPC  H13S 4915   3.555   2.941   9.831  1.7312  0.7279  1.8827
   62SAPC  C214 4916   3.731   2.836   9.774  0.7419  0.3447 -0.4071
   62SAPC  H14R 4917   3.839   2.856   9.764  1.0442 -0.0910  1.5335
   62SAPC  C215 4918   3.697   2.721   9.825  0.3663  0.4856 -0.0122
   62SAPC  H15R 4919   3.774   2.650   9.856  2.2314  1.7253 -1.5715
   62SAPC  C216 4920   3.563   2.666   9.854  0.5128  0.3025  0.2807
   62SAPC  H16R 4921   3.541   2.565   9.813 -1.8669  0.7682  0.2793
   62SAPC  H16S 4922   3.491   2.728   9.797  3.0619  1.2706 -2.1209
   62SAPC  C217 4923   3.526   2.673   9.998  0.2122 -0.1564 -0.1774
   62SAPC  H17R 4924   3.539   2.780  10.025  1.7462  0.0431 -1.5695
   62SAPC  H17S 4925   3.590   2.604  10.058 -0.1837  0.1989  0.6756
   62SAPC  C218 4926   3.386   2.626  10.040  0.6962 -0.0841  0.3138
   62SAPC  H18R 4927   3.304   2.701  10.032 -0.4307 -1.3376 -0.2451
   62SAPC  H18S 4928   3.398   2.604  10.149  0.2903 -4.3875 -0.3183
   62SAPC  C219 4929   3.340   2.490   9.988  0.5129  0.0342 -0.7695
   62SAPC  H19R 4930   3.429   2.425   9.975 -0.3692 -1.9608  2.1433
   62SAPC  H19S 4931   3.294   2.496   9.887 -0.4165  0.5574 -0.3376
   62SAPC  C220 4932   3.245   2.425  10.084 -0.1230 -0.2594 -0.1386
   62SAPC  H20R 4933   3.204   2.339  10.027  2.1245  0.6157 -3.3614
   62SAPC  H20S 4934   3.170   2.496  10.126  0.0852 -0.5320  0.7042
   62SAPC  H20T 4935   3.299   2.390  10.175 -1.1976  1.3976  1.2099
   62SAPC   C33 4936   3.753   2.235   9.990  0.0535  1.1843 -0.1923
   62SAPC   H3X 4937   3.683   2.201  10.069  2.1161  0.7502  1.5160
   62SAPC   H3Y 4938   3.839   2.167   9.972  0.6302  2.1926 -1.4016
   62SAPC   C34 4939   3.668   2.234   9.864 -0.0193  0.1114 -0.3491
   62SAPC   H4X 4940   3.576   2.286   9.900  0.4847  1.7600 -1.3361
   62SAPC   H4Y 4941   3.648   2.127   9.843  0.2846 -0.0597  0.2317
   62SAPC   C35 4942   3.733   2.313   9.740  0.6790 -0.1991  0.0946
   62SAPC   H5X 4943   3.844   2.309   9.749  0.6782  1.0986  0.9783
   62SAPC   H5Y 4944   3.701   2.419   9.749 -3.9757 -1.4001  0.3143
   62SAPC   C36 4945   3.691   2.255   9.609 -0.0263  0.7399  0.0894
   62SAPC   H6X 4946   3.586   2.287   9.590 -0.3920  0.3754  1.3815
   62SAPC   H6Y 4947   3.699   2.145   9.605  1.5991  0.8837 -1.8218
   62SAPC   C37 4948   3.787   2.298   9.500 -0.2722  0.2029 -0.0543
   62SAPC   H7X 4949   3.894   2.284   9.529 -0.0305 -0.0466 -1.0268
   62SAPC   H7Y 4950   3.776   2.408   9.491  3.2774  0.7084  0.4065
   62SAPC   C38 4951   3.753   2.226   9.368  0.5448 -0.8537 -0.0677
   62SAPC   H8X 4952   3.645   2.231   9.343  0.9419  1.5073 -1.7333
   62SAPC   H8Y 4953   3.781   2.120   9.386  0.8712 -0.3042  3.2203
   62SAPC   C39 4954   3.826   2.296   9.255 -0.2849 -0.1887  0.5292
   62SAPC   H9X 4955   3.936   2.292   9.264 -0.1510  1.2213 -0.2216
   62SAPC   H9Y 4956   3.793   2.403   9.254  1.2201  0.3687  2.8708
   62SAPC  C310 4957   3.787   2.224   9.123  0.5080  0.3706 -0.1357
   62SAPC  H10X 4958   3.787   2.114   9.139  0.1791  0.8048  3.8999
   62SAPC  H10Y 4959   3.867   2.258   9.054  0.0025  1.8812 -0.0190
   62SAPC  C311 4960   3.648   2.253   9.064  0.0966 -0.1442 -0.1457
   62SAPC  H11X 4961   3.631   2.363   9.062  0.8781 -0.0234 -0.3702
   62SAPC  H11Y 4962   3.576   2.224   9.143  2.3554 -1.5526  1.4987
   62SAPC  C312 4963   3.603   2.192   8.932 -0.3002 -0.0786  0.7450
   62SAPC  H12X 4964   3.501   2.232   8.910 -2.3292 -4.1155  1.7257
   62SAPC  H12Y 4965   3.589   2.083   8.947  0.0138  0.0708  2.2289
   62SAPC  C313 4966   3.700   2.212   8.815 -0.7359 -0.1138  0.7404
   62SAPC  H13X 4967   3.666   2.166   8.720  0.2591  2.7394 -1.1561
   62SAPC  H13Y 4968   3.798   2.163   8.832 -1.0496 -0.5854  1.1970
   62SAPC  C314 4969   3.728   2.362   8.786  1.0202  0.1546 -0.1992
   62SAPC  H14X 4970   3.820   2.368   8.725  1.0136 -0.1994 -0.2433
   62SAPC  H14Y 4971   3.741   2.407   8.887  1.2646  0.1037 -0.2065
   62SAPC  C315 4972   3.606   2.433   8.718  0.0516  0.1965 -0.0308
   62SAPC  H15X 4973   3.528   2.423   8.796 -0.1223 -1.4632 -0.3621
   62SAPC  H15Y 4974   3.574   2.367   8.634 -0.2354 -1.2548  1.1583
   62SAPC  C316 4975   3.627   2.575   8.671 -0.6032 -0.4135  0.7604
   62SAPC  H16X 4976   3.688   2.582   8.579 -1.6678  3.5227  0.1592
   62SAPC  H16Y 4977   3.676   2.635   8.751 -0.2713 -1.6982  1.5562
   62SAPC  C317 4978   3.495   2.652   8.633 -0.2575  0.4936 -0.1770
   62SAPC  H17X 4979   3.426   2.662   8.719 -0.4539 -2.1675  0.0612
   62SAPC  H17Y 4980   3.437   2.580   8.572 -1.2886  0.1252  1.2062
   62SAPC  C318 4981   3.515   2.781   8.561  0.0381 -0.2511  0.0740
   62SAPC  H18X 4982   3.545   2.760   8.457 -1.0712 -0.0634 -0.3035
   62SAPC  H18Y 4983   3.592   2.831   8.623  2.0995 -2.4800 -0.5452
   62SAPC  H18Z 4984   3.417   2.831   8.544  0.3326 -0.2459 -1.8193
   63SAPC     N 4985   1.932   4.383   5.447 -0.3997 -1.1013  0.3614
   63SAPC   C12 4986   1.836   4.337   5.552 -0.0608 -0.8799  0.6327
   63SAPC  H12A 4987   1.735   4.343   5.515  0.5593  0.8210 -0.8915
   63SAPC  H12B 4988   1.840   4.418   5.624 -0.1842 -0.5155  0.2306
   63SAPC   C13 4989   1.874   4.491   5.354 -0.1260 -0.7710  0.3011
   63SAPC  H13A 4990   1.838   4.572   5.415 -0.4373  0.0547 -0.9329
   63SAPC  H13B 4991   1.938   4.528   5.276 -0.6411  0.4382  0.4326
   63SAPC  H13C 4992   1.789   4.448   5.302  0.4432 -0.2458 -1.1256
   63SAPC   C14 4993   2.052   4.451   5.501 -0.6256  0.3676 -0.4101
   63SAPC  H14A 4994   2.030   4.543   5.552 -1.9076  0.8936 -1.8365
   63SAPC  H14B 4995   2.087   4.390   5.582  1.8159  0.8678 -0.9929
   63SAPC  H14C 4996   2.126   4.465   5.423  1.4243  1.3469  1.6177
   63SAPC   C15 4997   1.973   4.271   5.357 -0.0871  0.7259 -0.0578
   63SAPC  H15A 4998   2.043   4.306   5.283  0.8223 -0.6422  0.1050
   63SAPC  H15B 4999   2.026   4.191   5.408  1.7342  1.3546 -0.8705
   63SAPC  H15C 5000   1.887   4.227   5.309  0.5891 -0.1697 -0.4872
   63SAPC   C11 5001   1.871   4.212   5.633 -0.4601  0.1296 -0.1324
   63SAPC  H11A 5002   1.898   4.130   5.562 -1.3598  0.5858 -1.0226
   63SAPC  H11B 5003   1.778   4.186   5.687  0.6420 -1.6287  1.0665
   63SAPC     P 5004   1.959   4.322   5.852 -0.3349 -0.2536  0.7017
   63SAPC   O13 5005   2.086   4.323   5.929 -0.0021 -0.3971 -0.1071
   63SAPC   O14 5006   1.908   4.453   5.795  0.0830  0.3075  0.1332
   63SAPC   O12 5007   1.979   4.229   5.725  0.1197  0.2493 -0.6796
   63SAPC   O11 5008   1.844   4.256   5.940 -0.1045  0.0633 -0.1634
   63SAPC    C1 5009   1.871   4.121   5.987 -0.2824  0.2087  0.4637
   63SAPC    HA 5010   1.830   4.044   5.919  3.0429 -1.8756  0.5635
   63SAPC    HB 5011   1.978   4.092   5.996 -0.3291 -1.8591 -3.4006
   63SAPC    C2 5012   1.806   4.095   6.129  1.1340  0.4246  0.0119
   63SAPC    HS 5013   1.698   4.115   6.111  0.8907 -1.7433 -1.1888
   63SAPC   O21 5014   1.857   4.194   6.226 -0.2299  0.6761 -0.0488
   63SAPC   C21 5015   1.778   4.235   6.329 -0.4213  0.1429  0.1735
   63SAPC   O22 5016   1.658   4.217   6.333 -0.0399  0.0136  0.0138
   63SAPC   C22 5017   1.858   4.315   6.430 -0.1252  0.4700 -0.4940
   63SAPC   H2R 5018   1.962   4.333   6.394  0.2101 -0.8474 -0.2441
   63SAPC   H2S 5019   1.809   4.413   6.442 -3.9266 -1.1360 -1.5504
   63SAPC    C3 5020   1.815   3.952   6.196  0.0785  0.3066  0.0174
   63SAPC    HX 5021   1.916   3.949   6.242  0.4644 -0.4615 -0.8477
   63SAPC    HY 5022   1.807   3.872   6.119 -1.3819 -2.1348  2.4942
   63SAPC   O31 5023   1.694   3.930   6.277 -0.1514 -0.8087  0.5482
   63SAPC   C31 5024   1.715   3.944   6.409 -0.1984  0.0477 -0.2196
   63SAPC   O32 5025   1.822   3.944   6.466  0.2826 -0.2718  0.1257
   63SAPC   C32 5026   1.576   3.941   6.468 -0.5410  0.0935 -0.5294
   63SAPC   H2X 5027   1.524   3.857   6.418 -0.1067 -2.1434  2.5328
   63SAPC   H2Y 5028   1.536   4.042   6.443  2.6205  0.9211 -2.9639
   63SAPC   C23 5029   1.871   4.233   6.561  0.8294  0.2675  0.5151
   63SAPC   H3R 5030   1.935   4.143   6.546 -2.3285 -2.2074  0.8559
   63SAPC   H3S 5031   1.775   4.179   6.572 -0.2764  1.9870 -0.1701
   63SAPC   C24 5032   1.907   4.316   6.681 -0.3983 -0.4145  0.3048
   63SAPC   H4R 5033   1.862   4.418   6.684  2.9376  1.3185 -2.2845
   63SAPC   H4S 5034   2.011   4.351   6.671  0.0917 -2.2414 -1.8571
   63SAPC   C25 5035   1.871   4.250   6.814  0.2472 -0.2502 -0.1902
   63SAPC   H5R 5036   1.944   4.178   6.852 -0.7347 -0.7958  0.7009
   63SAPC   C26 5037   1.766   4.270   6.895  0.4407 -0.6205 -0.1819
   63SAPC   H6R 5038   1.753   4.208   6.984 -3.6671 -0.2759 -0.3407
   63SAPC   C27 5039   1.646   4.367   6.873  0.9421  0.0003  0.4208
   63SAPC   H7R 5040   1.548   4.314   6.868  0.7590  0.4247 -2.3380
   63SAPC   H7S 5041   1.642   4.396   6.765 -1.5460 -0.4075  0.3410
   63SAPC   C28 5042   1.651   4.488   6.958  0.2752 -0.0315  0.2418
   63SAPC   H8R 5043   1.721   4.570   6.934 -2.5418  1.7993 -2.4306
   63SAPC   C29 5044   1.599   4.492   7.081  0.1290  0.3652 -0.4522
   63SAPC   H9R 5045   1.613   4.585   7.138 -1.1615  2.2894 -3.0534
   63SAPC  C210 5046   1.520   4.379   7.143  0.3470  0.1915 -0.3843
   63SAPC  H10R 5047   1.571   4.363   7.240  0.4831 -0.4563 -0.5572
   63SAPC  H10S 5048   1.542   4.287   7.084 -0.0110 -0.9410  1.1647
   63SAPC  C211 5049   1.377   4.405   7.163  0.8561 -0.3609 -0.2474
   63SAPC  H11R 5050   1.318   4.417   7.071 -0.3919  0.3359  0.6151
   63SAPC  C212 5051   1.304   4.415   7.271  0.2132 -0.5866 -0.6615
   63SAPC  H12R 5052   1.204   4.459   7.259  1.1601  1.9906  0.1113
   63SAPC  C213 5053   1.366   4.408   7.410  0.7251 -0.0169 -0.3570
   63SAPC  H13R 5054   1.458   4.346   7.419 -0.7350 -2.5068 -1.5870
   63SAPC  H13S 5055   1.301   4.344   7.474  2.9494 -1.1991  0.8304
   63SAPC  C214 5056   1.407   4.533   7.476 -0.0411  1.1251 -0.2766
   63SAPC  H14R 5057   1.468   4.599   7.412  0.6037  0.9737  0.1713
   63SAPC  C215 5058   1.361   4.565   7.601 -0.2986  1.0095  0.0429
   63SAPC  H15R 5059   1.394   4.661   7.643  1.1347  2.2761 -3.6205
   63SAPC  C216 5060   1.262   4.490   7.693  0.2055  0.1148  0.1498
   63SAPC  H16R 5061   1.310   4.399   7.736  1.5398  0.7728  0.0937
   63SAPC  H16S 5062   1.181   4.446   7.631  1.4330  1.0429 -2.2583
   63SAPC  C217 5063   1.213   4.571   7.814  0.0023  0.1314  0.2615
   63SAPC  H17R 5064   1.135   4.512   7.865  0.7496 -0.0282  1.2570
   63SAPC  H17S 5065   1.167   4.666   7.781 -0.7144 -0.7066 -1.2628
   63SAPC  C218 5066   1.328   4.592   7.914 -0.1310  0.0016 -0.0764
   63SAPC  H18R 5067   1.399   4.664   7.868  0.0865 -0.4577 -0.4715
   63SAPC  H18S 5068   1.372   4.491   7.932 -1.2686 -0.2847  1.2741
   63SAPC  C219 5069   1.294   4.643   8.056 -0.6847 -0.2507  0.4543
   63SAPC  H19R 5070   1.242   4.741   8.048 -0.0210  0.1513  1.0167
   63SAPC  H19S 5071   1.392   4.666   8.102 -0.1085  0.1702 -0.9422
   63SAPC  C220 5072   1.232   4.539   8.144 -0.0427  0.1809 -0.1219
   63SAPC  H20R 5073   1.298   4.450   8.140  0.3909  0.4637  0.5674
   63SAPC  H20S 5074   1.132   4.509   8.106 -0.5012  0.4366  0.8316
   63SAPC  H20T 5075   1.225   4.570   8.251 -0.9636  3.7768 -1.0743
   63SAPC   C33 5076   1.581   3.925   6.620 -0.5852  0.7477 -0.6227
   63SAPC   H3X 5077   1.634   4.017   6.654 -1.0216  0.3898  1.1250
   63SAPC   H3Y 5078   1.640   3.836   6.650 -2.0343 -0.3136 -0.8251
   63SAPC   C34 5079   1.451   3.901   6.681  0.9517  0.1009 -0.2092
   63SAPC   H4X 5080   1.391   3.819   6.636 -0.9002  0.3215  1.7000
   63SAPC   H4Y 5081   1.384   3.989   6.677 -0.4334 -0.7423  2.1979
   63SAPC   C35 5082   1.466   3.882   6.830 -0.1628  0.5731  0.4936
   63SAPC   H5X 5083   1.570   3.903   6.861  0.2511 -0.6503 -0.0163
   63SAPC   H5Y 5084   1.458   3.773   6.852  2.1102 -0.1759 -1.8826
   63SAPC   C36 5085   1.365   3.969   6.910  0.0888  0.3380  0.2852
   63SAPC   H6X 5086   1.267   3.961   6.857 -1.3151  2.2136  2.4449
   63SAPC   H6Y 5087   1.397   4.074   6.895 -1.5324  0.4262 -3.7568
   63SAPC   C37 5088   1.353   3.937   7.060 -0.4473 -0.1466  0.4886
   63SAPC   H7X 5089   1.457   3.918   7.095  0.0918  1.8996  0.1140
   63SAPC   H7Y 5090   1.305   3.838   7.076  0.6468 -0.8294 -0.2728
   63SAPC   C38 5091   1.276   4.047   7.138 -0.6343  0.2919  0.3980
   63SAPC   H8X 5092   1.207   4.088   7.061 -1.8104 -1.8595  0.2084
   63SAPC   H8Y 5093   1.340   4.130   7.174 -1.6418  1.6697 -0.8637
   63SAPC   C39 5094   1.186   3.988   7.252  0.5329  0.0190 -0.3807
   63SAPC   H9X 5095   1.262   3.967   7.330  0.9528  0.7161 -0.5962
   63SAPC   H9Y 5096   1.137   3.894   7.218  1.8382 -1.1172  0.7234
   63SAPC  C310 5097   1.106   4.104   7.314 -0.2371  0.3813 -0.1342
   63SAPC  H10X 5098   1.029   4.119   7.235 -0.4038 -0.2186 -0.0867
   63SAPC  H10Y 5099   1.178   4.189   7.325 -0.3432  0.6119 -1.1349
   63SAPC  C311 5100   1.056   4.057   7.452 -0.1500  0.5805 -0.3843
   63SAPC  H11X 5101   1.139   4.004   7.505 -1.5593 -1.3679  0.0020
   63SAPC  H11Y 5102   0.973   3.983   7.446 -0.0385  0.3442  0.7325
   63SAPC  C312 5103   1.008   4.170   7.542 -0.4913  0.0890  0.2457
   63SAPC  H12X 5104   0.927   4.225   7.489 -2.5487 -1.1634  1.8798
   63SAPC  H12Y 5105   1.091   4.239   7.564 -0.2430 -0.5764  1.5558
   63SAPC  C313 5106   0.925   4.109   7.657 -0.7832 -1.7709 -0.0780
   63SAPC  H13X 5107   0.973   4.028   7.715  1.8874  0.4141  1.0051
   63SAPC  H13Y 5108   0.821   4.088   7.623 -0.7194 -3.4717  0.6853
   63SAPC  C314 5109   0.916   4.224   7.767  0.9583 -0.5095  0.4662
   63SAPC  H14X 5110   0.872   4.311   7.714  2.3043 -0.2975 -0.3648
   63SAPC  H14Y 5111   1.019   4.258   7.791  1.5838 -0.8003 -1.5437
   63SAPC  C315 5112   0.832   4.194   7.889 -0.5587 -0.2383 -0.0271
   63SAPC  H15X 5113   0.881   4.114   7.949 -0.7650 -0.2268  0.1614
   63SAPC  H15Y 5114   0.738   4.138   7.869  0.3033 -3.0211  2.8597
   63SAPC  C316 5115   0.802   4.318   7.980  0.1499  0.1444  0.3559
   63SAPC  H16X 5116   0.770   4.400   7.913 -0.1646 -1.1057 -1.0781
   63SAPC  H16Y 5117   0.897   4.351   8.026 -0.2657 -2.3412  3.3598
   63SAPC  C317 5118   0.696   4.295   8.082 -0.3188  0.2670  0.6469
   63SAPC  H17X 5119   0.604   4.275   8.024  0.8572  0.0536 -1.2403
   63SAPC  H17Y 5120   0.685   4.394   8.132 -1.4374  1.6764 -2.1821
   63SAPC  C318 5121   0.723   4.182   8.184 -0.4627 -0.3176 -0.1313
   63SAPC  H18X 5122   0.684   4.088   8.141 -0.2879 -0.4079 -0.0949
   63SAPC  H18Y 5123   0.661   4.198   8.275 -0.4319  1.1668 -0.3457
   63SAPC  H18Z 5124   0.831   4.180   8.211  0.2659 -0.2385 -2.8219
   64SAPC     N 5125   4.404   4.763   5.940  0.1113 -0.0362  0.9774
   64SAPC   C12 5126   4.359   4.782   6.086 -0.1929  0.9163  0.5250
   64SAPC  H12A 5127   4.252   4.769   6.097  0.0220  0.1867  1.9603
   64SAPC  H12B 5128   4.372   4.887   6.107 -1.1413  0.8538  1.5820
   64SAPC   C13 5129   4.301   4.830   5.849  0.1745 -0.0495 -0.6402
   64SAPC  H13A 5130   4.198   4.804   5.868 -0.2577  2.2820  0.6347
   64SAPC  H13B 5131   4.302   4.937   5.865 -0.7157 -0.3038  1.4395
   64SAPC  H13C 5132   4.323   4.807   5.746 -2.5459 -2.4229 -0.8265
   64SAPC   C14 5133   4.545   4.809   5.905  0.3198 -0.0867 -0.0077
   64SAPC  H14A 5134   4.542   4.914   5.877 -0.1914  0.0832  0.6482
   64SAPC  H14B 5135   4.600   4.800   5.997 -1.5714 -0.9304  1.1016
   64SAPC  H14C 5136   4.586   4.744   5.830 -0.2077 -0.9805  0.4701
   64SAPC   C15 5137   4.404   4.617   5.907 -0.0046 -0.1310 -0.1471
   64SAPC  H15A 5138   4.421   4.599   5.801  1.4269 -0.3885  0.1025
   64SAPC  H15B 5139   4.479   4.568   5.967  1.4051  1.1642 -0.7861
   64SAPC  H15C 5140   4.309   4.581   5.943  0.1028 -1.5567 -1.1789
   64SAPC   C11 5141   4.442   4.704   6.198  0.2162 -0.3613  0.0413
   64SAPC  H11A 5142   4.435   4.752   6.298 -0.0214 -0.1796 -0.0619
   64SAPC  H11B 5143   4.546   4.710   6.160 -1.1736  2.2221 -3.9502
   64SAPC     P 5144   4.507   4.455   6.248 -0.4768  0.4694  0.2332
   64SAPC   O13 5145   4.422   4.346   6.290  0.5548 -0.5066 -0.1754
   64SAPC   O14 5146   4.594   4.431   6.130  0.1212 -0.3791  0.5587
   64SAPC   O12 5147   4.408   4.570   6.200  0.0006  0.1448 -0.3571
   64SAPC   O11 5148   4.588   4.506   6.375  0.6729 -0.1621 -0.3700
   64SAPC    C1 5149   4.725   4.547   6.372 -0.2379 -0.4848  0.7913
   64SAPC    HA 5150   4.776   4.471   6.309 -0.2205  0.4664 -0.3890
   64SAPC    HB 5151   4.732   4.647   6.323 -2.9372  0.0599  1.3855
   64SAPC    C2 5152   4.793   4.555   6.509  0.3974  0.2917 -0.2705
   64SAPC    HS 5153   4.903   4.566   6.500  0.1947  2.4980 -0.4666
   64SAPC   O21 5154   4.778   4.432   6.583  0.2057  0.1536  0.3873
   64SAPC   C21 5155   4.809   4.311   6.537  0.8032 -0.3510 -0.1726
   64SAPC   O22 5156   4.854   4.287   6.427 -0.2317 -0.4138  0.1349
   64SAPC   C22 5157   4.776   4.210   6.640  0.4628  0.2025  0.9708
   64SAPC   H2R 5158   4.812   4.226   6.744  1.0508 -2.4271  1.2552
   64SAPC   H2S 5159   4.667   4.192   6.647  0.5507  0.3363  3.4099
   64SAPC    C3 5160   4.742   4.671   6.594  0.3158  0.3265  0.1579
   64SAPC    HX 5161   4.632   4.681   6.602  0.4328  0.5756  1.5922
   64SAPC    HY 5162   4.767   4.754   6.524 -2.3403  1.7913  0.8424
   64SAPC   O31 5163   4.822   4.693   6.715 -0.1002 -0.8559  0.5183
   64SAPC   C31 5164   4.752   4.676   6.819  0.2605  0.1510  0.5423
   64SAPC   O32 5165   4.638   4.633   6.829  0.2929  0.3688 -0.4945
   64SAPC   C32 5166   4.842   4.719   6.927  0.8101 -0.1833 -0.0701
   64SAPC   H2X 5167   4.870   4.825   6.909 -0.6580 -0.2486 -3.6071
   64SAPC   H2Y 5168   4.935   4.658   6.922 -1.0308 -3.2893  0.9342
   64SAPC   C23 5169   4.837   4.075   6.597  0.1331 -0.3867 -0.9859
   64SAPC   H3R 5170   4.939   4.089   6.557 -0.4002 -0.4410 -2.3921
   64SAPC   H3S 5171   4.780   4.033   6.511 -1.3338  0.2776 -0.3812
   64SAPC   C24 5172   4.829   3.975   6.717  0.4040 -0.3545 -0.3044
   64SAPC   H4R 5173   4.883   4.014   6.806  0.3270  1.1893 -0.8981
   64SAPC   H4S 5174   4.891   3.890   6.680  1.2090 -0.5227  1.3363
   64SAPC   C25 5175   4.694   3.923   6.751  0.4581  0.2883  0.1898
   64SAPC   H5R 5176   4.649   3.875   6.662 -0.3859  1.0863  0.1676
   64SAPC   C26 5177   4.622   3.930   6.868  0.0083  0.2617 -0.0756
   64SAPC   H6R 5178   4.523   3.882   6.869  0.5443 -0.8980  1.2521
   64SAPC   C27 5179   4.675   3.998   6.990  0.4196 -0.3498 -0.6263
   64SAPC   H7R 5180   4.776   3.963   7.021  0.0871  1.0296  2.3811
   64SAPC   H7S 5181   4.617   3.952   7.074 -0.2501 -0.2754 -1.0399
   64SAPC   C28 5182   4.661   4.153   6.988  0.3559  1.5798 -0.4001
   64SAPC   H8R 5183   4.576   4.179   6.924 -1.0826 -0.4416  0.5972
   64SAPC   C29 5184   4.734   4.239   7.062  0.3242 -0.4302 -0.1506
   64SAPC   H9R 5185   4.704   4.345   7.052 -0.1905 -0.7762 -3.4340
   64SAPC  C210 5186   4.845   4.215   7.159  0.8181 -0.2975  0.0164
   64SAPC  H10R 5187   4.908   4.306   7.170  3.1571 -1.8998  0.9682
   64SAPC  H10S 5188   4.917   4.136   7.128 -0.0950 -0.8510 -0.7270
   64SAPC  C211 5189   4.776   4.181   7.285 -0.0312 -0.1390 -0.8400
   64SAPC  H11R 5190   4.753   4.073   7.291 -1.5710  0.1713 -0.9489
   64SAPC  C212 5191   4.749   4.257   7.393  0.0186 -0.1447  0.4343
   64SAPC  H12R 5192   4.689   4.219   7.476  1.3227  0.7034  1.8096
   64SAPC  C213 5193   4.792   4.404   7.407  0.0845  0.3925 -0.5450
   64SAPC  H13R 5194   4.817   4.463   7.317  1.1164  1.4992  0.4261
   64SAPC  H13S 5195   4.892   4.411   7.455  0.7326 -0.8589 -1.6497
   64SAPC  C214 5196   4.698   4.484   7.494 -0.1134 -0.6243 -0.1339
   64SAPC  H14R 5197   4.622   4.537   7.435 -0.9916 -0.2139  1.3197
   64SAPC  C215 5198   4.697   4.503   7.629  0.2539  0.1985 -0.3670
   64SAPC  H15R 5199   4.616   4.568   7.668  0.9297  0.2170  1.0771
   64SAPC  C216 5200   4.784   4.451   7.740 -0.5073 -0.0408  0.4552
   64SAPC  H16R 5201   4.857   4.531   7.767 -0.1221 -0.0425 -0.5190
   64SAPC  H16S 5202   4.845   4.366   7.703  1.7444  2.2783 -1.6554
   64SAPC  C217 5203   4.692   4.409   7.859  0.7216  0.2535  0.5231
   64SAPC  H17R 5204   4.620   4.338   7.814  1.9408 -1.1284  0.6559
   64SAPC  H17S 5205   4.642   4.499   7.901  0.1030  1.7306 -3.0593
   64SAPC  C218 5206   4.771   4.330   7.969 -0.6453  0.7842 -0.0697
   64SAPC  H18R 5207   4.818   4.237   7.930 -2.9859 -0.3814 -0.2863
   64SAPC  H18S 5208   4.703   4.295   8.050  2.6689 -1.6159  1.9015
   64SAPC  C219 5209   4.879   4.405   8.039 -0.2791 -0.1975 -0.7917
   64SAPC  H19R 5210   4.826   4.493   8.082 -1.9160 -1.7011  0.4177
   64SAPC  H19S 5211   4.957   4.430   7.964  0.6905 -0.6731  0.0379
   64SAPC  C220 5212   4.946   4.327   8.154  0.3537 -0.2738 -0.9546
   64SAPC  H20R 5213   5.007   4.390   8.223 -0.0390 -2.2335  1.3168
   64SAPC  H20S 5214   5.010   4.246   8.114 -0.8140 -2.0006  0.4824
   64SAPC  H20T 5215   4.857   4.287   8.207  0.0064  1.4789 -0.1412
   64SAPC   C33 5216   4.779   4.687   7.070  0.2146  0.1647 -0.2153
   64SAPC   H3X 5217   4.870   4.700   7.133  1.2271  0.7094 -1.7230
   64SAPC   H3Y 5218   4.738   4.585   7.087 -1.6648  1.1218  1.2874
   64SAPC   C34 5219   4.681   4.786   7.112 -0.3971 -0.3113  0.0829
   64SAPC   H4X 5220   4.574   4.759   7.095 -0.9323  1.9513 -0.5085
   64SAPC   H4Y 5221   4.684   4.877   7.048 -0.0115 -0.9440 -0.8310
   64SAPC   C35 5222   4.702   4.831   7.258  0.7527  0.0382  0.4960
   64SAPC   H5X 5223   4.801   4.881   7.270 -0.7511  2.7729  2.9753
   64SAPC   H5Y 5224   4.699   4.740   7.321  0.7058  0.0890  0.5684
   64SAPC   C36 5225   4.591   4.929   7.299  0.0159  0.2701 -0.1639
   64SAPC   H6X 5226   4.489   4.890   7.279 -1.5017  2.2177  2.8691
   64SAPC   H6Y 5227   4.615   5.016   7.235 -0.8499 -1.8243 -3.5710
   64SAPC   C37 5228   4.589   4.973   7.446  0.3924 -0.4607  0.5887
   64SAPC   H7X 5229   4.528   5.065   7.456 -1.1791 -1.1030 -2.0661
   64SAPC   H7Y 5230   4.690   5.001   7.483  1.4227 -4.3614  1.2586
   64SAPC   C38 5231   4.538   4.875   7.545  0.2557  0.1486 -1.1131
   64SAPC   H8X 5232   4.605   4.788   7.561 -1.4419 -0.7154  2.2245
   64SAPC   H8Y 5233   4.435   4.849   7.512  0.3535 -0.9605 -0.6118
   64SAPC   C39 5234   4.519   4.940   7.681 -0.2669  0.4399 -0.3184
   64SAPC   H9X 5235   4.449   5.025   7.667 -0.0276  0.8063  0.6533
   64SAPC   H9Y 5236   4.616   4.984   7.711 -1.1299  0.9223  1.9241
   64SAPC  C310 5237   4.475   4.849   7.801  0.5975 -0.5278 -0.0407
   64SAPC  H10X 5238   4.558   4.776   7.813 -0.5514 -2.0152 -0.7166
   64SAPC  H10Y 5239   4.390   4.791   7.758  1.9206 -1.5315 -1.4396
   64SAPC  C311 5240   4.421   4.936   7.918 -0.2214 -0.2247 -0.1128
   64SAPC  H11X 5241   4.352   5.005   7.865 -0.2442 -0.2219 -0.0795
   64SAPC  H11Y 5242   4.499   5.003   7.960 -2.1688  0.7657  2.2159
   64SAPC  C312 5243   4.350   4.860   8.037  0.1757 -0.0541  0.0633
   64SAPC  H12X 5244   4.431   4.799   8.084 -0.7186 -1.2148  0.1424
   64SAPC  H12Y 5245   4.281   4.790   7.985  0.5886  0.8984 -1.8578
   64SAPC  C313 5246   4.293   4.961   8.138  0.2155  0.2657 -0.0641
   64SAPC  H13X 5247   4.221   5.026   8.084  1.6983 -0.0799 -2.6063
   64SAPC  H13Y 5248   4.368   5.032   8.180 -0.6708  1.7128 -0.8353
   64SAPC  C314 5249   4.214   4.886   8.240 -0.2354 -0.1149 -0.4840
   64SAPC  H14X 5250   4.285   4.842   8.313 -0.3647 -1.1281 -0.9437
   64SAPC  H14Y 5251   4.163   4.798   8.196 -0.9567  0.1717 -0.2291
   64SAPC  C315 5252   4.102   4.967   8.307  0.7458  0.3550 -0.1143
   64SAPC  H15X 5253   4.047   4.898   8.374  3.8766 -1.0840  1.1344
   64SAPC  H15Y 5254   4.029   4.998   8.229 -0.0691  0.7427  0.7751
   64SAPC  C316 5255   4.156   5.089   8.384  0.3068  0.3687  0.1378
   64SAPC  H16X 5256   4.241   5.129   8.323  0.5195 -0.0608  0.1513
   64SAPC  H16Y 5257   4.205   5.062   8.479  1.6179  1.3056 -0.2417
   64SAPC  C317 5258   4.052   5.196   8.410 -0.1255  0.1793 -0.2035
   64SAPC  H17X 5259   3.979   5.156   8.483 -0.7987 -2.2211 -2.0602
   64SAPC  H17Y 5260   3.991   5.218   8.319  0.9920 -0.5498 -1.1512
   64SAPC  C318 5261   4.107   5.329   8.471 -0.6246 -0.2542 -0.5317
   64SAPC  H18X 5262   4.212   5.338   8.436 -1.1499  0.7593 -1.9328
   64SAPC  H18Y 5263   4.114   5.336   8.582  0.3178  1.9645 -0.6835
   64SAPC  H18Z 5264   4.063   5.422   8.428  0.8884  1.4565  1.4580
   65SAPC     N 5265   1.876   6.192   5.524 -0.0777  0.3227 -0.1857
   65SAPC   C12 5266   1.899   6.209   5.670 -0.8424  0.7973 -0.5241
   65SAPC  H12A 5267   1.805   6.242   5.710 -0.0613 -0.1916  2.4855
   65SAPC  H12B 5268   1.969   6.290   5.688 -2.5767  1.9859  1.3000
   65SAPC   C13 5269   1.817   6.056   5.493 -0.2652  0.1074 -0.6052
   65SAPC  H13A 5270   1.711   6.047   5.512  0.0470  1.0864  2.0206
   65SAPC  H13B 5271   1.826   6.041   5.387  1.6486  0.4052 -0.5078
   65SAPC  H13C 5272   1.874   5.977   5.540 -2.6515 -0.2616  1.9227
   65SAPC   C14 5273   1.787   6.309   5.479 -0.8361  0.4685 -0.1440
   65SAPC  H14A 5274   1.686   6.317   5.517 -0.8434  2.6214 -0.4754
   65SAPC  H14B 5275   1.832   6.398   5.523  0.6231 -1.4800  2.6010
   65SAPC  H14C 5276   1.786   6.310   5.371 -1.4207 -3.7639 -0.3254
   65SAPC   C15 5277   2.009   6.208   5.460 -0.2698 -0.2822 -0.2094
   65SAPC  H15A 5278   2.011   6.175   5.357 -1.4918  2.9663 -1.3999
   65SAPC  H15B 5279   2.042   6.311   5.457 -0.6539 -0.1727 -1.3330
   65SAPC  H15C 5280   2.081   6.149   5.514  0.7428  0.3151 -0.8914
   65SAPC   C11 5281   1.957   6.089   5.747 -0.1658  0.0605 -0.2930
   65SAPC  H11A 5282   1.913   5.991   5.718 -0.6814  0.5124 -1.0317
   65SAPC  H11B 5283   1.930   6.093   5.855 -3.7355  0.0628 -1.0858
   65SAPC     P 5284   2.191   6.163   5.817  0.1172 -0.1559 -0.1413
   65SAPC   O13 5285   2.323   6.148   5.760  0.0611  0.2291 -0.2353
   65SAPC   O14 5286   2.140   6.301   5.840 -0.0110  0.2656  0.3805
   65SAPC   O12 5287   2.097   6.092   5.719  0.3607  0.0973  0.6941
   65SAPC   O11 5288   2.187   6.079   5.951  0.0335 -0.5281 -0.3946
   65SAPC    C1 5289   2.229   5.945   5.958  0.4447  0.4961 -1.0123
   65SAPC    HA 5290   2.231   5.897   5.858  3.1458 -0.1374 -0.7424
   65SAPC    HB 5291   2.331   5.938   6.002  0.4769 -2.1066 -1.3582
   65SAPC    C2 5292   2.149   5.865   6.063  0.5955  0.5223  0.5232
   65SAPC    HS 5293   2.045   5.843   6.032  0.2169 -0.2342  2.2104
   65SAPC   O21 5294   2.162   5.934   6.188  0.1078 -0.1169  0.2576
   65SAPC   C21 5295   2.070   6.027   6.212 -0.7163  0.0764  0.1935
   65SAPC   O22 5296   1.966   6.039   6.147  0.5135 -0.2431  0.1608
   65SAPC   C22 5297   2.118   6.126   6.326 -0.0290 -0.2104  0.3284
   65SAPC   H2R 5298   2.151   6.062   6.411 -1.7927 -0.7467  0.6580
   65SAPC   H2S 5299   2.200   6.191   6.290 -0.0703 -0.4835 -0.2741
   65SAPC    C3 5300   2.202   5.725   6.091 -0.9046 -0.1624  0.2559
   65SAPC    HX 5301   2.307   5.733   6.127 -0.8172  0.3912 -0.1121
   65SAPC    HY 5302   2.207   5.665   5.997  0.9874 -2.3393  1.6304
   65SAPC   O31 5303   2.127   5.651   6.189  0.2063  0.2993 -0.1611
   65SAPC   C31 5304   2.184   5.542   6.240 -0.2608 -0.2181  0.0780
   65SAPC   O32 5305   2.300   5.506   6.220 -0.2918 -0.1706 -0.0170
   65SAPC   C32 5306   2.078   5.467   6.319 -0.3919 -0.3343  0.2402
   65SAPC   H2X 5307   2.064   5.381   6.250  1.2599 -0.5456  0.1281
   65SAPC   H2Y 5308   1.986   5.529   6.332  0.3984  1.2253 -1.1601
   65SAPC   C23 5309   2.014   6.227   6.386  0.4318  0.4087  0.1280
   65SAPC   H3R 5310   2.046   6.240   6.491 -1.2923 -3.0568  1.2279
   65SAPC   H3S 5311   1.914   6.179   6.392 -0.7150  2.6337 -0.2487
   65SAPC   C24 5312   1.996   6.363   6.308  0.4025 -0.0807 -0.7319
   65SAPC   H4R 5313   1.907   6.409   6.355  0.0209 -1.3456 -0.1774
   65SAPC   H4S 5314   1.968   6.334   6.204 -0.5265  1.7877 -1.0456
   65SAPC   C25 5315   2.119   6.454   6.317  0.3717 -0.3974 -0.4231
   65SAPC   H5R 5316   2.178   6.469   6.225  1.2221  0.5136  0.2463
   65SAPC   C26 5317   2.171   6.505   6.434 -0.4147  0.8308  0.3737
   65SAPC   H6R 5318   2.265   6.562   6.433 -0.3719  0.7551 -0.0489
   65SAPC   C27 5319   2.116   6.481   6.571  0.6642 -0.1200  0.0413
   65SAPC   H7R 5320   2.198   6.433   6.629  1.1462  0.5980 -0.0308
   65SAPC   H7S 5321   2.030   6.411   6.568  0.2307  0.2774  1.8844
   65SAPC   C28 5322   2.079   6.608   6.639 -0.6218 -0.2407  0.5105
   65SAPC   H8R 5323   2.078   6.700   6.579  0.3001  1.5460  3.0540
   65SAPC   C29 5324   2.059   6.624   6.772  0.0474  0.4257  0.0809
   65SAPC   H9R 5325   2.040   6.723   6.816 -0.0333 -0.4186  2.0653
   65SAPC  C210 5326   2.086   6.520   6.881 -0.1574  0.1178  0.4260
   65SAPC  H10R 5327   2.135   6.572   6.965  0.5399 -0.4724  0.3940
   65SAPC  H10S 5328   2.165   6.455   6.839  0.0390 -0.3719  1.5208
   65SAPC  C211 5329   1.967   6.433   6.912  0.6700  0.4038 -0.4699
   65SAPC  H11R 5330   1.925   6.373   6.830  0.4465 -1.0080  0.6377
   65SAPC  C212 5331   1.895   6.417   7.026  0.1571  0.1120  0.0761
   65SAPC  H12R 5332   1.809   6.350   7.031 -1.3790  2.0301  0.5294
   65SAPC  C213 5333   1.923   6.496   7.153  0.3799  0.5706 -0.0032
   65SAPC  H13R 5334   2.027   6.534   7.159  1.4042 -1.0900 -4.0361
   65SAPC  H13S 5335   1.904   6.429   7.240 -4.8404  1.2673 -0.2368
   65SAPC  C214 5336   1.827   6.609   7.158  0.1221  0.4889  0.6737
   65SAPC  H14R 5337   1.838   6.680   7.075 -3.6956  0.2778 -0.1805
   65SAPC  C215 5338   1.721   6.628   7.239  0.7018 -0.0912  0.0703
   65SAPC  H15R 5339   1.647   6.704   7.209  0.2640 -0.9867 -1.1970
   65SAPC  C216 5340   1.692   6.539   7.351 -0.1435  0.3557  0.3992
   65SAPC  H16R 5341   1.757   6.449   7.359 -0.4466  0.1427  0.4605
   65SAPC  H16S 5342   1.590   6.495   7.351 -0.1754  0.3111 -1.8942
   65SAPC  C217 5343   1.729   6.606   7.479 -0.3002  0.2918 -0.8976
   65SAPC  H17R 5344   1.700   6.713   7.483  3.1074  1.3261  0.3708
   65SAPC  H17S 5345   1.838   6.620   7.497 -0.4742  0.3007  0.2556
   65SAPC  C218 5346   1.676   6.539   7.612  0.2694  0.1353  0.2792
   65SAPC  H18R 5347   1.718   6.437   7.623 -0.6021 -0.2008  0.6265
   65SAPC  H18S 5348   1.569   6.512   7.596  0.7153 -0.4831 -2.0290
   65SAPC  C219 5349   1.697   6.622   7.744 -0.4282  0.3885  0.3206
   65SAPC  H19R 5350   1.661   6.726   7.730  0.7599  0.8228  0.3244
   65SAPC  H19S 5351   1.801   6.616   7.783 -0.5704 -0.7488  0.5843
   65SAPC  C220 5352   1.620   6.552   7.863  0.7690  0.5660  0.3423
   65SAPC  H20R 5353   1.510   6.561   7.847  0.4291 -0.3398  1.9260
   65SAPC  H20S 5354   1.635   6.596   7.964 -1.3725  3.1705 -0.3573
   65SAPC  H20T 5355   1.662   6.451   7.883 -2.7985 -1.1312  0.0342
   65SAPC   C33 5356   2.130   5.413   6.449  0.2501 -0.2099  0.6165
   65SAPC   H3X 5357   2.224   5.357   6.431  0.8587 -0.0417  2.9490
   65SAPC   H3Y 5358   2.058   5.337   6.487 -0.0219 -0.6291 -0.6781
   65SAPC   C34 5359   2.166   5.523   6.552  0.3484  0.3574 -0.7939
   65SAPC   H4X 5360   2.067   5.559   6.587  0.1494  0.8742 -1.8501
   65SAPC   H4Y 5361   2.217   5.609   6.505 -1.3246  1.2572 -1.0293
   65SAPC   C35 5362   2.262   5.473   6.666 -0.4606 -0.2471  0.3334
   65SAPC   H5X 5363   2.296   5.559   6.728  3.2938 -1.5817  0.4106
   65SAPC   H5Y 5364   2.354   5.443   6.611 -1.7510 -1.5626 -1.2111
   65SAPC   C36 5365   2.209   5.364   6.757 -0.1079 -0.7786  0.1658
   65SAPC   H6X 5366   2.158   5.285   6.697 -2.1074  0.8169 -0.3647
   65SAPC   H6Y 5367   2.122   5.411   6.809  1.9500  2.3136  1.1020
   65SAPC   C37 5368   2.321   5.325   6.850  0.2483 -0.3475  0.3659
   65SAPC   H7X 5369   2.343   5.415   6.911  1.2448  0.5544 -1.2514
   65SAPC   H7Y 5370   2.416   5.290   6.803  0.1145  0.9707 -0.9582
   65SAPC   C38 5371   2.269   5.225   6.944 -0.4612 -0.4166  0.0196
   65SAPC   H8X 5372   2.188   5.158   6.908 -2.0887  1.6830 -0.3984
   65SAPC   H8Y 5373   2.211   5.283   7.018  0.2571  0.1854  0.1224
   65SAPC   C39 5374   2.380   5.155   7.026 -0.0342 -0.4857 -0.6148
   65SAPC   H9X 5375   2.453   5.114   6.953 -1.3022 -1.0849 -1.5743
   65SAPC   H9Y 5376   2.330   5.063   7.064 -2.6109  0.2010 -2.1189
   65SAPC  C310 5377   2.420   5.228   7.159 -0.2487  0.1421  0.3634
   65SAPC  H10X 5378   2.333   5.250   7.224  0.1266  1.1545  0.5525
   65SAPC  H10Y 5379   2.463   5.323   7.119  1.3871 -0.6001  0.2714
   65SAPC  C311 5380   2.514   5.138   7.244  1.0281 -1.0399 -0.1030
   65SAPC  H11X 5381   2.608   5.114   7.189  0.5696 -1.1928 -0.8331
   65SAPC  H11Y 5382   2.460   5.042   7.264 -1.1608  0.0455 -0.5038
   65SAPC  C312 5383   2.539   5.191   7.385  0.2987 -0.4789 -0.0253
   65SAPC  H12X 5384   2.441   5.231   7.418 -0.7256 -2.1826 -0.8941
   65SAPC  H12Y 5385   2.621   5.267   7.383 -0.0974  0.0053  1.2875
   65SAPC  C313 5386   2.590   5.086   7.486 -0.2633 -0.1314  0.6339
   65SAPC  H13X 5387   2.677   5.031   7.444  0.2213 -1.5675  3.2927
   65SAPC  H13Y 5388   2.506   5.013   7.492 -0.9501  0.5202 -0.5395
   65SAPC  C314 5389   2.627   5.133   7.627 -0.1451 -0.1458  0.0654
   65SAPC  H14X 5390   2.702   5.213   7.608  0.3600 -0.6638 -0.1458
   65SAPC  H14Y 5391   2.658   5.044   7.687  0.2631  0.8382  1.3594
   65SAPC  C315 5392   2.505   5.190   7.701  0.2744  0.6233  0.5253
   65SAPC  H15X 5393   2.429   5.109   7.698  0.5276  0.3852 -1.9597
   65SAPC  H15Y 5394   2.471   5.273   7.636 -0.4368  0.4909  0.7195
   65SAPC  C316 5395   2.511   5.232   7.846 -0.1431 -0.1463  0.1473
   65SAPC  H16X 5396   2.554   5.141   7.892 -0.2110 -1.9459 -3.0340
   65SAPC  H16Y 5397   2.413   5.252   7.893  0.3595 -0.0215  1.1591
   65SAPC  C317 5398   2.611   5.345   7.862  0.4721  0.3713 -0.2984
   65SAPC  H17X 5399   2.714   5.312   7.835  1.8205  4.7380 -1.2430
   65SAPC  H17Y 5400   2.602   5.369   7.970 -0.4038 -3.3600  0.6049
   65SAPC  C318 5401   2.581   5.469   7.783  0.1324  0.6757  0.0384
   65SAPC  H18X 5402   2.591   5.466   7.673  0.3360  0.4606  0.0600
   65SAPC  H18Y 5403   2.641   5.556   7.820 -0.6139  1.6422 -0.9928
   65SAPC  H18Z 5404   2.476   5.501   7.798 -0.0038  0.0786  0.4143
   66SAPC     N 5405   2.201   4.643   6.094 -0.2927 -0.3960  0.5292
   66SAPC   C12 5406   2.293   4.562   6.177 -0.2006  0.5206  0.3886
   66SAPC  H12A 5407   2.299   4.463   6.133 -2.0691  0.2463  0.6833
   66SAPC  H12B 5408   2.248   4.550   6.274  0.6906  1.2811  0.9140
   66SAPC   C13 5409   2.200   4.788   6.138  0.6709 -0.0665 -0.2887
   66SAPC  H13A 5410   2.298   4.831   6.150 -0.7131  2.6949  2.7848
   66SAPC  H13B 5411   2.134   4.851   6.080  0.4214 -1.3096 -1.4068
   66SAPC  H13C 5412   2.172   4.797   6.242  2.5401  0.7697  0.1709
   66SAPC   C14 5413   2.235   4.630   5.948 -0.5047 -0.5436 -0.3016
   66SAPC  H14A 5414   2.192   4.713   5.893  4.1089  1.1466 -1.7933
   66SAPC  H14B 5415   2.340   4.648   5.934 -0.3777 -1.0589 -0.0214
   66SAPC  H14C 5416   2.214   4.536   5.900 -3.2527 -0.8531  1.3034
   66SAPC   C15 5417   2.064   4.588   6.109 -0.3269 -0.2537  0.4895
   66SAPC  H15A 5418   1.989   4.654   6.068 -2.9520 -2.0297  2.1069
   66SAPC  H15B 5419   2.055   4.495   6.054  0.5133  0.1346 -0.3307
   66SAPC  H15C 5420   2.035   4.585   6.213 -0.8608  1.7468  0.4290
   66SAPC   C11 5421   2.442   4.609   6.209 -0.1082 -0.3098  0.4763
   66SAPC  H11A 5422   2.484   4.522   6.263 -0.1450 -0.8894 -0.4002
   66SAPC  H11B 5423   2.432   4.698   6.275 -0.5673 -2.4064  3.4410
   66SAPC     P 5424   2.578   4.507   6.019  0.4167  0.1142  0.0040
   66SAPC   O13 5425   2.484   4.383   6.015  0.7122 -0.4896 -0.3837
   66SAPC   O14 5426   2.636   4.541   5.889 -0.0420 -0.4396 -0.3200
   66SAPC   O12 5427   2.509   4.638   6.085 -0.1249 -0.0035 -0.3420
   66SAPC   O11 5428   2.702   4.465   6.113 -0.1182  0.4961  0.2540
   66SAPC    C1 5429   2.791   4.561   6.177 -0.2926  0.3102  1.0662
   66SAPC    HA 5430   2.873   4.579   6.105 -0.3594  1.2578  1.2191
   66SAPC    HB 5431   2.753   4.664   6.193 -0.3698  0.7686 -1.7286
   66SAPC    C2 5432   2.849   4.510   6.312 -0.0843  0.6833  0.4519
   66SAPC    HS 5433   2.900   4.411   6.311  0.6629  1.0199 -2.1064
   66SAPC   O21 5434   2.738   4.508   6.398 -0.4925  0.4229  0.7314
   66SAPC   C21 5435   2.720   4.399   6.473 -0.2314 -0.2742 -0.3198
   66SAPC   O22 5436   2.783   4.292   6.474  0.0868 -0.5738  0.4097
   66SAPC   C22 5437   2.604   4.419   6.573 -0.0212  0.0723  0.6180
   66SAPC   H2R 5438   2.615   4.520   6.620  2.6721 -0.4433  1.2732
   66SAPC   H2S 5439   2.515   4.427   6.507  0.1468  0.8458  0.4672
   66SAPC    C3 5440   2.948   4.611   6.370  0.2556 -0.2107 -0.4747
   66SAPC    HX 5441   2.891   4.702   6.399  0.3333 -0.2225 -0.2883
   66SAPC    HY 5442   3.022   4.642   6.292 -1.5501 -1.5027 -2.8257
   66SAPC   O31 5443   3.020   4.555   6.491  0.1427 -0.3960 -0.4031
   66SAPC   C31 5444   3.123   4.636   6.527 -0.1451 -0.9112 -0.7403
   66SAPC   O32 5445   3.158   4.733   6.468  0.4545  0.0761  0.2322
   66SAPC   C32 5446   3.184   4.578   6.654  0.9215 -0.2072  0.7887
   66SAPC   H2X 5447   3.254   4.497   6.626 -0.4972 -1.5569  1.0251
   66SAPC   H2Y 5448   3.095   4.532   6.702 -2.4270  2.9864 -1.7616
   66SAPC   C23 5449   2.584   4.315   6.677  0.8708  0.7483 -0.3918
   66SAPC   H3R 5450   2.599   4.210   6.643 -1.7666 -0.5783  2.1258
   66SAPC   H3S 5451   2.479   4.324   6.710 -0.2266 -0.7888 -3.0704
   66SAPC   C24 5452   2.679   4.346   6.792 -0.4933 -0.8759  0.1215
   66SAPC   H4R 5453   2.629   4.423   6.855  1.1597  2.5191 -2.4117
   66SAPC   H4S 5454   2.770   4.398   6.757 -0.8665  0.3883  0.9565
   66SAPC   C25 5455   2.718   4.221   6.865  0.8968  0.3948 -0.4612
   66SAPC   H5R 5456   2.803   4.168   6.817  0.3562  0.3892 -1.4276
   66SAPC   C26 5457   2.664   4.176   6.984 -0.8502 -0.5787 -0.3689
   66SAPC   H6R 5458   2.712   4.090   7.034  0.6545 -0.9348 -2.3028
   66SAPC   C27 5459   2.555   4.252   7.058 -0.1537 -0.3697  0.2110
   66SAPC   H7R 5460   2.570   4.359   7.033 -0.7854 -0.8681 -2.6849
   66SAPC   H7S 5461   2.557   4.236   7.168  1.4802  0.8560  0.4060
   66SAPC   C28 5462   2.428   4.190   6.999 -0.5985 -0.8133  0.4682
   66SAPC   H8R 5463   2.437   4.098   6.940 -0.6500 -1.3029  1.2060
   66SAPC   C29 5464   2.300   4.248   6.999  0.2024  0.5365 -0.2060
   66SAPC   H9R 5465   2.221   4.212   6.931  1.0082 -0.4749 -0.6352
   66SAPC  C210 5466   2.269   4.378   7.071 -0.1089 -0.3703 -0.4145
   66SAPC  H10R 5467   2.333   4.461   7.033 -0.1635  0.1640  0.6481
   66SAPC  H10S 5468   2.300   4.370   7.177  2.4561  5.2207 -0.4050
   66SAPC  C211 5469   2.125   4.425   7.045 -0.7164  0.3465 -0.4657
   66SAPC  H11R 5470   2.102   4.422   6.938 -0.2462  2.0105 -0.6414
   66SAPC  C212 5471   2.032   4.453   7.144 -0.4183 -0.1876  0.1106
   66SAPC  H12R 5472   1.926   4.471   7.124 -0.3867  0.5486  0.5885
   66SAPC  C213 5473   2.070   4.458   7.290  0.0473 -0.1424 -0.6490
   66SAPC  H13R 5474   2.158   4.524   7.306  0.5365 -0.2317 -2.6330
   66SAPC  H13S 5475   2.102   4.353   7.309 -1.4013 -0.8126 -1.7566
   66SAPC  C214 5476   1.972   4.490   7.401 -0.1506 -0.2259 -0.2099
   66SAPC  H14R 5477   1.877   4.435   7.388 -0.4909  0.0215  1.0526
   66SAPC  C215 5478   1.995   4.586   7.501  0.8796 -1.1430 -0.5082
   66SAPC  H15R 5479   1.922   4.603   7.582  0.5533  1.7306 -1.2827
   66SAPC  C216 5480   2.122   4.673   7.517  0.0216 -0.2260 -0.3478
   66SAPC  H16R 5481   2.125   4.765   7.455 -0.6351 -0.0235 -0.0918
   66SAPC  H16S 5482   2.216   4.620   7.496 -0.8575 -1.1315 -2.1851
   66SAPC  C217 5483   2.144   4.709   7.664 -0.0033 -0.3757 -0.5643
   66SAPC  H17R 5484   2.132   4.612   7.716  2.3493 -0.5910 -0.3092
   66SAPC  H17S 5485   2.067   4.776   7.708 -1.5822 -2.8493  0.6973
   66SAPC  C218 5486   2.283   4.771   7.686 -0.8052  0.2925  0.1901
   66SAPC  H18R 5487   2.295   4.865   7.627  0.3415 -0.5792 -1.0119
   66SAPC  H18S 5488   2.359   4.706   7.638 -0.3606  0.8915  0.0619
   66SAPC  C219 5489   2.328   4.780   7.829 -0.5302  0.1905  0.2833
   66SAPC  H19R 5490   2.335   4.674   7.863 -3.1934  0.5658  2.4138
   66SAPC  H19S 5491   2.248   4.817   7.897  1.7261  0.8060  2.7965
   66SAPC  C220 5492   2.453   4.853   7.868 -0.8707  0.1299 -0.3745
   66SAPC  H20R 5493   2.494   4.816   7.964 -0.5300  1.3958 -0.0098
   66SAPC  H20S 5494   2.428   4.960   7.883  0.6472  0.5439 -0.5905
   66SAPC  H20T 5495   2.527   4.840   7.786 -1.2618 -0.6291 -0.6199
   66SAPC   C33 5496   3.248   4.681   6.754  0.2118  0.2904  0.3386
   66SAPC   H3X 5497   3.293   4.771   6.707 -0.0533  0.5774  0.6218
   66SAPC   H3Y 5498   3.337   4.645   6.809  1.6319  3.0325  0.0206
   66SAPC   C34 5499   3.152   4.715   6.872  0.6174  0.2400 -0.1756
   66SAPC   H4X 5500   3.072   4.780   6.831  0.6648  2.5694  3.0267
   66SAPC   H4Y 5501   3.226   4.770   6.934  0.8114 -2.2261  1.9811
   66SAPC   C35 5502   3.107   4.601   6.971 -0.3833  0.2222  1.0945
   66SAPC   H5X 5503   3.196   4.538   6.987  0.5279  1.6256  1.7894
   66SAPC   H5Y 5504   3.033   4.541   6.916  0.0753 -0.5266  1.2869
   66SAPC   C36 5505   3.019   4.655   7.084 -0.3872 -0.7820 -0.3698
   66SAPC   H6X 5506   2.977   4.572   7.145  1.1352  0.1159  2.0610
   66SAPC   H6Y 5507   2.931   4.695   7.029  1.2955 -0.1699 -2.8075
   66SAPC   C37 5508   3.076   4.771   7.169  0.8317 -0.1905  0.1285
   66SAPC   H7X 5509   3.066   4.864   7.109 -0.6101  0.3792  1.1868
   66SAPC   H7Y 5510   3.182   4.766   7.202  1.2447 -0.3911 -1.1900
   66SAPC   C38 5511   2.995   4.788   7.301 -0.0521 -0.2436  0.2932
   66SAPC   H8X 5512   2.995   4.699   7.367 -1.3834  0.0100  0.6712
   66SAPC   H8Y 5513   2.889   4.808   7.276 -0.5386 -1.7095  1.0626
   66SAPC   C39 5514   3.038   4.908   7.387 -0.3715  0.0088 -0.4054
   66SAPC   H9X 5515   2.976   4.919   7.478  1.1069 -1.5866  0.8826
   66SAPC   H9Y 5516   3.030   4.999   7.324  1.5802 -0.2992 -1.1606
   66SAPC  C310 5517   3.184   4.912   7.426  0.2284  0.0352 -0.2715
   66SAPC  H10X 5518   3.255   4.932   7.343  1.6205 -0.4864  0.7622
   66SAPC  H10Y 5519   3.218   4.814   7.467 -1.9392 -0.2107  1.0691
   66SAPC  C311 5520   3.217   4.998   7.550  0.8167 -0.5042  1.0980
   66SAPC  H11X 5521   3.189   5.100   7.517  1.4488 -0.7877 -0.3815
   66SAPC  H11Y 5522   3.327   4.985   7.562  0.9818  0.9719  1.4389
   66SAPC  C312 5523   3.159   4.956   7.685 -0.2633 -0.3294  0.0684
   66SAPC  H12X 5524   3.202   4.860   7.720 -1.1206 -0.8211 -0.1938
   66SAPC  H12Y 5525   3.048   4.945   7.680 -0.2144 -1.0749  0.4543
   66SAPC  C313 5526   3.208   5.041   7.801 -0.5484  0.4013  1.0958
   66SAPC  H13X 5527   3.188   5.148   7.778  0.3728  0.6339  1.3430
   66SAPC  H13Y 5528   3.316   5.018   7.815  0.0030  1.5835 -0.8161
   66SAPC  C314 5529   3.144   5.001   7.935  0.5018  0.0302  0.0590
   66SAPC  H14X 5530   3.200   5.061   8.010  0.1176 -0.2818  0.6030
   66SAPC  H14Y 5531   3.174   4.896   7.958 -1.0436  0.2299  3.6389
   66SAPC  C315 5532   2.996   5.029   7.945  0.4119  0.1518 -0.1007
   66SAPC  H15X 5533   2.954   4.993   7.849  2.0820  1.0391 -1.1976
   66SAPC  H15Y 5534   2.978   5.138   7.931 -2.1255 -0.2001 -0.0640
   66SAPC  C316 5535   2.927   4.997   8.071 -0.1848 -0.1813  0.1796
   66SAPC  H16X 5536   2.989   5.049   8.148 -0.5474  2.5157 -1.2187
   66SAPC  H16Y 5537   2.940   4.890   8.095 -0.8537  0.0161  1.5169
   66SAPC  C317 5538   2.784   5.045   8.095 -0.0130 -0.0468 -0.0026
   66SAPC  H17X 5539   2.723   5.007   8.011 -1.0460  3.4103 -0.9359
   66SAPC  H17Y 5540   2.783   5.156   8.091  1.2745 -0.0319 -3.8796
   66SAPC  C318 5541   2.726   4.983   8.227  0.5486 -0.1590 -0.5160
   66SAPC  H18X 5542   2.779   5.027   8.314  0.2077 -0.9490  0.1149
   66SAPC  H18Y 5543   2.722   4.872   8.221  0.7136 -0.1029 -2.4222
   66SAPC  H18Z 5544   2.619   5.014   8.226  0.4873 -0.2592  1.0405
   67SAPC     N 5545   4.358   1.442   6.176  0.3141  0.3754 -0.3336
   67SAPC   C12 5546   4.300   1.465   6.038 -0.6527  0.6085 -0.1222
   67SAPC  H12A 5547   4.365   1.416   5.967 -0.4793 -0.1760  0.5618
   67SAPC  H12B 5548   4.292   1.570   6.013 -1.1497  0.3308 -1.2024
   67SAPC   C13 5549   4.372   1.291   6.200  0.3261 -0.0563  0.4920
   67SAPC  H13A 5550   4.441   1.283   6.283 -1.4907  0.9203  2.1846
   67SAPC  H13B 5551   4.274   1.253   6.224 -0.4717  0.8094 -1.2814
   67SAPC  H13C 5552   4.416   1.251   6.110  0.6433  0.6241  0.3368
   67SAPC   C14 5553   4.496   1.504   6.181 -0.5763  0.2381  0.1757
   67SAPC  H14A 5554   4.551   1.478   6.271  0.6044  0.8600 -0.3527
   67SAPC  H14B 5555   4.558   1.468   6.101 -0.1519 -0.7613  0.9312
   67SAPC  H14C 5556   4.494   1.612   6.180  1.8243  0.3328 -0.1011
   67SAPC   C15 5557   4.271   1.493   6.288 -0.2717  0.4809  0.7707
   67SAPC  H15A 5558   4.204   1.575   6.265 -1.2820 -0.5611 -0.1966
   67SAPC  H15B 5559   4.199   1.415   6.313  0.1751 -0.5991 -1.0869
   67SAPC  H15C 5560   4.335   1.515   6.372  0.5174  0.3712  0.2084
   67SAPC   C11 5561   4.156   1.408   6.011 -0.2673 -0.1312  0.7056
   67SAPC  H11A 5562   4.118   1.437   5.911  1.8938  0.3360 -0.0257
   67SAPC  H11B 5563   4.085   1.456   6.082 -1.3526  0.4128 -0.7070
   67SAPC     P 5564   4.058   1.172   6.117 -0.2715  0.1281  0.2603
   67SAPC   O13 5565   3.918   1.185   6.072  0.0530 -0.0014 -0.5221
   67SAPC   O14 5566   4.121   1.040   6.111  0.5871 -0.2980  0.1421
   67SAPC   O12 5567   4.151   1.264   6.019  0.4125 -0.0861  0.0394
   67SAPC   O11 5568   4.080   1.239   6.259  0.4968 -0.1788 -0.1667
   67SAPC    C1 5569   3.969   1.230   6.351  0.8688  0.6758 -0.4200
   67SAPC    HA 5570   3.916   1.133   6.344 -1.4549  1.9312 -1.0695
   67SAPC    HB 5571   4.007   1.229   6.455  1.3611  2.2128 -0.5561
   67SAPC    C2 5572   3.867   1.351   6.348  0.6122 -0.2050 -0.9298
   67SAPC    HS 5573   3.860   1.378   6.241 -2.3925  2.2695 -0.2499
   67SAPC   O21 5574   3.924   1.459   6.420  0.2087 -0.2122 -0.6339
   67SAPC   C21 5575   3.864   1.578   6.385  0.2279 -0.1602 -0.1619
   67SAPC   O22 5576   3.770   1.592   6.307 -0.2361  0.1734 -0.1841
   67SAPC   C22 5577   3.943   1.693   6.454 -0.0176  0.4687  0.1312
   67SAPC   H2R 5578   4.051   1.668   6.444 -0.3501 -1.4194  0.8592
   67SAPC   H2S 5579   3.924   1.786   6.397 -0.7442  1.0792  1.3407
   67SAPC    C3 5580   3.731   1.316   6.406  0.3435  0.5106 -0.8562
   67SAPC    HX 5581   3.695   1.224   6.355  1.0059  1.1106 -2.4446
   67SAPC    HY 5582   3.651   1.390   6.387  1.8710  1.9501 -1.8546
   67SAPC   O31 5583   3.748   1.277   6.542  0.3909 -0.4653 -0.4688
   67SAPC   C31 5584   3.715   1.364   6.634 -0.4397 -0.2791  0.3274
   67SAPC   O32 5585   3.667   1.474   6.609 -0.0716 -0.0403 -0.0647
   67SAPC   C32 5586   3.758   1.317   6.772 -0.0271  0.0337  0.2420
   67SAPC   H2X 5587   3.867   1.298   6.764  0.0985  1.2101 -1.5779
   67SAPC   H2Y 5588   3.703   1.227   6.806  1.0946 -1.2923 -1.2994
   67SAPC   C23 5589   3.890   1.710   6.600  0.0284 -0.1231 -0.8629
   67SAPC   H3R 5590   3.886   1.618   6.662 -1.2178  0.6099  0.2005
   67SAPC   H3S 5591   3.780   1.730   6.594 -0.5260 -3.0706 -2.8957
   67SAPC   C24 5592   3.966   1.825   6.676 -0.5929  0.4328  0.4209
   67SAPC   H4R 5593   3.922   1.844   6.776  0.9282 -3.0842  1.9182
   67SAPC   H4S 5594   3.970   1.918   6.615  2.6502  0.9632  1.2460
   67SAPC   C25 5595   4.116   1.793   6.687 -0.3903  0.2387 -0.0385
   67SAPC   H5R 5596   4.161   1.770   6.590 -0.0001 -1.1633  0.4452
   67SAPC   C26 5597   4.191   1.804   6.804 -0.0000  0.1474  0.0784
   67SAPC   H6R 5598   4.298   1.778   6.803  0.1624  0.7890 -0.2934
   67SAPC   C27 5599   4.136   1.843   6.942 -0.4081 -0.2188  0.9386
   67SAPC   H7R 5600   4.027   1.823   6.934 -0.2997  0.0839 -2.3429
   67SAPC   H7S 5601   4.143   1.953   6.954  0.8800  0.1066 -2.0650
   67SAPC   C28 5602   4.209   1.785   7.063  0.3104  0.8020  0.4586
   67SAPC   H8R 5603   4.309   1.746   7.042 -0.0307  1.5214 -3.0295
   67SAPC   C29 5604   4.150   1.768   7.182  0.2632  0.0697 -0.6152
   67SAPC   H9R 5605   4.196   1.713   7.266  1.4202  0.3281 -1.0702
   67SAPC  C210 5606   4.012   1.821   7.218  0.6172  0.7150  0.0192
   67SAPC  H10R 5607   3.940   1.804   7.135 -0.1199  1.2113  0.5380
   67SAPC  H10S 5608   4.015   1.930   7.238 -0.4927  0.5750  1.0536
   67SAPC  C211 5609   3.962   1.746   7.341  0.1138  0.6129 -0.5640
   67SAPC  H11R 5610   3.940   1.639   7.329 -0.0131  0.5383  0.2782
   67SAPC  C212 5611   3.978   1.796   7.467 -0.1793 -0.5171 -0.9264
   67SAPC  H12R 5612   3.959   1.727   7.551  0.0917 -0.8901 -1.1680
   67SAPC  C213 5613   4.020   1.930   7.522 -0.5302 -0.2642  0.4974
   67SAPC  H13R 5614   3.998   1.940   7.630  0.6082  2.6456  0.5459
   67SAPC  H13S 5615   3.951   1.995   7.465  0.3893  1.4497  1.2638
   67SAPC  C214 5616   4.164   1.972   7.507 -0.2540  0.2990  0.4175
   67SAPC  H14R 5617   4.205   1.951   7.407 -0.0759  0.6256  0.4209
   67SAPC  C215 5618   4.250   2.005   7.609 -1.1362 -0.6585  0.5912
   67SAPC  H15R 5619   4.354   2.035   7.589 -1.3392 -0.9454 -1.0309
   67SAPC  C216 5620   4.200   2.034   7.749 -0.9879  0.6157 -0.2371
   67SAPC  H16R 5621   4.209   1.946   7.817 -0.6417  1.5527  0.9662
   67SAPC  H16S 5622   4.094   2.065   7.758 -1.6852 -1.9374  1.8008
   67SAPC  C217 5623   4.288   2.140   7.828  0.7906  0.5594  0.0860
   67SAPC  H17R 5624   4.299   2.235   7.771 -0.0858  0.5495 -0.1056
   67SAPC  H17S 5625   4.393   2.105   7.816  0.4976 -0.2237 -0.3028
   67SAPC  C218 5626   4.240   2.175   7.965 -0.1078  0.0125  0.0662
   67SAPC  H18R 5627   4.233   2.084   8.028 -0.0311 -0.5033 -0.6609
   67SAPC  H18S 5628   4.134   2.209   7.953 -1.0070 -1.9634  1.9122
   67SAPC  C219 5629   4.336   2.277   8.041 -0.1893  0.8768 -0.1523
   67SAPC  H19R 5630   4.357   2.361   7.971 -0.0032  0.6326 -0.3882
   67SAPC  H19S 5631   4.432   2.227   8.061  0.2880  1.2672 -1.3875
   67SAPC  C220 5632   4.268   2.320   8.172 -0.5084 -0.1810 -0.2303
   67SAPC  H20R 5633   4.278   2.241   8.249  2.5771  0.3421  0.0179
   67SAPC  H20S 5634   4.161   2.345   8.152 -0.7704  0.5092  1.7694
   67SAPC  H20T 5635   4.304   2.415   8.216 -1.6856  1.2010 -2.0709
   67SAPC   C33 5636   3.727   1.430   6.876 -0.1007 -0.6637 -0.5131
   67SAPC   H3X 5637   3.617   1.434   6.888 -0.0122  1.1585  0.0844
   67SAPC   H3Y 5638   3.772   1.531   6.866 -2.3622  0.4084 -0.5774
   67SAPC   C34 5639   3.781   1.392   7.018  0.3129  0.1687 -0.0633
   67SAPC   H4X 5640   3.891   1.405   7.024  0.2913  0.4228 -0.1976
   67SAPC   H4Y 5641   3.756   1.285   7.032  0.5435 -0.0524 -1.2171
   67SAPC   C35 5642   3.717   1.468   7.135  0.3068  0.1943 -0.3169
   67SAPC   H5X 5643   3.606   1.474   7.125  0.2022  0.1823  0.7037
   67SAPC   H5Y 5644   3.745   1.575   7.126  0.9018 -0.0451 -1.3481
   67SAPC   C36 5645   3.737   1.399   7.278 -0.4390  0.1292  0.1258
   67SAPC   H6X 5646   3.846   1.398   7.300 -0.3827  1.8566  0.0247
   67SAPC   H6Y 5647   3.690   1.298   7.269 -0.0827  0.0147 -0.5260
   67SAPC   C37 5648   3.662   1.475   7.384 -0.4181  0.4008 -0.2831
   67SAPC   H7X 5649   3.552   1.475   7.372 -0.3817  1.1093 -0.6885
   67SAPC   H7Y 5650   3.690   1.582   7.385 -2.4139  0.9593  0.1438
   67SAPC   C38 5651   3.680   1.427   7.529  0.0613  0.7498  0.2257
   67SAPC   H8X 5652   3.788   1.417   7.552  0.4564  1.2544 -1.2992
   67SAPC   H8Y 5653   3.652   1.320   7.518  0.2142  0.2979  3.2956
   67SAPC   C39 5654   3.614   1.497   7.642 -0.2918 -0.0089  0.0585
   67SAPC   H9X 5655   3.504   1.479   7.640 -0.2805 -0.1629  0.5683
   67SAPC   H9Y 5656   3.646   1.603   7.646  0.4766 -0.2226 -0.3314
   67SAPC  C310 5657   3.655   1.444   7.774 -0.1951  0.7500 -0.7945
   67SAPC  H10X 5658   3.765   1.441   7.790 -0.2860 -1.1255 -0.2821
   67SAPC  H10Y 5659   3.615   1.341   7.779 -0.7647  0.8861 -2.1268
   67SAPC  C311 5660   3.617   1.514   7.904 -0.3107  0.5428  0.0106
   67SAPC  H11X 5661   3.506   1.516   7.906 -0.3835 -1.4893  1.6943
   67SAPC  H11Y 5662   3.661   1.616   7.902  1.5845 -0.2240 -2.4103
   67SAPC  C312 5663   3.657   1.445   8.034 -0.8334 -0.7896  0.1729
   67SAPC  H12X 5664   3.764   1.416   8.033 -0.9597 -1.3683  1.5814
   67SAPC  H12Y 5665   3.596   1.353   8.045  1.5990 -2.5071  0.1123
   67SAPC  C313 5666   3.635   1.529   8.167  0.8937 -0.0081  0.5339
   67SAPC  H13X 5667   3.524   1.536   8.164  0.8907 -0.2440 -1.9426
   67SAPC  H13Y 5668   3.681   1.629   8.156 -1.8835  1.4379  1.1581
   67SAPC  C314 5669   3.670   1.449   8.297 -0.2980 -0.4405 -0.4212
   67SAPC  H14X 5670   3.629   1.348   8.275  1.0482 -1.3775  1.1331
   67SAPC  H14Y 5671   3.615   1.493   8.383  1.9982  1.9390 -0.0730
   67SAPC  C315 5672   3.820   1.437   8.339 -0.0210 -0.4531  0.1200
   67SAPC  H15X 5673   3.873   1.535   8.337 -2.2633  0.8980  1.7665
   67SAPC  H15Y 5674   3.869   1.384   8.255 -0.2442  1.2254 -1.1195
   67SAPC  C316 5675   3.848   1.369   8.474 -0.1207 -1.3472 -0.4319
   67SAPC  H16X 5676   3.954   1.337   8.465  0.5365  0.5605 -0.0635
   67SAPC  H16Y 5677   3.792   1.274   8.491  0.7504 -1.7567  0.2397
   67SAPC  C317 5678   3.845   1.462   8.601 -0.1527  0.2084 -0.8642
   67SAPC  H17X 5679   3.743   1.506   8.594 -1.3612 -2.5568 -1.8108
   67SAPC  H17Y 5680   3.920   1.541   8.580  0.3884 -0.0394  0.0679
   67SAPC  C318 5681   3.879   1.388   8.732 -0.2082 -0.8520  0.0401
   67SAPC  H18X 5682   3.892   1.466   8.811  0.5937  0.6025 -1.4678
   67SAPC  H18Y 5683   3.970   1.325   8.722  0.1858 -0.5250  1.3754
   67SAPC  H18Z 5684   3.785   1.337   8.763 -0.6077 -0.4901 -0.5545
   68SAPC     N 5685   1.148   4.756   5.617 -0.6787 -0.0170  0.3191
   68SAPC   C12 5686   1.259   4.845   5.571  0.1756 -0.5918 -0.9310
   68SAPC  H12A 5687   1.220   4.946   5.575  0.1208 -0.6306 -0.5090
   68SAPC  H12B 5688   1.267   4.837   5.463 -2.5523  2.4907 -1.5195
   68SAPC   C13 5689   1.023   4.791   5.537 -0.8479 -0.4183 -0.1418
   68SAPC  H13A 5690   1.041   4.759   5.435 -1.6580 -0.9393 -0.1290
   68SAPC  H13B 5691   0.939   4.734   5.573 -1.3940  0.1156 -0.5608
   68SAPC  H13C 5692   0.995   4.895   5.526 -0.9481 -0.4422 -0.1159
   68SAPC   C14 5693   1.175   4.609   5.603 -0.5479  0.8736 -0.4352
   68SAPC  H14A 5694   1.085   4.551   5.617  0.5093 -1.1718 -1.6669
   68SAPC  H14B 5695   1.232   4.577   5.517  0.2904  2.1026 -0.3721
   68SAPC  H14C 5696   1.232   4.579   5.691 -0.3362  0.2756 -0.7690
   68SAPC   C15 5697   1.125   4.772   5.764  0.2021  0.0347  0.7161
   68SAPC  H15A 5698   1.057   4.703   5.811  0.3044 -0.1189  0.6418
   68SAPC  H15B 5699   1.218   4.740   5.810 -0.9123 -2.4336  1.4514
   68SAPC  H15C 5700   1.102   4.872   5.797 -2.3224 -0.1166 -0.3991
   68SAPC   C11 5701   1.405   4.833   5.623  0.2626  0.3509  0.5115
   68SAPC  H11A 5702   1.456   4.898   5.549  0.6966  1.2851  1.5918
   68SAPC  H11B 5703   1.453   4.736   5.596 -1.1173 -0.5524  1.2134
   68SAPC     P 5704   1.489   4.774   5.855 -0.0630 -0.7188  0.4487
   68SAPC   O13 5705   1.405   4.652   5.875 -0.4613  0.0956  0.7877
   68SAPC   O14 5706   1.628   4.744   5.813 -0.1966  0.3422 -0.2431
   68SAPC   O12 5707   1.424   4.877   5.756  0.4865  0.1380 -0.2264
   68SAPC   O11 5708   1.501   4.852   5.992 -0.0134 -0.5487  0.4669
   68SAPC    C1 5709   1.392   4.883   6.077  1.4667 -0.4065 -0.6174
   68SAPC    HA 5710   1.396   4.992   6.094  1.4480 -0.3486 -0.9925
   68SAPC    HB 5711   1.296   4.851   6.031  2.1801 -1.8847 -1.1669
   68SAPC    C2 5712   1.393   4.803   6.212  0.2785  0.5470 -0.1992
   68SAPC    HS 5713   1.300   4.830   6.265  0.6372  1.1076  0.1562
   68SAPC   O21 5714   1.505   4.839   6.299 -0.1052  0.3964  0.4238
   68SAPC   C21 5715   1.493   4.951   6.354  0.2674 -0.3037 -0.4210
   68SAPC   O22 5716   1.399   5.027   6.345 -0.2056  0.2098 -0.0443
   68SAPC   C22 5717   1.611   4.983   6.439 -0.3570 -0.3197  0.4122
   68SAPC   H2R 5718   1.704   4.982   6.379  0.7659  1.3342  2.0001
   68SAPC   H2S 5719   1.596   5.086   6.480 -0.4697  0.1542 -0.8006
   68SAPC    C3 5720   1.389   4.648   6.202  0.1001  0.3205 -1.2057
   68SAPC    HX 5721   1.454   4.616   6.118  1.0945 -1.2523  0.1088
   68SAPC    HY 5722   1.289   4.610   6.173 -1.0355  0.7527  1.7170
   68SAPC   O31 5723   1.441   4.579   6.321 -0.2112 -0.1480 -0.4733
   68SAPC   C31 5724   1.359   4.510   6.393 -0.0423  0.2787 -0.4955
   68SAPC   O32 5725   1.240   4.501   6.375  0.5922 -0.0991 -0.4505
   68SAPC   C32 5726   1.431   4.445   6.510 -0.5021  0.0747  0.9219
   68SAPC   H2X 5727   1.436   4.526   6.585 -3.0120  1.7454 -0.5518
   68SAPC   H2Y 5728   1.532   4.421   6.468 -1.3537 -0.5849 -0.8703
   68SAPC   C23 5729   1.629   4.881   6.555  0.1720 -0.2720 -0.5873
   68SAPC   H3R 5730   1.633   4.773   6.529  0.0178 -0.5025  0.3098
   68SAPC   H3S 5731   1.560   4.902   6.639 -0.9042  0.3797 -1.6022
   68SAPC   C24 5732   1.777   4.899   6.617  0.1237 -0.5377 -0.0868
   68SAPC   H4R 5733   1.838   4.956   6.543  1.5165 -0.3870  1.1282
   68SAPC   H4S 5734   1.829   4.802   6.631  0.8306  0.1268  2.5860
   68SAPC   C25 5735   1.766   4.978   6.746  0.8365 -0.6883  0.2875
   68SAPC   H5R 5736   1.738   4.917   6.833  1.7647 -0.4059  0.7991
   68SAPC   C26 5737   1.787   5.112   6.770 -0.0101  0.4283  0.2496
   68SAPC   H6R 5738   1.765   5.149   6.872  0.4888 -0.0385  0.5347
   68SAPC   C27 5739   1.833   5.213   6.676 -0.1572  0.7759  0.0105
   68SAPC   H7R 5740   1.866   5.165   6.581  4.3861  1.7348  0.8608
   68SAPC   H7S 5741   1.930   5.248   6.718 -1.1569  2.4137  1.0395
   68SAPC   C28 5742   1.736   5.327   6.664  0.7698 -0.3394 -0.4108
   68SAPC   H8R 5743   1.669   5.316   6.578  1.0021 -1.7737 -0.4447
   68SAPC   C29 5744   1.725   5.437   6.745 -0.0633  0.0237  0.1690
   68SAPC   H9R 5745   1.666   5.521   6.706 -0.5196 -0.8706 -1.1359
   68SAPC  C210 5746   1.812   5.476   6.862 -0.4685 -0.5497  0.9734
   68SAPC  H10R 5747   1.864   5.573   6.846  0.6409 -1.1224  0.9371
   68SAPC  H10S 5748   1.902   5.410   6.864  1.5940  2.0527  0.5297
   68SAPC  C211 5749   1.743   5.472   6.995 -0.0777  0.2031  0.4385
   68SAPC  H11R 5750   1.633   5.461   6.994 -0.2789  1.7391  1.2308
   68SAPC  C212 5751   1.818   5.471   7.109  0.5686 -0.7669 -0.1609
   68SAPC  H12R 5752   1.768   5.479   7.206 -0.0904  0.0118 -0.5442
   68SAPC  C213 5753   1.969   5.476   7.134  0.2520  0.1420 -0.1716
   68SAPC  H13R 5754   2.020   5.446   7.040 -0.4187 -0.6606 -0.2944
   68SAPC  H13S 5755   2.001   5.387   7.193  1.1478  1.8450  2.0491
   68SAPC  C214 5756   2.027   5.611   7.171 -0.2433  0.2036  0.2414
   68SAPC  H14R 5757   2.005   5.688   7.096 -1.1897  1.0094  1.3033
   68SAPC  C215 5758   2.088   5.653   7.284 -0.5001 -0.8426 -0.1197
   68SAPC  H15R 5759   2.142   5.748   7.294  0.4486 -1.5991  3.2795
   68SAPC  C216 5760   2.121   5.568   7.400 -0.0290 -0.4475 -0.3915
   68SAPC  H16R 5761   2.220   5.600   7.440 -0.4623 -1.8261  1.9134
   68SAPC  H16S 5762   2.123   5.460   7.374  0.5017 -0.3908 -0.5945
   68SAPC  C217 5763   2.034   5.592   7.528 -0.1973 -0.0516 -0.0482
   68SAPC  H17R 5764   2.082   5.522   7.600  0.5765  2.5224  2.1010
   68SAPC  H17S 5765   1.927   5.565   7.513 -0.7668 -0.2955  3.6792
   68SAPC  C218 5766   2.056   5.728   7.595 -0.3828 -0.4309 -0.5620
   68SAPC  H18R 5767   2.030   5.806   7.519 -1.7016 -3.1614 -3.1452
   68SAPC  H18S 5768   2.165   5.738   7.611 -0.1706 -1.4333 -1.2538
   68SAPC  C219 5769   1.988   5.744   7.731  0.1657  0.8443 -0.0026
   68SAPC  H19R 5770   2.015   5.660   7.798 -2.3668 -1.8925 -2.0948
   68SAPC  H19S 5771   1.877   5.737   7.723 -0.0463  1.5917  1.9203
   68SAPC  C220 5772   2.031   5.875   7.798  0.2166 -0.7637  0.0972
   68SAPC  H20R 5773   1.993   5.967   7.748  1.7643 -0.4869 -0.6236
   68SAPC  H20S 5774   2.142   5.875   7.802  0.2385 -1.3341 -0.3915
   68SAPC  H20T 5775   2.007   5.872   7.907  2.8503 -2.2073  0.7007
   68SAPC   C33 5776   1.383   4.313   6.568  1.2009  0.2541 -0.4132
   68SAPC   H3X 5777   1.453   4.265   6.640 -0.8381  1.0642  2.2657
   68SAPC   H3Y 5778   1.371   4.238   6.487 -0.1270  0.1756 -0.1602
   68SAPC   C34 5779   1.269   4.338   6.663  0.6462  0.1066  0.3967
   68SAPC   H4X 5780   1.216   4.430   6.630 -1.2465 -1.0393  0.0461
   68SAPC   H4Y 5781   1.313   4.360   6.763  0.1073  1.7730  0.2982
   68SAPC   C35 5782   1.149   4.240   6.669  0.3390  0.4086  0.0239
   68SAPC   H5X 5783   1.187   4.140   6.698  0.7392 -0.1837 -2.2693
   68SAPC   H5Y 5784   1.107   4.242   6.566 -1.1530  1.0932  0.6204
   68SAPC   C36 5785   1.038   4.287   6.760  0.8180 -0.1690 -0.2827
   68SAPC   H6X 5786   0.946   4.225   6.756 -0.2008  1.1931  1.0856
   68SAPC   H6Y 5787   1.019   4.389   6.720  1.4315  0.1895  0.3335
   68SAPC   C37 5788   1.091   4.316   6.909 -0.0381 -0.2262 -0.1745
   68SAPC   H7X 5789   1.135   4.418   6.901  1.9086 -0.8369  1.9085
   68SAPC   H7Y 5790   1.166   4.238   6.934 -1.1196 -1.0208  0.6853
   68SAPC   C38 5791   0.974   4.308   7.018 -0.5052 -0.8062  0.2094
   68SAPC   H8X 5792   1.025   4.315   7.116 -1.6776 -0.2426  0.7905
   68SAPC   H8Y 5793   0.923   4.209   7.026 -0.2954 -0.9185  0.1871
   68SAPC   C39 5794   0.878   4.425   6.992  0.7482  0.8147 -0.2704
   68SAPC   H9X 5795   0.829   4.403   6.895  1.2722  0.5185 -0.4673
   68SAPC   H9Y 5796   0.937   4.519   6.993  2.4111 -0.1235 -2.4324
   68SAPC  C310 5797   0.763   4.444   7.096  0.1128 -0.1970  0.3226
   68SAPC  H10X 5798   0.690   4.361   7.089 -0.6613  0.4867  0.1959
   68SAPC  H10Y 5799   0.705   4.537   7.076  1.2457  0.5190  0.2772
   68SAPC  C311 5800   0.826   4.458   7.237 -0.2961  0.2964 -0.1953
   68SAPC  H11X 5801   0.915   4.524   7.225  0.7101 -1.2955 -2.1126
   68SAPC  H11Y 5802   0.867   4.363   7.275 -0.8900  0.7014  1.5858
   68SAPC  C312 5803   0.721   4.513   7.338  0.3614 -0.4378  0.7831
   68SAPC  H12X 5804   0.637   4.440   7.343 -0.0772  0.0292  0.4046
   68SAPC  H12Y 5805   0.694   4.613   7.298  0.4154 -1.4034 -1.8905
   68SAPC  C313 5806   0.778   4.531   7.475 -0.8906  0.0160 -0.4880
   68SAPC  H13X 5807   0.874   4.584   7.458 -1.7918  2.5167  1.6063
   68SAPC  H13Y 5808   0.792   4.437   7.534 -0.1805  1.0283  1.0289
   68SAPC  C314 5809   0.699   4.617   7.572 -1.0334  0.2261  0.4666
   68SAPC  H14X 5810   0.599   4.568   7.573 -0.8960 -0.1027 -0.3828
   68SAPC  H14Y 5811   0.682   4.718   7.529  1.7544 -0.2119 -1.9805
   68SAPC  C315 5812   0.755   4.621   7.707 -0.0095 -0.8991 -0.5694
   68SAPC  H15X 5813   0.858   4.659   7.720 -0.3915  0.6919 -1.8140
   68SAPC  H15Y 5814   0.761   4.514   7.738 -0.0750 -0.5068  0.8852
   68SAPC  C316 5815   0.677   4.710   7.805 -0.2957  0.0978 -0.0644
   68SAPC  H16X 5816   0.729   4.707   7.903 -1.1870  1.0613  0.4610
   68SAPC  H16Y 5817   0.574   4.671   7.817 -0.1739 -0.0808  0.4177
   68SAPC  C317 5818   0.670   4.863   7.769 -0.2035  0.2313 -0.0908
   68SAPC  H17X 5819   0.629   4.883   7.668  1.4974  3.5054 -0.2798
   68SAPC  H17Y 5820   0.775   4.902   7.764 -0.6836  1.7824  1.1231
   68SAPC  C318 5821   0.589   4.963   7.856 -0.0828  0.3530 -0.3272
   68SAPC  H18X 5822   0.633   5.062   7.832  1.0073  0.8453  3.2258
   68SAPC  H18Y 5823   0.610   4.932   7.960  2.0833 -0.1473 -0.8663
   68SAPC  H18Z 5824   0.478   4.959   7.842  0.0876 -0.1932 -1.6903
   69SLPC     N 5825   5.453   3.436  10.729 -0.4035  0.4250 -0.7330
   69SLPC   C13 5826   5.340   3.348  10.714  0.4959  0.4803  0.3039
   69SLPC  H13A 5827   5.255   3.413  10.701  0.7776  1.1230  1.4593
   69SLPC  H13B 5828   5.342   3.285  10.627 -1.4858  0.8436 -0.0422
   69SLPC  H13C 5829   5.329   3.279  10.797 -0.2091 -0.2724 -0.4044
   69SLPC   C14 5830   5.454   3.469  10.874 -0.3037  0.3208 -0.5310
   69SLPC  H14A 5831   5.552   3.504  10.905  1.7095 -3.6748 -1.7515
   69SLPC  H14B 5832   5.373   3.532  10.908  0.3691 -0.0669  1.9954
   69SLPC  H14C 5833   5.437   3.381  10.934  1.8283 -0.3486 -0.8148
   69SLPC   C15 5834   5.429   3.560  10.638  0.2518  0.1952 -0.3965
   69SLPC  H15A 5835   5.379   3.534  10.545 -2.6124  1.7541  0.5773
   69SLPC  H15B 5836   5.356   3.624  10.686 -0.1501  0.2964 -1.1169
   69SLPC  H15C 5837   5.526   3.605  10.624  0.7878 -1.0106 -0.7277
   69SLPC   C12 5838   5.575   3.356  10.705  0.2027  0.1734 -0.5935
   69SLPC  H12A 5839   5.561   3.294  10.618 -0.9374 -1.5213  0.7307
   69SLPC  H12B 5840   5.583   3.281  10.783  0.6694 -0.5354 -1.3085
   69SLPC   C11 5841   5.706   3.422  10.708  0.8727 -0.2394  0.4482
   69SLPC  H11A 5842   5.794   3.357  10.728  0.3773 -0.8007  0.8029
   69SLPC  H11B 5843   5.716   3.505  10.781 -0.2873  1.0243 -0.7406
   69SLPC     P 5844   5.759   3.377  10.458  0.4285 -0.4331  0.0933
   69SLPC   O13 5845   5.887   3.316  10.487 -0.2495  0.6613 -1.0474
   69SLPC   O14 5846   5.649   3.283  10.429  0.2883 -0.4868 -0.3190
   69SLPC   O12 5847   5.713   3.477  10.570  0.5888 -0.2240 -0.3552
   69SLPC   O11 5848   5.773   3.468  10.342  0.2714 -0.8680 -0.2123
   69SLPC    C1 5849   5.683   3.562  10.285 -1.2048 -0.5401 -0.6448
   69SLPC    HA 5850   5.614   3.512  10.214 -1.6340  0.8559 -1.2640
   69SLPC    HB 5851   5.627   3.633  10.351 -1.5889  0.9664 -2.4864
   69SLPC    C2 5852   5.768   3.673  10.206  0.0155 -0.0940 -0.4236
   69SLPC    HS 5853   5.713   3.743  10.140 -0.5153  1.3062  1.4272
   69SLPC   O21 5854   5.879   3.607  10.130  0.2909 -0.4433 -0.0725
   69SLPC   C21 5855   5.831   3.531  10.033  0.0252 -0.0041  0.6228
   69SLPC   O22 5856   5.717   3.539   9.983  0.3017  0.4533 -0.1600
   69SLPC   C22 5857   5.938   3.438   9.982 -0.1378  0.2644  0.0851
   69SLPC   H2R 5858   6.031   3.498   9.980  0.7776 -1.0723  1.0497
   69SLPC   H2S 5859   5.957   3.365  10.064 -2.5883 -1.1052 -0.4451
   69SLPC    C3 5860   5.834   3.768  10.305 -0.0344 -0.7500  0.7880
   69SLPC    HX 5861   5.895   3.707  10.376  1.2818  1.0880  1.2974
   69SLPC    HY 5862   5.752   3.813  10.364 -2.0983 -0.7895 -1.8533
   69SLPC   O31 5863   5.923   3.864  10.252  0.5307 -0.1255  0.5118
   69SLPC   C31 5864   5.881   3.973  10.193 -0.7233 -0.2545  0.1944
   69SLPC   O32 5865   5.763   4.014  10.191 -0.1195  0.1434  0.0149
   69SLPC   C32 5866   5.995   4.045  10.142 -0.0464 -0.3798  0.7397
   69SLPC   H2X 5867   6.087   4.017  10.198 -0.1344  1.4217  1.8732
   69SLPC   H2Y 5868   5.983   4.153  10.167  2.1784 -0.2665  1.4610
   69SLPC   C23 5869   5.917   3.371   9.848  0.2889  0.4689  1.0678
   69SLPC   H3R 5870   5.898   3.444   9.767  0.3185 -1.4413 -0.7441
   69SLPC   H3S 5871   5.824   3.312   9.855  0.5101  0.2509  2.4514
   69SLPC   C24 5872   6.025   3.267   9.804  0.5651 -0.5476 -0.1350
   69SLPC   H4R 5873   6.033   3.197   9.890 -0.8633 -0.3305  0.2033
   69SLPC   H4S 5874   6.129   3.304   9.789 -0.4954  1.9958 -1.8968
   69SLPC   C25 5875   5.981   3.184   9.677  0.0697  0.6249  0.5140
   69SLPC   H5R 5876   5.889   3.130   9.708  0.3852  0.3640  1.0103
   69SLPC   H5S 5877   6.056   3.105   9.653 -0.2203  1.1094 -2.3556
   69SLPC   C26 5878   5.939   3.263   9.553  0.6513  0.4481  0.6788
   69SLPC   H6R 5879   6.020   3.328   9.512 -0.1952  0.2542 -1.4168
   69SLPC   H6S 5880   5.852   3.323   9.586  0.5073  0.6326 -0.0204
   69SLPC   C27 5881   5.888   3.175   9.435  0.3854 -0.2945 -0.0464
   69SLPC   H7R 5882   5.818   3.106   9.486 -1.3400  1.3107 -0.1455
   69SLPC   H7S 5883   5.975   3.122   9.390 -1.2729 -2.5642 -0.7143
   69SLPC   C28 5884   5.818   3.270   9.340  0.6594 -0.1114 -0.4245
   69SLPC   H8R 5885   5.892   3.345   9.306  1.8759  0.1270  2.4614
   69SLPC   H8S 5886   5.734   3.325   9.387  0.3013 -0.7972 -0.2451
   69SLPC   C29 5887   5.750   3.190   9.233  0.7284 -0.7207  0.5832
   69SLPC   H9R 5888   5.686   3.107   9.264 -1.0576 -0.5307 -2.2210
   69SLPC  C210 5889   5.765   3.212   9.103  1.2080 -0.3415  0.3894
   69SLPC  H10R 5890   5.718   3.143   9.031 -2.0415  1.3864  0.6385
   69SLPC  C211 5891   5.844   3.329   9.039  0.6650  0.9543 -0.0033
   69SLPC  H11R 5892   5.881   3.402   9.114 -1.4066  0.0649  2.0073
   69SLPC  H11S 5893   5.778   3.374   8.961 -0.4795 -1.3442 -0.4563
   69SLPC  C212 5894   5.969   3.270   8.968  0.4912 -0.1958 -0.3794
   69SLPC  H12R 5895   6.047   3.225   9.030  0.0468 -0.1082  0.2575
   69SLPC  C213 5896   6.003   3.276   8.838 -0.0211  0.8649 -0.0848
   69SLPC  H13R 5897   6.097   3.225   8.813  0.2753  0.7233  1.2484
   69SLPC  C214 5898   5.922   3.331   8.724  0.4931  0.3309  0.1901
   69SLPC  H14R 5899   5.972   3.382   8.639  0.0245  0.2090 -0.1637
   69SLPC  H14S 5900   5.853   3.409   8.761  0.4087 -0.7939  2.5390
   69SLPC  C215 5901   5.839   3.217   8.654  0.5787  0.6155  0.2179
   69SLPC  H15R 5902   5.770   3.260   8.579 -0.0580  0.6795  0.8239
   69SLPC  H15S 5903   5.779   3.158   8.728  0.4228 -1.0613 -1.1797
   69SLPC  C216 5904   5.938   3.114   8.585 -0.0699  0.6661 -0.8053
   69SLPC  H16R 5905   6.002   3.057   8.656 -2.7903 -2.1063 -0.3047
   69SLPC  H16S 5906   6.005   3.171   8.518  1.7436 -0.6492 -0.1881
   69SLPC  C217 5907   5.864   3.013   8.487 -0.0926 -0.2390 -0.5386
   69SLPC  H17R 5908   5.803   3.070   8.415  0.8818  0.7494 -0.6069
   69SLPC  H17S 5909   5.798   2.939   8.537  0.2469 -0.5031 -0.4714
   69SLPC  C218 5910   5.968   2.943   8.397 -0.0018 -0.3292 -0.4890
   69SLPC  H18R 5911   5.917   2.865   8.336  0.5225 -2.1646  1.2908
   69SLPC  H18S 5912   6.031   2.878   8.461  2.1581  1.7580 -0.3478
   69SLPC  H18T 5913   6.028   3.014   8.336 -0.6534 -0.2691 -1.0796
   69SLPC   C33 5914   6.021   4.023   9.985 -0.8845  0.2348  0.0020
   69SLPC   H3X 5915   6.073   4.118   9.961  1.0897 -0.8229 -0.0495
   69SLPC   H3Y 5916   5.926   4.014   9.928 -1.0864 -0.3485  0.4236
   69SLPC   C34 5917   6.104   3.896   9.951 -0.3003  0.9501  0.1122
   69SLPC   H4X 5918   6.038   3.806   9.959  2.0190 -0.9292 -0.6228
   69SLPC   H4Y 5919   6.189   3.890  10.022  0.4671 -0.0885 -0.8571
   69SLPC   C35 5920   6.158   3.893   9.810 -0.6068  0.0350  0.6991
   69SLPC   H5X 5921   6.249   3.829   9.806  0.2255  1.0948  1.7160
   69SLPC   H5Y 5922   6.200   3.993   9.785  2.6978 -1.6957 -1.4269
   69SLPC   C36 5923   6.057   3.847   9.700 -0.2712 -0.4702 -0.4110
   69SLPC   H6X 5924   5.972   3.918   9.710  1.8743  2.2138 -0.0154
   69SLPC   H6Y 5925   6.013   3.746   9.713  0.1067 -1.1183 -3.4795
   69SLPC   C37 5926   6.103   3.862   9.556  0.2547 -0.1855 -0.2590
   69SLPC   H7X 5927   6.204   3.819   9.539  1.5654  2.7248 -0.5259
   69SLPC   H7Y 5928   6.132   3.970   9.548  1.2690 -0.4292 -0.0385
   69SLPC   C38 5929   6.003   3.826   9.448  0.4310  0.1427  0.0642
   69SLPC   H8X 5930   5.912   3.881   9.480 -1.0106 -2.6088  1.0877
   69SLPC   H8Y 5931   5.979   3.719   9.466 -0.8949 -0.1462 -2.9500
   69SLPC   C39 5932   6.062   3.856   9.310  0.2311  0.5046 -0.1394
   69SLPC   H9X 5933   6.157   3.800   9.298  0.2225  0.4362  0.1119
   69SLPC   H9Y 5934   6.106   3.958   9.314  0.2635  0.4753  0.3776
   69SLPC  C310 5935   5.972   3.834   9.188 -0.3158  0.2819 -0.5049
   69SLPC  H10X 5936   5.890   3.910   9.191  1.0236  1.7604  0.2458
   69SLPC  H10Y 5937   5.917   3.737   9.188 -0.9687  0.6440 -0.2657
   69SLPC  C311 5938   6.058   3.837   9.060 -0.2505 -0.6550 -0.4520
   69SLPC  H11X 5939   6.124   3.926   9.048  1.5677 -1.6591  1.4281
   69SLPC  H11Y 5940   5.987   3.840   8.974 -0.3485  0.9544 -0.3602
   69SLPC  C312 5941   6.136   3.709   9.039  0.1139  0.3650 -0.1655
   69SLPC  H12X 5942   6.072   3.621   9.017 -0.7652  0.9197  0.1437
   69SLPC  H12Y 5943   6.190   3.677   9.131 -0.7689 -0.7477 -0.0199
   69SLPC  C313 5944   6.248   3.720   8.930 -0.3178 -0.3337  0.3874
   69SLPC  H13X 5945   6.303   3.624   8.930  3.0867  1.4569 -0.6529
   69SLPC  H13Y 5946   6.315   3.803   8.961  1.2374 -0.2125 -2.8868
   69SLPC  C314 5947   6.192   3.731   8.793 -0.0158  0.4941  0.4750
   69SLPC  H14X 5948   6.277   3.714   8.723 -1.6893 -1.3789 -1.2320
   69SLPC  H14Y 5949   6.160   3.837   8.778  1.4956  0.7656 -1.1222
   69SLPC  C315 5950   6.078   3.644   8.741  0.0717  0.0733  0.1097
   69SLPC  H15X 5951   5.994   3.654   8.813  4.1839 -1.5968  5.8720
   69SLPC  H15Y 5952   6.118   3.542   8.729 -1.6364 -0.5138 -1.0534
   69SLPC  C316 5953   6.019   3.705   8.609 -0.2112 -0.0552  0.3064
   69SLPC  H16X 5954   5.956   3.792   8.635 -1.6676 -0.8555 -0.4473
   69SLPC  H16Y 5955   5.939   3.634   8.580 -1.0770  1.0204 -0.0026
   69SLPC  C317 5956   6.111   3.722   8.486 -0.0747  0.3608 -0.0532
   69SLPC  H17X 5957   6.176   3.633   8.470 -2.0863 -1.3650  0.8126
   69SLPC  H17Y 5958   6.174   3.812   8.502  0.9706 -0.2005 -0.8771
   69SLPC  C318 5959   6.033   3.741   8.355 -0.1757  0.7116 -0.2940
   69SLPC  H18X 5960   6.102   3.744   8.268  0.2177 -1.2458 -0.1091
   69SLPC  H18Y 5961   5.967   3.830   8.357  2.9530  3.2083  1.4735
   69SLPC  H18Z 5962   5.971   3.653   8.326  1.7142 -1.8939  2.7550
   70SLPC     N 5963   0.105   0.145  10.344 -0.5705  0.1572  0.3446
   70SLPC   C13 5964   0.134   0.069  10.473  0.4346  0.1276 -0.4112
   70SLPC  H13A 5965   0.098  -0.033  10.464 -0.6432  0.3654  0.9278
   70SLPC  H13B 5966   0.239   0.068  10.496  0.7720 -1.7931 -1.7491
   70SLPC  H13C 5967   0.085   0.112  10.558  1.8696 -0.3560  0.7006
   70SLPC   C14 5968   0.205   0.111  10.243 -0.7534  0.0144  0.2528
   70SLPC  H14A 5969   0.299   0.128  10.294  0.0250  1.8026 -1.6185
   70SLPC  H14B 5970   0.192   0.010  10.207 -0.5891  0.0390  0.1202
   70SLPC  H14C 5971   0.185   0.166  10.152 -0.4704 -1.7699 -0.9512
   70SLPC   C15 5972   0.119   0.284  10.366  0.2787  0.2119  0.7828
   70SLPC  H15A 5973   0.101   0.344  10.278  1.1932  1.0582  1.1473
   70SLPC  H15B 5974   0.036   0.324  10.423  1.0397  0.0118  2.0734
   70SLPC  H15C 5975   0.212   0.314  10.412 -0.5309  1.9249  1.4034
   70SLPC   C12 5976  -0.034   0.113  10.290  0.2002  0.3685 -0.4790
   70SLPC  H12A 5977  -0.035   0.017  10.240 -2.3756 -0.2435  0.5840
   70SLPC  H12B 5978  -0.051   0.185  10.211  0.0953  0.0332 -0.7628
   70SLPC   C11 5979  -0.153   0.122  10.388  0.2126  0.8324  0.4093
   70SLPC  H11A 5980  -0.143   0.043  10.466  0.1914 -0.7314 -1.1058
   70SLPC  H11B 5981  -0.250   0.104  10.336  0.3934 -0.3145  0.4325
   70SLPC     P 5982  -0.253   0.365  10.410  0.0981  0.4507  0.1829
   70SLPC   O13 5983  -0.393   0.343  10.463 -0.5861 -0.0391  0.0883
   70SLPC   O14 5984  -0.184   0.490  10.449  0.0034  0.0451 -1.0389
   70SLPC   O12 5985  -0.159   0.245  10.452 -0.4400  0.1676 -0.0391
   70SLPC   O11 5986  -0.262   0.360  10.253 -0.4905  0.1436  0.9201
   70SLPC    C1 5987  -0.161   0.413  10.166  0.2901 -0.1027 -0.2559
   70SLPC    HA 5988  -0.108   0.503  10.206 -0.2702  0.5592 -0.9692
   70SLPC    HB 5989  -0.091   0.329  10.146 -0.2258 -0.3541 -1.0387
   70SLPC    C2 5990  -0.230   0.461  10.032 -0.3883  0.1567 -0.2282
   70SLPC    HS 5991  -0.302   0.540  10.062 -2.1232 -1.3492 -0.2350
   70SLPC   O21 5992  -0.305   0.353   9.975  0.1944 -0.0467  0.2400
   70SLPC   C21 5993  -0.410   0.392   9.900  0.5353 -0.4255  0.0870
   70SLPC   O22 5994  -0.449   0.508   9.887 -0.2009  1.0955  0.1949
   70SLPC   C22 5995  -0.454   0.275   9.804  0.2995 -0.9045  0.4613
   70SLPC   H2R 5996  -0.389   0.187   9.822  0.4310 -0.5479  1.8319
   70SLPC   H2S 5997  -0.560   0.255   9.832 -0.5942  2.2681 -0.2623
   70SLPC    C3 5998  -0.116   0.514   9.945  0.1069  0.1576  0.1915
   70SLPC    HX 5999  -0.032   0.443   9.928  2.0229  2.4007 -0.2864
   70SLPC    HY 6000  -0.057   0.588  10.003 -0.8763 -0.6905  2.3565
   70SLPC   O31 6001  -0.157   0.568   9.821  0.7667 -0.5557  0.2592
   70SLPC   C31 6002  -0.198   0.699   9.825 -0.1704  0.2663 -0.2450
   70SLPC   O32 6003  -0.177   0.773   9.921  0.1401  0.3107  0.7726
   70SLPC   C32 6004  -0.284   0.734   9.700 -0.1252 -0.1740  0.2703
   70SLPC   H2X 6005  -0.318   0.839   9.710  1.2003  0.2292  0.7010
   70SLPC   H2Y 6006  -0.369   0.662   9.695 -0.0957 -0.2889  1.1631
   70SLPC   C23 6007  -0.459   0.309   9.648  0.3407  0.0446 -0.0683
   70SLPC   H3R 6008  -0.525   0.394   9.621  1.1233  1.1401  1.3241
   70SLPC   H3S 6009  -0.492   0.213   9.603  0.5566 -0.3116  0.5131
   70SLPC   C24 6010  -0.318   0.330   9.602  0.0018  0.2746  0.6752
   70SLPC   H4R 6011  -0.259   0.243   9.638 -1.1531 -0.9956 -0.3484
   70SLPC   H4S 6012  -0.272   0.422   9.643  0.1254  1.7824 -2.5446
   70SLPC   C25 6013  -0.302   0.339   9.445 -0.5492  0.2637  0.0449
   70SLPC   H5R 6014  -0.194   0.360   9.431 -0.8323  3.5503  1.7374
   70SLPC   H5S 6015  -0.364   0.427   9.417 -0.9021  0.3219  0.9873
   70SLPC   C26 6016  -0.348   0.224   9.361  0.0407  0.1703  0.6276
   70SLPC   H6R 6017  -0.445   0.181   9.395  0.8445 -2.0195  0.3225
   70SLPC   H6S 6018  -0.267   0.149   9.355  0.4559  0.6772 -0.3244
   70SLPC   C27 6019  -0.385   0.277   9.213  0.3181  0.0947  1.1856
   70SLPC   H7R 6020  -0.485   0.325   9.225  0.2601  0.2150  0.2985
   70SLPC   H7S 6021  -0.396   0.193   9.142  3.4531 -1.6602  2.5954
   70SLPC   C28 6022  -0.275   0.371   9.146  0.1899  0.5434 -0.0429
   70SLPC   H8R 6023  -0.239   0.445   9.221  1.4164  0.8070 -0.8714
   70SLPC   H8S 6024  -0.323   0.436   9.069 -0.2939  4.2831  3.0984
   70SLPC   C29 6025  -0.165   0.283   9.087  0.2378  0.0949  0.3779
   70SLPC   H9R 6026  -0.128   0.195   9.143 -2.0828 -1.2904 -0.1548
   70SLPC  C210 6027  -0.106   0.295   8.967 -0.0845 -0.7504  0.3741
   70SLPC  H10R 6028  -0.022   0.228   8.943 -0.4024 -0.9409 -0.2340
   70SLPC  C211 6029  -0.143   0.406   8.864  0.1343  0.0757  0.6153
   70SLPC  H11R 6030  -0.059   0.477   8.845  1.0462 -1.3180 -0.8662
   70SLPC  H11S 6031  -0.227   0.475   8.888 -0.1604 -0.0893  0.0693
   70SLPC  C212 6032  -0.171   0.333   8.734 -0.0427 -0.2825  0.5125
   70SLPC  H12R 6033  -0.099   0.254   8.708 -1.4080 -0.6395 -2.5719
   70SLPC  C213 6034  -0.278   0.352   8.652  1.0612  0.2919 -0.6010
   70SLPC  H13R 6035  -0.286   0.303   8.554 -2.6927  0.0142 -0.2904
   70SLPC  C214 6036  -0.381   0.463   8.665  0.2774  0.8205  0.2188
   70SLPC  H14R 6037  -0.352   0.533   8.747 -1.4454  1.0285  0.6835
   70SLPC  H14S 6038  -0.481   0.420   8.688  0.6240 -0.7434 -1.0381
   70SLPC  C215 6039  -0.399   0.524   8.523  0.4818 -0.0842  0.4074
   70SLPC  H15R 6040  -0.462   0.615   8.533 -0.8237 -0.8466 -0.6096
   70SLPC  H15S 6041  -0.448   0.451   8.455 -0.3755  0.1238  0.7966
   70SLPC  C216 6042  -0.277   0.578   8.449  0.4694  0.2768 -0.2429
   70SLPC  H16R 6043  -0.207   0.493   8.432 -0.7092 -1.2044  1.8389
   70SLPC  H16S 6044  -0.219   0.642   8.519  0.7289  0.3093 -0.4863
   70SLPC  C217 6045  -0.312   0.648   8.318  0.1466 -0.1521  0.6283
   70SLPC  H17R 6046  -0.383   0.732   8.338  1.2653  1.3909 -1.4320
   70SLPC  H17S 6047  -0.361   0.580   8.244  0.3368  0.7329 -0.3375
   70SLPC  C218 6048  -0.186   0.700   8.248 -0.9488  0.1080  0.1524
   70SLPC  H18R 6049  -0.125   0.762   8.317 -1.2820  2.0819 -1.2511
   70SLPC  H18S 6050  -0.211   0.759   8.157  2.7626 -1.6739 -2.2465
   70SLPC  H18T 6051  -0.122   0.616   8.212 -0.0703  0.9408 -0.2777
   70SLPC   C33 6052  -0.187   0.719   9.580  0.3087  0.1226  0.2662
   70SLPC   H3X 6053  -0.118   0.632   9.592  1.5236  0.6071 -2.4244
   70SLPC   H3Y 6054  -0.114   0.802   9.595  1.4512 -0.6936 -0.5366
   70SLPC   C34 6055  -0.236   0.727   9.434 -0.5307 -0.1710  0.2063
   70SLPC   H4X 6056  -0.303   0.815   9.424  0.1149  0.2436 -0.6780
   70SLPC   H4Y 6057  -0.296   0.640   9.400  0.8224  0.3190 -4.0998
   70SLPC   C35 6058  -0.130   0.749   9.333 -0.4676 -0.5233  0.3151
   70SLPC   H5X 6059  -0.061   0.662   9.326 -1.4625 -1.3977  1.1725
   70SLPC   H5Y 6060  -0.069   0.840   9.353 -1.5422  1.0009 -2.6854
   70SLPC   C36 6061  -0.193   0.757   9.193  0.6895  0.0392 -0.6460
   70SLPC   H6X 6062  -0.274   0.832   9.202  0.3026 -0.6069  2.9955
   70SLPC   H6Y 6063  -0.244   0.663   9.162 -0.9479  0.0978  1.6107
   70SLPC   C37 6064  -0.083   0.792   9.087  0.2960 -0.2804 -0.5255
   70SLPC   H7X 6065  -0.003   0.716   9.102 -0.8731 -1.1384  1.8032
   70SLPC   H7Y 6066  -0.045   0.893   9.112 -0.1660 -0.8069  2.6721
   70SLPC   C38 6067  -0.145   0.802   8.948  0.5450 -0.3224 -0.5468
   70SLPC   H8X 6068  -0.212   0.890   8.931  0.8690 -0.4311 -2.6063
   70SLPC   H8Y 6069  -0.201   0.709   8.925  1.3809 -0.2100 -3.3664
   70SLPC   C39 6070  -0.037   0.822   8.844  0.6261  0.3548 -0.0081
   70SLPC   H9X 6071   0.049   0.755   8.865  0.9471 -0.0905 -2.4198
   70SLPC   H9Y 6072   0.000   0.926   8.853 -1.1930  1.2738 -2.0301
   70SLPC  C310 6073  -0.095   0.797   8.703 -0.7252  0.3493  0.1060
   70SLPC  H10X 6074  -0.188   0.855   8.689 -1.4139 -1.0877 -1.5148
   70SLPC  H10Y 6075  -0.116   0.690   8.682  0.7891  0.6272 -3.6042
   70SLPC  C311 6076   0.020   0.834   8.602  0.0121 -0.0741  0.7053
   70SLPC  H11X 6077  -0.019   0.799   8.504  0.4287 -0.5607  0.7092
   70SLPC  H11Y 6078   0.113   0.777   8.625  0.9475  1.0167 -0.2364
   70SLPC  C312 6079   0.046   0.977   8.579 -0.8277 -0.6415  0.3173
   70SLPC  H12X 6080   0.074   1.035   8.670 -2.1466 -1.3958  1.2545
   70SLPC  H12Y 6081  -0.047   1.023   8.541 -0.0125  1.4927  0.7493
   70SLPC  C313 6082   0.146   0.998   8.461 -0.3934 -0.3713  0.2177
   70SLPC  H13X 6083   0.137   1.100   8.419 -0.1406 -1.3076 -2.2827
   70SLPC  H13Y 6084   0.115   0.933   8.376 -1.1184  1.5205 -1.0346
   70SLPC  C314 6085   0.290   0.959   8.497 -0.1432  0.0828  0.5358
   70SLPC  H14X 6086   0.283   0.856   8.536  1.5550 -0.5059 -0.6268
   70SLPC  H14Y 6087   0.317   1.029   8.579 -0.5983  1.7689 -0.7027
   70SLPC  C315 6088   0.390   0.959   8.385  0.4273  0.6757  0.0322
   70SLPC  H15X 6089   0.363   0.876   8.317  0.0114 -0.0892  1.1053
   70SLPC  H15Y 6090   0.477   0.924   8.444 -1.9099 -0.9364  2.8244
   70SLPC  C316 6091   0.398   1.078   8.295 -0.3471 -0.4727  0.0062
   70SLPC  H16X 6092   0.383   1.166   8.361  0.3034 -1.3187  1.3382
   70SLPC  H16Y 6093   0.315   1.077   8.221  1.1228 -2.7349 -1.7341
   70SLPC  C317 6094   0.536   1.094   8.230 -0.2964  0.4083 -0.2085
   70SLPC  H17X 6095   0.554   0.996   8.181  1.3743  1.5518 -2.0278
   70SLPC  H17Y 6096   0.596   1.089   8.323 -1.1518 -0.0498  0.3359
   70SLPC  C318 6097   0.555   1.214   8.142 -0.0290  0.0144  0.2188
   70SLPC  H18X 6098   0.634   1.201   8.065  0.6672 -4.2029  1.3963
   70SLPC  H18Y 6099   0.579   1.299   8.209 -0.5412  0.9203 -0.7256
   70SLPC  H18Z 6100   0.455   1.235   8.097 -0.5373  2.1726  2.2038
   71SLPC     N 6101   1.006   6.138  10.652  0.0222  0.1063  0.0289
   71SLPC   C13 6102   0.915   6.039  10.726 -0.6789 -0.5497  0.1756
   71SLPC  H13A 6103   0.813   6.066  10.707 -0.3945 -1.1470 -2.6560
   71SLPC  H13B 6104   0.944   5.940  10.693  1.5433  0.4156 -1.0117
   71SLPC  H13C 6105   0.931   6.055  10.831 -1.3752 -0.1964  0.2308
   71SLPC   C14 6106   1.154   6.105  10.680  0.5151  0.4538 -0.6049
   71SLPC  H14A 6107   1.223   6.142  10.605  0.8796  0.1471 -0.4210
   71SLPC  H14B 6108   1.176   6.140  10.779 -2.0225 -1.8881  0.9212
   71SLPC  H14C 6109   1.157   5.997  10.677 -1.3070  0.3671 -0.4143
   71SLPC   C15 6110   0.970   6.268  10.696 -0.7099 -0.3752  0.2399
   71SLPC  H15A 6111   1.010   6.351  10.639 -1.8449  0.0979  0.0930
   71SLPC  H15B 6112   0.863   6.281  10.695 -0.8142 -1.1530 -1.5970
   71SLPC  H15C 6113   1.003   6.277  10.799 -0.4407 -2.6014  0.3909
   71SLPC   C12 6114   0.984   6.134  10.500 -0.3733  0.6497  0.1488
   71SLPC  H12A 6115   1.015   6.035  10.471  1.2068  0.5178  2.0508
   71SLPC  H12B 6116   1.061   6.197  10.458  1.1377  0.2468  2.1468
   71SLPC   C11 6117   0.840   6.171  10.452  0.2203 -0.2733  0.6132
   71SLPC  H11A 6118   0.759   6.124  10.512 -0.0728 -0.0408  0.3999
   71SLPC  H11B 6119   0.839   6.143  10.345 -1.7201  0.0893  0.5103
   71SLPC     P 6120   0.847   6.411  10.346  0.0021  0.5909  0.6743
   71SLPC   O13 6121   0.861   6.547  10.401  0.7658 -0.8351  0.4611
   71SLPC   O14 6122   0.962   6.360  10.266 -0.4228  0.8117 -0.5460
   71SLPC   O12 6123   0.812   6.311  10.465  0.2575  0.1689  0.2541
   71SLPC   O11 6124   0.712   6.402  10.258  0.4271 -0.1991 -1.4008
   71SLPC    C1 6125   0.612   6.490  10.284  0.6760 -1.2083 -0.3808
   71SLPC    HA 6126   0.592   6.493  10.393 -1.0060 -1.0481 -0.6582
   71SLPC    HB 6127   0.635   6.593  10.251  0.7819 -1.3095 -0.6287
   71SLPC    C2 6128   0.486   6.456  10.201  1.1210 -0.3151  0.2563
   71SLPC    HS 6129   0.433   6.554  10.197  0.5961 -0.6128 -0.2078
   71SLPC   O21 6130   0.398   6.350  10.258 -0.4360 -0.3119  0.3962
   71SLPC   C21 6131   0.270   6.372  10.235 -0.2522 -0.2279 -0.4319
   71SLPC   O22 6132   0.220   6.465  10.177 -0.3723 -0.1343  0.6546
   71SLPC   C22 6133   0.203   6.255  10.291  0.3815 -0.8882  0.7701
   71SLPC   H2R 6134   0.266   6.166  10.313  0.5669 -0.8958  0.2336
   71SLPC   H2S 6135   0.167   6.289  10.391  0.3399  0.2625  0.3836
   71SLPC    C3 6136   0.531   6.421  10.058 -0.4051  0.5308  0.0109
   71SLPC    HX 6137   0.591   6.328  10.060  2.9835  2.5619 -0.0919
   71SLPC    HY 6138   0.608   6.497  10.032  1.1131 -1.2817 -0.9322
   71SLPC   O31 6139   0.425   6.409   9.961  0.4722 -0.4558 -0.5752
   71SLPC   C31 6140   0.379   6.525   9.917  0.4718  0.0520 -0.4437
   71SLPC   O32 6141   0.418   6.633   9.949 -0.3905 -0.1959 -0.4867
   71SLPC   C32 6142   0.259   6.499   9.820 -0.3571  0.3010 -0.3440
   71SLPC   H2X 6143   0.230   6.601   9.787 -0.4468  0.2169 -0.5268
   71SLPC   H2Y 6144   0.178   6.472   9.891 -0.0736  2.1881  0.7650
   71SLPC   C23 6145   0.084   6.202  10.216  0.0852  0.2716 -0.0545
   71SLPC   H3R 6146   0.016   6.286  10.189 -0.0261  0.6324  1.3178
   71SLPC   H3S 6147   0.028   6.125  10.272 -0.4457 -0.3067 -1.3239
   71SLPC   C24 6148   0.130   6.134  10.086 -0.2952  0.1711  0.0066
   71SLPC   H4R 6149   0.190   6.205  10.025  0.6984  1.3035  2.1849
   71SLPC   H4S 6150   0.043   6.113  10.020  0.0531 -0.4351 -0.2746
   71SLPC   C25 6151   0.200   5.998  10.102 -1.0818  0.0833 -0.1015
   71SLPC   H5R 6152   0.127   5.917  10.119 -1.3783 -0.0094 -1.6686
   71SLPC   H5S 6153   0.277   6.004  10.182 -1.6799 -1.5878  0.6274
   71SLPC   C26 6154   0.270   5.946   9.969 -0.0276 -0.0935 -0.1885
   71SLPC   H6R 6155   0.297   5.841   9.991  0.2838  0.0876  0.2952
   71SLPC   H6S 6156   0.364   6.000   9.947  0.3785 -0.7631 -0.1247
   71SLPC   C27 6157   0.184   5.950   9.844  0.0755 -0.0814  0.6294
   71SLPC   H7R 6158   0.170   6.058   9.825  5.2236  0.7447 -0.0053
   71SLPC   H7S 6159   0.087   5.903   9.870 -0.2116 -0.4638 -1.0415
   71SLPC   C28 6160   0.248   5.887   9.714 -0.0927  0.1979  0.5081
   71SLPC   H8R 6161   0.345   5.939   9.702  0.5446 -0.4898  2.4068
   71SLPC   H8S 6162   0.182   5.895   9.625 -1.1130  0.7966  1.2914
   71SLPC   C29 6163   0.283   5.741   9.731  0.1279  0.8954 -0.4379
   71SLPC   H9R 6164   0.375   5.730   9.790  0.2929  1.2124 -0.6330
   71SLPC  C210 6165   0.229   5.629   9.674 -0.3153 -0.3675  0.0773
   71SLPC  H10R 6166   0.266   5.532   9.710  0.1707 -0.1850  0.0776
   71SLPC  C211 6167   0.102   5.636   9.587  0.7753  0.5641  0.3205
   71SLPC  H11R 6168   0.103   5.731   9.530  2.3936  0.3183 -0.1010
   71SLPC  H11S 6169   0.015   5.631   9.656  1.1346 -0.4462  0.7305
   71SLPC  C212 6170   0.086   5.524   9.488 -0.4353  0.0114  0.7556
   71SLPC  H12R 6171   0.001   5.459   9.512 -1.1621  0.6455 -0.0318
   71SLPC  C213 6172   0.155   5.499   9.371  0.1016 -0.2784 -0.3628
   71SLPC  H13R 6173   0.143   5.407   9.312  1.9910 -0.8062  0.0034
   71SLPC  C214 6174   0.273   5.581   9.320  0.6526  0.1299 -0.3140
   71SLPC  H14R 6175   0.366   5.527   9.348 -0.3198 -2.1565 -1.2592
   71SLPC  H14S 6176   0.285   5.680   9.369  0.2164 -0.1843  0.4573
   71SLPC  C215 6177   0.252   5.621   9.173 -0.1731 -0.2417  0.1144
   71SLPC  H15R 6178   0.325   5.702   9.150  0.0025 -0.6273 -0.6733
   71SLPC  H15S 6179   0.149   5.660   9.162  0.3741  1.1748 -0.1984
   71SLPC  C216 6180   0.261   5.507   9.082  0.1748  0.6890  0.3211
   71SLPC  H16R 6181   0.186   5.426   9.097 -0.0097  1.0042  1.1371
   71SLPC  H16S 6182   0.360   5.458   9.093 -0.6497 -1.7426 -1.9386
   71SLPC  C217 6183   0.253   5.551   8.931  0.5128  0.3507 -0.1027
   71SLPC  H17R 6184   0.321   5.638   8.922  3.8813 -2.2493 -3.2197
   71SLPC  H17S 6185   0.146   5.568   8.911 -0.0616 -2.2094  0.4390
   71SLPC  C218 6186   0.312   5.447   8.829 -0.1531 -0.3714  0.1932
   71SLPC  H18R 6187   0.419   5.433   8.852  0.1807 -1.3559 -1.7925
   71SLPC  H18S 6188   0.306   5.503   8.733  0.9774 -0.2860  0.1605
   71SLPC  H18T 6189   0.254   5.353   8.825  1.6204 -1.5488  1.1375
   71SLPC   C33 6190   0.300   6.401   9.708 -0.4169 -0.1404  0.4246
   71SLPC   H3X 6191   0.320   6.300   9.750 -2.5042  0.0243  1.9583
   71SLPC   H3Y 6192   0.394   6.434   9.657 -1.1629 -1.5554 -2.0681
   71SLPC   C34 6193   0.188   6.391   9.602 -0.1256 -0.6993 -0.3756
   71SLPC   H4X 6194   0.180   6.496   9.567 -0.9121 -0.6567 -0.0820
   71SLPC   H4Y 6195   0.085   6.373   9.641 -0.1956  0.8377  0.2145
   71SLPC   C35 6196   0.225   6.308   9.479 -0.0414  0.2164  0.6031
   71SLPC   H5X 6197   0.335   6.302   9.466 -0.1270 -1.2329  0.4432
   71SLPC   H5Y 6198   0.185   6.348   9.384  2.4920 -0.0052 -0.6434
   71SLPC   C36 6199   0.170   6.168   9.488  0.0266  0.1996  0.2145
   71SLPC   H6X 6200   0.059   6.178   9.481  0.1950  0.8188 -2.5966
   71SLPC   H6Y 6201   0.203   6.121   9.583  0.2877 -2.3968 -1.0781
   71SLPC   C37 6202   0.216   6.078   9.371  0.7765 -0.3129 -0.5852
   71SLPC   H7X 6203   0.205   5.969   9.394  1.4783 -0.5091 -1.1432
   71SLPC   H7Y 6204   0.327   6.079   9.365  0.7702 -1.5839 -1.4625
   71SLPC   C38 6205   0.139   6.104   9.245 -1.0578  0.3719  0.0585
   71SLPC   H8X 6206   0.162   6.206   9.205  0.1773 -0.5417 -1.6847
   71SLPC   H8Y 6207   0.030   6.116   9.264 -1.3524  0.6494 -1.5983
   71SLPC   C39 6208   0.180   5.998   9.137  0.3177 -0.0715 -0.4037
   71SLPC   H9X 6209   0.153   5.895   9.169 -0.9323  0.6408  0.9141
   71SLPC   H9Y 6210   0.291   6.003   9.130  0.4485 -0.8131  0.9534
   71SLPC  C310 6211   0.110   6.029   9.003 -0.5866 -0.5459 -1.1067
   71SLPC  H10X 6212   0.155   6.123   8.966  2.6408 -0.9716  1.3141
   71SLPC  H10Y 6213   0.000   6.048   9.008 -0.6927 -1.4042  1.3144
   71SLPC  C311 6214   0.122   5.923   8.899  0.3901 -0.1061 -0.3951
   71SLPC  H11X 6215   0.071   5.833   8.939 -0.9709  0.4175 -0.8916
   71SLPC  H11Y 6216   0.232   5.908   8.898  0.1370 -2.2564 -1.7645
   71SLPC  C312 6217   0.090   5.975   8.760 -0.1153  0.5058  0.2730
   71SLPC  H12X 6218   0.135   6.074   8.737  0.0987  0.4254  0.3374
   71SLPC  H12Y 6219  -0.020   5.984   8.763 -0.3056  0.7112 -3.0980
   71SLPC  C313 6220   0.133   5.883   8.646 -0.6352 -0.5623  0.1176
   71SLPC  H13X 6221   0.242   5.861   8.652 -0.6161 -0.3662  0.5413
   71SLPC  H13Y 6222   0.126   5.944   8.553 -2.7365 -0.8717  0.0313
   71SLPC  C314 6223   0.049   5.758   8.635 -0.0674  0.4195  0.2881
   71SLPC  H14X 6224  -0.048   5.776   8.584 -0.4199  0.5231  0.9950
   71SLPC  H14Y 6225   0.047   5.713   8.736 -1.1914 -2.7420 -1.0254
   71SLPC  C315 6226   0.126   5.668   8.544  0.7621  0.5916 -0.1960
   71SLPC  H15X 6227   0.233   5.665   8.575  0.8806 -0.8565 -0.6900
   71SLPC  H15Y 6228   0.115   5.697   8.437  1.2481 -1.5098 -0.8654
   71SLPC  C316 6229   0.083   5.518   8.574  0.1662 -0.6352  0.2450
   71SLPC  H16X 6230   0.070   5.500   8.683  1.8614 -0.2672  0.5407
   71SLPC  H16Y 6231   0.169   5.454   8.545  2.0978  0.1437  3.6866
   71SLPC  C317 6232  -0.035   5.472   8.485  0.7662 -0.7862 -0.4500
   71SLPC  H17X 6233  -0.121   5.543   8.481  0.4583 -1.0951  0.3845
   71SLPC  H17Y 6234  -0.085   5.379   8.520 -0.4240 -0.5013 -1.3251
   71SLPC  C318 6235   0.004   5.426   8.342  0.4278 -0.3249  0.1695
   71SLPC  H18X 6236  -0.080   5.410   8.271  0.8264 -3.2747  0.2044
   71SLPC  H18Y 6237   0.056   5.327   8.345  1.5419  0.2580  2.7628
   71SLPC  H18Z 6238   0.064   5.507   8.296 -1.5309  0.4635 -1.1213
   72SLPC     N 6239   1.441   4.052  10.590  0.8772 -0.5426  0.1495
   72SLPC   C13 6240   1.563   3.995  10.653  0.1494 -0.8952  0.0533
   72SLPC  H13A 6241   1.643   4.064  10.629 -1.7575  1.1226 -0.9651
   72SLPC  H13B 6242   1.562   3.978  10.760 -1.5164 -0.9696  0.0645
   72SLPC  H13C 6243   1.584   3.895  10.618  1.4191 -0.6754  0.1328
   72SLPC   C14 6244   1.376   4.159  10.677  0.7255  0.0684  0.6115
   72SLPC  H14A 6245   1.434   4.249  10.661  2.4235 -0.9828  0.5111
   72SLPC  H14B 6246   1.276   4.175  10.642  1.1411 -2.1049 -1.8436
   72SLPC  H14C 6247   1.372   4.124  10.780 -0.2464 -2.3952 -0.1863
   72SLPC   C15 6248   1.343   3.941  10.597 -0.6236  0.0644  0.0053
   72SLPC  H15A 6249   1.251   3.977  10.553 -0.4776 -0.4966 -0.7638
   72SLPC  H15B 6250   1.372   3.854  10.541 -1.8011  0.7241 -1.7114
   72SLPC  H15C 6251   1.326   3.911  10.700 -0.2677 -0.0635  0.0273
   72SLPC   C12 6252   1.461   4.076  10.444  0.6046 -0.1631 -0.7755
   72SLPC  H12A 6253   1.364   4.080  10.396  0.0914 -1.9685  0.0012
   72SLPC  H12B 6254   1.506   3.982  10.414 -1.6056 -1.9002  0.9750
   72SLPC   C11 6255   1.545   4.200  10.411  0.2518  0.0199  0.5659
   72SLPC  H11A 6256   1.555   4.203  10.300 -2.4867 -2.4758  0.1270
   72SLPC  H11B 6257   1.649   4.181  10.445  1.0176  1.0095 -1.1190
   72SLPC     P 6258   1.381   4.396  10.398  0.1035  0.3157 -0.1732
   72SLPC   O13 6259   1.272   4.299  10.368  0.0660  0.0016 -0.2145
   72SLPC   O14 6260   1.341   4.512  10.477  0.3712 -0.0276 -0.0442
   72SLPC   O12 6261   1.500   4.322  10.465 -0.8079 -0.0609  0.2034
   72SLPC   O11 6262   1.449   4.445  10.264 -0.4176  0.0706  0.0927
   72SLPC    C1 6263   1.430   4.376  10.142  0.4312  0.4690 -0.2413
   72SLPC    HA 6264   1.509   4.298  10.135  0.5308  0.3541  1.6748
   72SLPC    HB 6265   1.332   4.324  10.135 -0.0900  0.8876  2.7184
   72SLPC    C2 6266   1.451   4.465  10.021  0.3049 -0.3585  0.8421
   72SLPC    HS 6267   1.561   4.486  10.022 -0.0428  1.6779  1.4486
   72SLPC   O21 6268   1.401   4.600  10.036  0.4150  0.5433 -0.2094
   72SLPC   C21 6269   1.276   4.613  10.080 -0.1498 -0.2983 -0.3569
   72SLPC   O22 6270   1.192   4.524  10.092  0.1181  0.1836 -0.6654
   72SLPC   C22 6271   1.250   4.766  10.099 -0.2976  0.4807 -0.2203
   72SLPC   H2R 6272   1.162   4.765  10.167  0.4451  0.7535  0.7682
   72SLPC   H2S 6273   1.335   4.823  10.142  2.2602 -2.2723 -1.2920
   72SLPC    C3 6274   1.411   4.397   9.889 -0.1407 -0.4560 -0.1984
   72SLPC    HX 6275   1.302   4.379   9.892 -0.3987  0.7447 -1.4651
   72SLPC    HY 6276   1.466   4.301   9.882  0.4163 -0.0732 -1.3744
   72SLPC   O31 6277   1.444   4.476   9.771  0.3681  0.0200 -0.0271
   72SLPC   C31 6278   1.405   4.416   9.658 -0.4825  0.1474 -1.1300
   72SLPC   O32 6279   1.347   4.305   9.655  1.2303  0.0080  0.2406
   72SLPC   C32 6280   1.456   4.495   9.533 -0.4688  0.5485 -0.5944
   72SLPC   H2X 6281   1.539   4.562   9.566 -0.4950  0.0156  0.6247
   72SLPC   H2Y 6282   1.376   4.565   9.502 -0.0445  0.9347 -0.8463
   72SLPC   C23 6283   1.215   4.844   9.972  0.4601 -0.6236  0.2493
   72SLPC   H3R 6284   1.165   4.942   9.988 -0.0688 -0.8409 -0.0529
   72SLPC   H3S 6285   1.143   4.788   9.907  1.8365 -0.5649 -1.3850
   72SLPC   C24 6286   1.333   4.882   9.878 -0.3505  0.7207  0.4042
   72SLPC   H4R 6287   1.386   4.788   9.851 -2.0062 -1.0835  2.9654
   72SLPC   H4S 6288   1.402   4.950   9.933 -0.5507  1.7990 -0.6454
   72SLPC   C25 6289   1.280   4.956   9.752  0.1801  1.0462 -0.1776
   72SLPC   H5R 6290   1.366   5.015   9.713  0.4066 -1.4477 -3.9460
   72SLPC   H5S 6291   1.204   5.032   9.781 -0.5271  0.6039 -0.8619
   72SLPC   C26 6292   1.227   4.855   9.645  0.0448 -0.2800  0.4410
   72SLPC   H6R 6293   1.170   4.767   9.681  0.4880 -0.8542 -0.2581
   72SLPC   H6S 6294   1.318   4.801   9.614  0.4795  0.7005 -0.0518
   72SLPC   C27 6295   1.157   4.933   9.531 -0.5071 -0.4412 -0.1564
   72SLPC   H7R 6296   1.238   4.995   9.486  0.5140 -0.4694  1.5211
   72SLPC   H7S 6297   1.068   4.990   9.564 -0.4760  0.9856 -2.3570
   72SLPC   C28 6298   1.114   4.842   9.418  0.5253 -0.7680 -0.0438
   72SLPC   H8R 6299   1.053   4.757   9.458  2.8637 -3.3691 -1.6591
   72SLPC   H8S 6300   1.202   4.793   9.371 -1.2913 -1.3843 -3.0866
   72SLPC   C29 6301   1.048   4.918   9.314 -0.1081 -0.0445 -0.0805
   72SLPC   H9R 6302   0.940   4.929   9.327 -0.2038  0.9023 -1.4767
   72SLPC  C210 6303   1.092   4.975   9.199 -0.9530  0.2536 -0.2658
   72SLPC  H10R 6304   1.019   5.035   9.143  0.3705  2.7113  0.5034
   72SLPC  C211 6305   1.239   4.971   9.156 -0.2851 -0.6581  0.7630
   72SLPC  H11R 6306   1.243   4.929   9.053 -0.0522 -2.0785  1.3293
   72SLPC  H11S 6307   1.310   4.899   9.202 -0.7722 -0.8843  1.1763
   72SLPC  C212 6308   1.300   5.112   9.170 -0.1479 -1.0143  0.0853
   72SLPC  H12R 6309   1.341   5.131   9.271 -1.4614  2.2461  0.1416
   72SLPC  C213 6310   1.301   5.215   9.081 -0.0671 -0.0441 -0.2866
   72SLPC  H13R 6311   1.348   5.309   9.114 -0.0467  0.2461 -1.1254
   72SLPC  C214 6312   1.243   5.218   8.940  0.9422 -0.3932  0.2392
   72SLPC  H14R 6313   1.147   5.273   8.931  0.8652 -0.8275 -2.3517
   72SLPC  H14S 6314   1.232   5.116   8.897 -1.1441  0.0517 -0.4131
   72SLPC  C215 6315   1.321   5.315   8.853  0.0899  0.1545  0.4084
   72SLPC  H15R 6316   1.427   5.319   8.888  0.0304  0.2775  0.5778
   72SLPC  H15S 6317   1.281   5.419   8.855  0.1415  0.2110 -0.9108
   72SLPC  C216 6318   1.314   5.269   8.705 -0.3506  0.3773  0.4120
   72SLPC  H16R 6319   1.363   5.170   8.693 -0.0580  0.6389 -0.6824
   72SLPC  H16S 6320   1.367   5.338   8.636  1.0667 -1.8419 -0.8802
   72SLPC  C217 6321   1.176   5.252   8.656  0.7091  0.0410 -0.1872
   72SLPC  H17R 6322   1.113   5.181   8.714 -1.0643  1.4092 -0.3509
   72SLPC  H17S 6323   1.181   5.211   8.553  2.4120 -0.3694  0.0450
   72SLPC  C218 6324   1.106   5.391   8.641  0.6433 -0.1730  0.2511
   72SLPC  H18R 6325   1.066   5.420   8.741 -0.8624  0.5573 -0.5279
   72SLPC  H18S 6326   1.011   5.378   8.584  0.0212 -1.1900  1.4441
   72SLPC  H18T 6327   1.171   5.463   8.589  2.0493 -0.8184  1.0428
   72SLPC   C33 6328   1.508   4.404   9.417  0.0234 -1.1987  0.0059
   72SLPC   H3X 6329   1.427   4.332   9.391 -1.0285  0.3749 -1.2558
   72SLPC   H3Y 6330   1.589   4.339   9.456  0.3359 -0.4446  0.6263
   72SLPC   C34 6331   1.539   4.495   9.292  0.9003 -0.0319 -0.6804
   72SLPC   H4X 6332   1.598   4.437   9.218  1.9213  0.0038  0.0837
   72SLPC   H4Y 6333   1.582   4.593   9.324  1.1120 -0.2141 -0.3990
   72SLPC   C35 6334   1.405   4.537   9.226 -0.2455  0.0787  0.0274
   72SLPC   H5X 6335   1.346   4.592   9.302  2.2252  3.0407 -0.0355
   72SLPC   H5Y 6336   1.346   4.444   9.207  3.2763 -2.4138  0.3433
   72SLPC   C36 6337   1.429   4.608   9.092 -0.6281 -0.6405 -0.3774
   72SLPC   H6X 6338   1.477   4.705   9.119 -0.0774 -0.7133 -1.0615
   72SLPC   H6Y 6339   1.325   4.627   9.057 -0.6044  1.0813  0.3710
   72SLPC   C37 6340   1.516   4.526   8.999  0.3942 -0.2012  0.4790
   72SLPC   H7X 6341   1.473   4.425   8.984 -1.9048  1.1924 -4.7086
   72SLPC   H7Y 6342   1.619   4.533   9.040  0.8082  0.6846 -0.6605
   72SLPC   C38 6343   1.521   4.587   8.858  0.6335  0.5211 -0.6256
   72SLPC   H8X 6344   1.558   4.692   8.863  1.1748  0.3317 -0.5101
   72SLPC   H8Y 6345   1.420   4.582   8.814  1.2664  0.4650 -2.1487
   72SLPC   C39 6346   1.609   4.508   8.763  0.0310 -0.3472  0.0983
   72SLPC   H9X 6347   1.566   4.406   8.756 -1.3073  0.1584  0.5627
   72SLPC   H9Y 6348   1.711   4.491   8.803  0.4931 -0.3954 -1.0585
   72SLPC  C310 6349   1.609   4.562   8.623 -0.4762  0.2886  0.5326
   72SLPC  H10X 6350   1.660   4.661   8.625 -0.1275  0.1029  0.8487
   72SLPC  H10Y 6351   1.509   4.568   8.576 -0.7656  0.6161  1.1794
   72SLPC  C311 6352   1.671   4.461   8.522 -0.3025  0.8552  0.3722
   72SLPC  H11X 6353   1.630   4.359   8.535  1.6430  0.3684  4.6296
   72SLPC  H11Y 6354   1.780   4.452   8.540 -0.5381 -0.2866  1.3000
   72SLPC  C312 6355   1.645   4.507   8.378 -0.1068  0.0401  0.7404
   72SLPC  H12X 6356   1.716   4.590   8.357 -0.0308 -0.5435 -1.5861
   72SLPC  H12Y 6357   1.542   4.544   8.362  0.2030  0.6513  0.0975
   72SLPC  C313 6358   1.678   4.403   8.277  0.1652 -0.5700 -0.0422
   72SLPC  H13X 6359   1.759   4.337   8.314  0.0948 -0.4311  0.3670
   72SLPC  H13Y 6360   1.708   4.434   8.174  1.5233 -1.4128  0.0759
   72SLPC  C314 6361   1.561   4.310   8.252 -0.3716 -0.5614 -0.7304
   72SLPC  H14X 6362   1.464   4.359   8.230 -0.9069 -1.4407 -0.3924
   72SLPC  H14Y 6363   1.531   4.247   8.339  0.2587  0.2451  0.0991
   72SLPC  C315 6364   1.589   4.228   8.124 -0.3286  0.8337 -0.0229
   72SLPC  H15X 6365   1.655   4.144   8.154 -2.6375 -1.0938 -0.1088
   72SLPC  H15Y 6366   1.634   4.288   8.041  2.5269  0.3152  1.0341
   72SLPC  C316 6367   1.463   4.155   8.080 -0.3750 -0.1159  0.5935
   72SLPC  H16X 6368   1.370   4.214   8.094  0.7014  1.2386  2.4699
   72SLPC  H16Y 6369   1.444   4.057   8.129  1.4901 -1.0638 -0.4872
   72SLPC  C317 6370   1.478   4.117   7.926  0.2662 -1.1380  0.2868
   72SLPC  H17X 6371   1.555   4.036   7.918  1.6106 -0.0380  1.5435
   72SLPC  H17Y 6372   1.528   4.195   7.864 -2.4674 -0.1888 -0.8843
   72SLPC  C318 6373   1.350   4.070   7.852 -0.0113  0.8945  0.1746
   72SLPC  H18X 6374   1.363   4.070   7.741 -1.2740 -4.0539 -0.2245
   72SLPC  H18Y 6375   1.262   4.130   7.882 -1.7115 -0.7082 -1.3298
   72SLPC  H18Z 6376   1.311   3.968   7.877 -0.5370  0.9988 -0.1915
   73SLPC     N 6377   1.552   3.488  10.679 -0.4507 -0.3112  0.2443
   73SLPC   C13 6378   1.641   3.603  10.720  0.0900  0.2064  0.6890
   73SLPC  H13A 6379   1.659   3.652  10.625  1.3513  1.0415  1.3334
   73SLPC  H13B 6380   1.575   3.663  10.781  0.8625  1.1273  0.6415
   73SLPC  H13C 6381   1.732   3.576  10.771 -0.5004  1.7357  2.6586
   73SLPC   C14 6382   1.537   3.398  10.802  0.1008  0.0478 -0.7275
   73SLPC  H14A 6383   1.634   3.359  10.828  1.4825  1.7076 -2.9935
   73SLPC  H14B 6384   1.506   3.461  10.884 -4.2354 -1.7929 -0.7060
   73SLPC  H14C 6385   1.467   3.319  10.780  0.4691 -0.1387 -1.2533
   73SLPC   C15 6386   1.630   3.411  10.584 -0.3205  0.5950  1.0063
   73SLPC  H15A 6387   1.728   3.385  10.620 -0.4737 -0.6219  0.5942
   73SLPC  H15B 6388   1.590   3.312  10.567  3.0967 -0.8950  0.6888
   73SLPC  H15C 6389   1.630   3.463  10.489  0.6388 -0.5918  0.3243
   73SLPC   C12 6390   1.419   3.541  10.616  0.5456  0.5222  0.2958
   73SLPC  H12A 6391   1.374   3.617  10.678 -0.6951 -0.6476  0.8886
   73SLPC  H12B 6392   1.357   3.455  10.594 -0.6855  1.2766  0.7104
   73SLPC   C11 6393   1.431   3.616  10.485  0.3100 -0.3833 -0.0378
   73SLPC  H11A 6394   1.329   3.649  10.456  0.4796 -1.6661 -2.3164
   73SLPC  H11B 6395   1.454   3.532  10.417  2.5561 -0.2754  0.5001
   73SLPC     P 6396   1.638   3.737  10.371 -0.2322  0.7523  0.0704
   73SLPC   O13 6397   1.673   3.879  10.373 -0.0362  0.6236 -0.1098
   73SLPC   O14 6398   1.755   3.641  10.398  1.1670 -0.5621 -0.2932
   73SLPC   O12 6399   1.530   3.713  10.482  0.0590 -0.2787 -0.0196
   73SLPC   O11 6400   1.565   3.696  10.237  0.8123 -0.1191  0.3940
   73SLPC    C1 6401   1.438   3.753  10.197 -0.4576  0.3938  0.1123
   73SLPC    HA 6402   1.369   3.670  10.224 -1.0332  0.1615 -1.9362
   73SLPC    HB 6403   1.416   3.846  10.254  0.6152  0.7033  0.0553
   73SLPC    C2 6404   1.434   3.796  10.050  0.2770  0.3738 -0.1948
   73SLPC    HS 6405   1.337   3.845  10.030 -0.1981 -0.0162  1.0848
   73SLPC   O21 6406   1.444   3.678   9.957 -0.0156 -0.3777 -0.1189
   73SLPC   C21 6407   1.334   3.607   9.956  0.5554  0.0653 -0.0951
   73SLPC   O22 6408   1.224   3.642  10.001  0.6614 -0.2037  0.5460
   73SLPC   C22 6409   1.359   3.474   9.883 -0.6465  0.4483  0.1481
   73SLPC   H2R 6410   1.469   3.459   9.874 -0.8443 -1.4168  0.2844
   73SLPC   H2S 6411   1.321   3.392   9.947  0.4965 -0.3439 -0.1514
   73SLPC    C3 6412   1.544   3.900  10.006 -0.2082  0.9904  0.3304
   73SLPC    HX 6413   1.649   3.868  10.021 -0.6662 -0.2014  1.1861
   73SLPC    HY 6414   1.517   3.984  10.073 -1.2920  2.5755 -1.9611
   73SLPC   O31 6415   1.516   3.938   9.865 -0.2060  0.3865 -0.2679
   73SLPC   C31 6416   1.581   3.874   9.769 -0.1947  0.3072 -0.8451
   73SLPC   O32 6417   1.664   3.784   9.781  0.2887 -0.8424  0.5730
   73SLPC   C32 6418   1.546   3.942   9.636 -0.0434  0.1058  1.1171
   73SLPC   H2X 6419   1.537   4.052   9.648 -2.1050  0.3271 -1.3679
   73SLPC   H2Y 6420   1.442   3.910   9.612 -0.4086  2.0105 -0.1288
   73SLPC   C23 6421   1.288   3.479   9.746  0.0399  0.0207  1.1013
   73SLPC   H3R 6422   1.188   3.525   9.759 -0.4059 -0.7524  0.4415
   73SLPC   H3S 6423   1.275   3.381   9.695 -0.5035  1.2487 -1.3058
   73SLPC   C24 6424   1.361   3.562   9.638  1.0392  0.5284  0.0493
   73SLPC   H4R 6425   1.462   3.516   9.625  0.5741 -0.6800  0.5503
   73SLPC   H4S 6426   1.381   3.670   9.657  1.8909  0.3810  0.0475
   73SLPC   C25 6427   1.288   3.559   9.504  0.3037 -0.1968 -0.4846
   73SLPC   H5R 6428   1.191   3.611   9.515 -1.6022 -3.2302 -1.7996
   73SLPC   H5S 6429   1.257   3.455   9.480 -1.2987 -0.0455  0.7567
   73SLPC   C26 6430   1.363   3.629   9.387  0.1919  0.8847 -0.4901
   73SLPC   H6R 6431   1.467   3.593   9.368  0.7963  1.5408  1.3404
   73SLPC   H6S 6432   1.389   3.731   9.424  1.7938  0.3072  0.1001
   73SLPC   C27 6433   1.290   3.639   9.253  0.0945 -0.0299 -0.4112
   73SLPC   H7R 6434   1.183   3.654   9.276 -0.2141 -1.5490 -0.7705
   73SLPC   H7S 6435   1.293   3.547   9.191  0.4223  1.0362 -2.0588
   73SLPC   C28 6436   1.328   3.755   9.159 -0.0927 -0.0406 -0.0665
   73SLPC   H8R 6437   1.304   3.851   9.210  0.3722 -1.0576  2.2266
   73SLPC   H8S 6438   1.267   3.750   9.067 -0.4069 -1.0307  0.1923
   73SLPC   C29 6439   1.472   3.747   9.118  0.1579 -0.0446  0.4846
   73SLPC   H9R 6440   1.546   3.789   9.188 -0.0718 -1.5873  1.7192
   73SLPC  C210 6441   1.518   3.692   9.004  0.0230  0.2157  0.3929
   73SLPC  H10R 6442   1.623   3.695   8.971 -0.0274 -1.3518  0.0240
   73SLPC  C211 6443   1.430   3.629   8.897  0.4084 -0.1286  0.1823
   73SLPC  H11R 6444   1.474   3.643   8.796  2.1759 -0.4654  0.8701
   73SLPC  H11S 6445   1.338   3.690   8.891 -1.2696 -2.6152 -0.8599
   73SLPC  C212 6446   1.375   3.488   8.914  0.1597 -0.1316  0.4854
   73SLPC  H12R 6447   1.319   3.463   9.005 -0.6110 -1.5606 -0.3364
   73SLPC  C213 6448   1.380   3.396   8.816 -0.6009  0.2502  0.1445
   73SLPC  H13R 6449   1.326   3.301   8.829  0.4369 -0.2712  0.7805
   73SLPC  C214 6450   1.432   3.415   8.675 -0.4175  0.5487 -0.3362
   73SLPC  H14R 6451   1.541   3.392   8.671 -0.0549  1.7998  1.1924
   73SLPC  H14S 6452   1.422   3.522   8.647  1.0613  1.0948  1.0693
   73SLPC  C215 6453   1.367   3.311   8.576 -0.5902  0.2807  0.2468
   73SLPC  H15R 6454   1.371   3.210   8.622 -1.3642 -0.6575 -1.6357
   73SLPC  H15S 6455   1.430   3.306   8.484  1.1694  1.0940  1.3379
   73SLPC  C216 6456   1.226   3.350   8.533  0.0287 -0.1927  0.9909
   73SLPC  H16R 6457   1.214   3.456   8.501  0.6738 -0.1574  0.8364
   73SLPC  H16S 6458   1.166   3.334   8.625  0.7861  0.4720  1.6128
   73SLPC  C217 6459   1.176   3.263   8.413  0.1849  0.2913 -0.0566
   73SLPC  H17R 6460   1.191   3.154   8.424  1.1786  0.5071  0.8377
   73SLPC  H17S 6461   1.224   3.305   8.322  0.8466  2.0311  1.0443
   73SLPC  C218 6462   1.027   3.295   8.399 -0.6103  0.3109  0.2753
   73SLPC  H18R 6463   0.988   3.255   8.496  1.4554  0.2545  1.1383
   73SLPC  H18S 6464   0.978   3.243   8.314 -0.9631  0.7249  0.2188
   73SLPC  H18T 6465   1.011   3.405   8.398 -0.6543  0.3017 -1.1892
   73SLPC   C33 6466   1.645   3.919   9.516  0.5407  0.0539  0.0098
   73SLPC   H3X 6467   1.629   3.819   9.468  2.7296  0.1074 -0.9499
   73SLPC   H3Y 6468   1.749   3.927   9.554  0.1781  1.2056  0.7870
   73SLPC   C34 6469   1.627   4.025   9.412 -0.3735  0.2654  0.0536
   73SLPC   H4X 6470   1.639   4.124   9.462 -1.7094  0.8430 -0.7281
   73SLPC   H4Y 6471   1.525   4.019   9.369 -0.2012  0.2421 -0.3510
   73SLPC   C35 6472   1.729   4.012   9.295 -0.5533  0.2410 -0.0548
   73SLPC   H5X 6473   1.728   3.905   9.266 -1.1853 -0.0858  1.1230
   73SLPC   H5Y 6474   1.825   4.043   9.343 -0.2008 -3.7884  2.2793
   73SLPC   C36 6475   1.694   4.101   9.171 -0.3297  0.2108  0.2162
   73SLPC   H6X 6476   1.738   4.203   9.177 -1.3387  0.7416 -1.0379
   73SLPC   H6Y 6477   1.583   4.105   9.169 -0.2760  1.6667 -0.3744
   73SLPC   C37 6478   1.761   4.040   9.053  0.0999 -0.2729  0.1854
   73SLPC   H7X 6479   1.693   3.961   9.011  0.4086 -0.1341 -0.5956
   73SLPC   H7Y 6480   1.862   4.001   9.077 -0.2770 -0.5267  1.4417
   73SLPC   C38 6481   1.771   4.135   8.930  0.2749 -1.0518 -0.1220
   73SLPC   H8X 6482   1.813   4.235   8.957  1.3387 -0.7600 -2.6096
   73SLPC   H8Y 6483   1.669   4.154   8.892 -0.6696 -0.6801  2.3760
   73SLPC   C39 6484   1.863   4.083   8.821 -0.2427  0.1918  0.2380
   73SLPC   H9X 6485   1.811   3.997   8.774 -2.2650  0.6722  1.5270
   73SLPC   H9Y 6486   1.955   4.066   8.882 -0.4179  0.9569  0.7261
   73SLPC  C310 6487   1.883   4.184   8.703  0.2973  0.0323  0.4217
   73SLPC  H10X 6488   1.982   4.231   8.723  0.8808 -2.1032  3.1811
   73SLPC  H10Y 6489   1.802   4.259   8.701  0.1935 -0.0413  1.3602
   73SLPC  C311 6490   1.898   4.123   8.563  0.4815 -0.6741 -0.0205
   73SLPC  H11X 6491   1.870   4.186   8.475 -0.5163 -1.5095 -0.3189
   73SLPC  H11Y 6492   1.829   4.037   8.555 -1.3270  0.7493 -0.4567
   73SLPC  C312 6493   2.044   4.076   8.537 -0.1275  0.0490 -0.1428
   73SLPC  H12X 6494   2.068   3.985   8.596 -0.6529  0.1889  0.2957
   73SLPC  H12Y 6495   2.123   4.152   8.552  1.1296 -0.6739 -2.5827
   73SLPC  C313 6496   2.073   4.042   8.391  0.8578 -0.0493 -0.0861
   73SLPC  H13X 6497   2.052   4.134   8.332 -2.7968  0.6811  2.0810
   73SLPC  H13Y 6498   2.003   3.964   8.353  0.0786  0.7978 -0.4347
   73SLPC  C314 6499   2.211   4.001   8.359  0.6957  0.0783  0.6694
   73SLPC  H14X 6500   2.217   3.937   8.268  1.2935  0.3729  0.4942
   73SLPC  H14Y 6501   2.232   3.928   8.441 -0.4309 -2.4115 -1.1360
   73SLPC  C315 6502   2.325   4.102   8.349  0.2021  0.5635  0.1433
   73SLPC  H15X 6503   2.424   4.062   8.380  0.2403 -1.1183 -1.9169
   73SLPC  H15Y 6504   2.298   4.188   8.415 -2.8536  0.2029 -0.4778
   73SLPC  C316 6505   2.337   4.162   8.205  0.1144  0.7221 -0.3820
   73SLPC  H16X 6506   2.232   4.177   8.172 -0.8268  1.7338  2.6859
   73SLPC  H16Y 6507   2.396   4.102   8.133  1.6766  3.3829 -1.4597
   73SLPC  C317 6508   2.390   4.298   8.209  0.6544 -0.3464  0.4381
   73SLPC  H17X 6509   2.459   4.301   8.295 -0.4375 -1.2202  1.3788
   73SLPC  H17Y 6510   2.307   4.371   8.221 -1.1103 -2.3097  0.6518
   73SLPC  C318 6511   2.468   4.346   8.092 -0.5300  0.1807 -0.3913
   73SLPC  H18X 6512   2.524   4.440   8.112  0.0687 -0.5597  1.5922
   73SLPC  H18Y 6513   2.396   4.366   8.009 -0.5420 -3.0733 -1.3095
   73SLPC  H18Z 6514   2.551   4.274   8.076 -0.1065 -0.1927  2.9146
   74SLPC     N 6515   3.361   4.980  10.754  0.2830  0.1154  0.3311
   74SLPC   C13 6516   3.423   4.862  10.818  0.1693 -0.8558  0.0551
   74SLPC  H13A 6517   3.511   4.887  10.876 -0.7887  0.1277  1.1372
   74SLPC  H13B 6518   3.362   4.816  10.894  1.1342 -0.4658  1.1026
   74SLPC  H13C 6519   3.450   4.790  10.743  1.1091 -1.1631  0.6650
   74SLPC   C14 6520   3.368   5.099  10.835 -0.8517 -0.2123 -0.4326
   74SLPC  H14A 6521   3.306   5.098  10.923 -2.0777 -1.6868 -1.2675
   74SLPC  H14B 6522   3.472   5.105  10.864 -1.1855 -0.7542  0.9222
   74SLPC  H14C 6523   3.346   5.193  10.785 -0.4288 -0.4059 -0.9974
   74SLPC   C15 6524   3.216   4.947  10.728 -0.5093 -0.7522 -0.4149
   74SLPC  H15A 6525   3.209   4.851  10.679 -0.4092 -0.1071 -1.7590
   74SLPC  H15B 6526   3.159   4.950  10.819  0.5981 -0.1404  0.2775
   74SLPC  H15C 6527   3.162   5.016  10.664 -1.4984 -0.7318  0.4192
   74SLPC   C12 6528   3.435   5.012  10.627  0.7725  0.6043  0.1171
   74SLPC  H12A 6529   3.378   5.076  10.562 -1.2444 -1.9816 -0.8450
   74SLPC  H12B 6530   3.436   4.922  10.567 -2.2260 -0.7517  1.9029
   74SLPC   C11 6531   3.578   5.077  10.633 -0.4270  1.0870 -0.8445
   74SLPC  H11A 6532   3.624   5.077  10.532  1.3333  0.7684 -0.0854
   74SLPC  H11B 6533   3.639   5.012  10.700  0.2423  1.5722 -0.9724
   74SLPC     P 6534   3.628   5.339  10.627  0.0797 -0.2279  0.1607
   74SLPC   O13 6535   3.541   5.450  10.673 -0.0509 -0.1136  0.1719
   74SLPC   O14 6536   3.772   5.352  10.648 -0.0106 -0.4099  0.2397
   74SLPC   O12 6537   3.572   5.210  10.686 -0.3802  0.3736 -0.5989
   74SLPC   O11 6538   3.599   5.314  10.470  0.1853  0.2893 -0.7438
   74SLPC    C1 6539   3.467   5.314  10.410 -0.7342 -0.0092 -0.9345
   74SLPC    HA 6540   3.416   5.217  10.424  0.5129 -0.7776 -1.5142
   74SLPC    HB 6541   3.401   5.398  10.442  0.8901  1.4795 -1.3125
   74SLPC    C2 6542   3.479   5.317  10.257  0.6888 -0.4493  0.4488
   74SLPC    HS 6543   3.375   5.313  10.216  1.3183  1.2215 -1.4650
   74SLPC   O21 6544   3.563   5.216  10.211  0.0667 -0.3823  0.0519
   74SLPC   C21 6545   3.508   5.092  10.192 -0.8403 -0.7047 -0.3881
   74SLPC   O22 6546   3.394   5.060  10.214 -0.2383  0.1903 -0.2798
   74SLPC   C22 6547   3.623   4.989  10.153 -0.0514 -0.9306  0.2243
   74SLPC   H2R 6548   3.711   5.056  10.155 -0.9091  0.2863 -0.6597
   74SLPC   H2S 6549   3.636   4.920  10.239  0.6250 -1.5801 -0.3902
   74SLPC    C3 6550   3.548   5.453  10.211 -0.1449 -0.2152 -0.4722
   74SLPC    HX 6551   3.653   5.442  10.245 -0.9818 -2.3018  1.7114
   74SLPC    HY 6552   3.502   5.537  10.266  1.8867 -0.7591  2.2885
   74SLPC   O31 6553   3.543   5.469  10.068  0.1460 -0.4984  0.3481
   74SLPC   C31 6554   3.442   5.539  10.033  0.0706  0.3221  0.7801
   74SLPC   O32 6555   3.357   5.590  10.098 -0.4092  0.5246  0.0887
   74SLPC   C32 6556   3.422   5.535   9.876 -0.3252 -0.7049  0.5213
   74SLPC   H2X 6557   3.404   5.642   9.849 -0.9683 -0.5700  1.4283
   74SLPC   H2Y 6558   3.336   5.468   9.855  0.5961 -1.4307 -1.1213
   74SLPC   C23 6559   3.592   4.921  10.016 -0.1022  0.2241  0.0865
   74SLPC   H3R 6560   3.495   4.868  10.020 -0.0455  0.1168  0.0383
   74SLPC   H3S 6561   3.669   4.841  10.005 -1.5362 -0.9869 -1.5804
   74SLPC   C24 6562   3.608   5.015   9.899  0.1241  0.6340  0.6574
   74SLPC   H4R 6563   3.694   5.074   9.938 -0.3723  0.9329  1.3312
   74SLPC   H4S 6564   3.518   5.080   9.894 -1.1242 -0.7353  3.2861
   74SLPC   C25 6565   3.641   4.955   9.765  0.7136 -0.0731 -0.0350
   74SLPC   H5R 6566   3.563   4.878   9.743  1.5110 -1.7699  2.5667
   74SLPC   H5S 6567   3.736   4.897   9.761 -1.2504 -3.5864  0.2688
   74SLPC   C26 6568   3.647   5.064   9.660  0.2900 -0.2074 -0.0870
   74SLPC   H6R 6569   3.727   5.139   9.680  1.0373 -1.2291  0.9313
   74SLPC   H6S 6570   3.548   5.113   9.669  0.6286  0.2417  1.5386
   74SLPC   C27 6571   3.649   5.015   9.515  0.6433  0.8281 -0.7609
   74SLPC   H7R 6572   3.556   4.956   9.500 -0.8836  1.6024  4.0752
   74SLPC   H7S 6573   3.742   4.954   9.506  0.7368  1.0707 -1.5115
   74SLPC   C28 6574   3.666   5.129   9.412  0.0366 -0.1109 -0.8019
   74SLPC   H8R 6575   3.758   5.190   9.423 -0.7676  0.8701  1.0796
   74SLPC   H8S 6576   3.583   5.202   9.426  1.4586  1.1169  1.9878
   74SLPC   C29 6577   3.660   5.082   9.274  0.3127 -0.2959 -0.1719
   74SLPC   H9R 6578   3.727   4.994   9.269  2.1387  0.9846  0.5238
   74SLPC  C210 6579   3.604   5.129   9.164  0.6539 -0.0514  0.7235
   74SLPC  H10R 6580   3.625   5.065   9.077 -2.0967 -0.6415  0.4055
   74SLPC  C211 6581   3.512   5.250   9.155  0.1028  0.0444  0.7190
   74SLPC  H11R 6582   3.495   5.290   9.257 -0.3144  0.1055  0.6294
   74SLPC  H11S 6583   3.410   5.215   9.125  1.2463 -3.9981  0.9091
   74SLPC  C212 6584   3.560   5.360   9.065 -0.6752  0.4168  0.5615
   74SLPC  H12R 6585   3.666   5.386   9.076 -1.1030  2.4684  0.2482
   74SLPC  C213 6586   3.492   5.433   8.982 -0.2561  0.0405 -0.2709
   74SLPC  H13R 6587   3.549   5.511   8.929  0.8478 -1.8419 -2.0098
   74SLPC  C214 6588   3.345   5.429   8.952 -0.8812  0.0044  0.0480
   74SLPC  H14R 6589   3.306   5.528   8.918  1.3641  1.9779  2.7296
   74SLPC  H14S 6590   3.281   5.406   9.040 -0.9373  1.2275  0.3540
   74SLPC  C215 6591   3.290   5.324   8.850 -0.3741  0.4764 -0.5728
   74SLPC  H15R 6592   3.180   5.326   8.862 -0.2481 -2.3594  2.6130
   74SLPC  H15S 6593   3.316   5.228   8.901 -1.6190 -0.1691 -1.1111
   74SLPC  C216 6594   3.349   5.325   8.709 -0.2008 -0.5746 -0.1436
   74SLPC  H16R 6595   3.298   5.236   8.664 -1.9052  0.6822 -0.8002
   74SLPC  H16S 6596   3.458   5.304   8.704  0.5009  2.8391 -3.2968
   74SLPC  C217 6597   3.309   5.457   8.629  0.6759 -0.4239  0.2956
   74SLPC  H17R 6598   3.374   5.542   8.659  4.1155 -3.1472  1.2085
   74SLPC  H17S 6599   3.207   5.492   8.655  0.5936  0.1241 -0.7386
   74SLPC  C218 6600   3.321   5.435   8.482 -0.0528  0.3625  0.3543
   74SLPC  H18R 6601   3.334   5.533   8.431  0.3811 -0.5002 -1.2693
   74SLPC  H18S 6602   3.234   5.380   8.439 -0.1677  1.6014 -1.0726
   74SLPC  H18T 6603   3.411   5.375   8.456  0.0774  1.2731 -1.4325
   74SLPC   C33 6604   3.539   5.482   9.797 -0.4572  0.7943 -0.4981
   74SLPC   H3X 6605   3.534   5.374   9.823  0.8141  0.7820 -0.2341
   74SLPC   H3Y 6606   3.639   5.524   9.822 -0.0902 -0.4957  0.2385
   74SLPC   C34 6607   3.518   5.486   9.647  0.2578  0.3705 -0.4365
   74SLPC   H4X 6608   3.493   5.586   9.608  1.8131 -0.0570 -2.7476
   74SLPC   H4Y 6609   3.431   5.421   9.624  1.3928 -1.8828  1.1025
   74SLPC   C35 6610   3.642   5.437   9.572 -0.1497  0.0472  0.7587
   74SLPC   H5X 6611   3.603   5.415   9.470 -0.5927 -0.1411  0.9653
   74SLPC   H5Y 6612   3.673   5.337   9.607 -1.2626 -0.5158  0.1934
   74SLPC   C36 6613   3.751   5.546   9.560  0.3599 -0.2081  0.1063
   74SLPC   H6X 6614   3.796   5.574   9.658 -4.0850 -1.2107  2.7299
   74SLPC   H6Y 6615   3.713   5.642   9.519  0.5050  0.1139  0.7215
   74SLPC   C37 6616   3.856   5.490   9.463  0.3551  0.3522 -0.0238
   74SLPC   H7X 6617   3.863   5.381   9.484  1.4547  0.4846  0.3847
   74SLPC   H7Y 6618   3.957   5.534   9.477 -0.4167  1.5877  2.2700
   74SLPC   C38 6619   3.819   5.501   9.310 -0.4058 -0.7560  0.6957
   74SLPC   H8X 6620   3.821   5.611   9.294 -1.0152 -0.3692  2.9139
   74SLPC   H8Y 6621   3.717   5.462   9.291  0.3890 -2.0686 -1.2279
   74SLPC   C39 6622   3.916   5.440   9.205 -0.6385  0.4133  0.1066
   74SLPC   H9X 6623   3.855   5.395   9.124 -0.8652 -0.3373  0.6810
   74SLPC   H9Y 6624   3.966   5.354   9.253  0.1915  1.1628  0.6261
   74SLPC  C310 6625   4.021   5.527   9.139 -0.2526  0.2067 -0.4740
   74SLPC  H10X 6626   4.072   5.464   9.063 -1.0926 -1.8046  0.5575
   74SLPC  H10Y 6627   4.099   5.558   9.213 -1.9509  2.9267  0.3272
   74SLPC  C311 6628   3.973   5.650   9.069  0.2967 -0.2108  0.0873
   74SLPC  H11X 6629   3.958   5.736   9.137  2.2538 -0.2596  0.6492
   74SLPC  H11Y 6630   3.870   5.624   9.035  0.3500 -1.6275  0.9341
   74SLPC  C312 6631   4.058   5.691   8.953 -0.8982  0.0106 -0.6722
   74SLPC  H12X 6632   3.992   5.753   8.888  0.3756  0.2207 -1.8185
   74SLPC  H12Y 6633   4.098   5.598   8.907 -0.0628 -0.4669  0.9448
   74SLPC  C313 6634   4.169   5.784   9.006  0.1965  0.5232  0.0337
   74SLPC  H13X 6635   4.242   5.729   9.069  0.0030  0.3226  0.0836
   74SLPC  H13Y 6636   4.123   5.861   9.073 -1.0938  1.3058 -1.6599
   74SLPC  C314 6637   4.238   5.867   8.901 -0.7800  0.1965 -0.1844
   74SLPC  H14X 6638   4.314   5.916   8.965 -0.9371 -1.8019  1.6358
   74SLPC  H14Y 6639   4.175   5.945   8.851 -1.5965 -0.1832  0.2346
   74SLPC  C315 6640   4.325   5.773   8.801  0.2365  0.1210  0.0017
   74SLPC  H15X 6641   4.359   5.835   8.716 -0.0858  0.3304  0.0229
   74SLPC  H15Y 6642   4.245   5.703   8.766  0.1084 -0.0384  0.6032
   74SLPC  C316 6643   4.444   5.696   8.861 -0.1085  0.6095 -0.0057
   74SLPC  H16X 6644   4.395   5.623   8.929 -0.5274 -0.0769 -1.0158
   74SLPC  H16Y 6645   4.518   5.761   8.912  0.2726 -1.0754  1.6988
   74SLPC  C317 6646   4.516   5.620   8.759  0.4653 -0.4276  0.2182
   74SLPC  H17X 6647   4.553   5.683   8.674 -1.1559 -1.6517 -1.4881
   74SLPC  H17Y 6648   4.455   5.538   8.717  1.5234 -1.4573  0.6207
   74SLPC  C318 6649   4.639   5.562   8.814  0.1539 -0.0014  0.2074
   74SLPC  H18X 6650   4.615   5.476   8.880 -0.3747 -0.2635 -0.3229
   74SLPC  H18Y 6651   4.697   5.629   8.882 -0.2493 -0.6593  1.2354
   74SLPC  H18Z 6652   4.702   5.512   8.738 -1.6709 -0.3741 -1.1157
   75SLPC     N 6653   0.144   1.759   6.075  0.4004  0.1003 -0.0135
   75SLPC   C13 6654   0.055   1.853   5.996  0.5269  0.4916  0.1290
   75SLPC  H13A 6655  -0.032   1.801   5.960  0.4670  0.1777  0.7024
   75SLPC  H13B 6656   0.021   1.933   6.061 -3.6656 -1.1177  0.2260
   75SLPC  H13C 6657   0.100   1.905   5.913 -0.5961 -0.2404 -0.9536
   75SLPC   C14 6658   0.079   1.700   6.199 -0.4257 -0.3261  0.6442
   75SLPC  H14A 6659   0.016   1.771   6.250 -0.1097  0.1075  0.4351
   75SLPC  H14B 6660   0.025   1.610   6.174  0.9122 -0.3617 -2.4481
   75SLPC  H14C 6661   0.153   1.657   6.265 -0.3378  0.4515  1.0599
   75SLPC   C15 6662   0.262   1.843   6.120  0.3810  0.0795  0.2693
   75SLPC  H15A 6663   0.237   1.893   6.212  0.9446  0.7970  0.0360
   75SLPC  H15B 6664   0.349   1.782   6.137  1.1898  1.4551  1.2385
   75SLPC  H15C 6665   0.292   1.916   6.046 -1.3993 -0.9535 -1.5648
   75SLPC   C12 6666   0.195   1.647   5.984 -0.2962  0.4944 -0.6514
   75SLPC  H12A 6667   0.273   1.599   6.042 -2.7281 -0.3031  2.1993
   75SLPC  H12B 6668   0.246   1.698   5.903  1.6271  2.8134  1.8255
   75SLPC   C11 6669   0.089   1.544   5.937 -0.0970  0.5852  0.1172
   75SLPC  H11A 6670   0.133   1.478   5.859  2.8568  1.6733  0.7325
   75SLPC  H11B 6671   0.013   1.598   5.876 -1.5724 -3.7162 -2.2723
   75SLPC     P 6672  -0.085   1.356   5.993 -0.4523  0.2554  0.0757
   75SLPC   O13 6673  -0.172   1.418   5.892 -0.0402 -0.1427 -0.5912
   75SLPC   O14 6674  -0.014   1.235   5.961  0.1053  0.7603 -0.0015
   75SLPC   O12 6675   0.026   1.467   6.032 -0.2208 -0.0282 -0.3612
   75SLPC   O11 6676  -0.158   1.333   6.135 -0.2713  0.1036  0.2857
   75SLPC    C1 6677  -0.175   1.440   6.225 -0.4529  0.2118  0.4755
   75SLPC    HA 6678  -0.097   1.443   6.304  0.3795  0.6442 -0.3409
   75SLPC    HB 6679  -0.172   1.537   6.171 -0.5592  0.4754  0.9405
   75SLPC    C2 6680  -0.312   1.436   6.303 -0.0398 -0.0125  0.4930
   75SLPC    HS 6681  -0.314   1.529   6.364  0.8188  1.5374 -1.7150
   75SLPC   O21 6682  -0.309   1.321   6.391  0.2744  0.0347  0.4315
   75SLPC   C21 6683  -0.288   1.337   6.522  0.1441  0.3532  0.1585
   75SLPC   O22 6684  -0.263   1.446   6.575  0.2695 -0.1325 -0.4597
   75SLPC   C22 6685  -0.287   1.196   6.596 -0.2581  0.2681 -0.1672
   75SLPC   H2R 6686  -0.383   1.154   6.560 -1.0366  1.7362  0.0875
   75SLPC   H2S 6687  -0.205   1.129   6.563 -1.5325 -1.8018  0.7109
   75SLPC    C3 6688  -0.435   1.447   6.211  0.1443 -0.8479  0.4962
   75SLPC    HX 6689  -0.424   1.350   6.157  1.0242  0.9023 -2.6979
   75SLPC    HY 6690  -0.436   1.528   6.136 -1.3617 -0.8445  0.4898
   75SLPC   O31 6691  -0.553   1.453   6.299 -0.7561  0.1406  0.4541
   75SLPC   C31 6692  -0.648   1.367   6.269  0.4261  0.3361  0.3003
   75SLPC   O32 6693  -0.642   1.282   6.180 -0.2104 -0.6213 -0.6553
   75SLPC   C32 6694  -0.758   1.388   6.375  0.1302  0.3291 -0.2167
   75SLPC   H2X 6695  -0.846   1.409   6.312  0.7374 -2.7647 -2.3024
   75SLPC   H2Y 6696  -0.726   1.472   6.440 -3.0814 -0.6772  3.0315
   75SLPC   C23 6697  -0.280   1.207   6.751 -1.0101 -0.0850 -0.8097
   75SLPC   H3R 6698  -0.370   1.254   6.794 -0.2535 -1.3879  2.4517
   75SLPC   H3S 6699  -0.193   1.276   6.763 -1.1242 -0.1480  0.4802
   75SLPC   C24 6700  -0.246   1.075   6.818  0.3778  0.1360  0.1610
   75SLPC   H4R 6701  -0.159   1.031   6.763  0.4096 -0.9651  1.0647
   75SLPC   H4S 6702  -0.324   0.998   6.801 -0.8345  1.4399 -0.3748
   75SLPC   C25 6703  -0.217   1.080   6.974  0.2541  0.0396  0.0565
   75SLPC   H5R 6704  -0.190   1.183   7.006  1.1152 -0.4106  0.8251
   75SLPC   H5S 6705  -0.136   1.008   6.998 -0.6753 -0.5379  1.5945
   75SLPC   C26 6706  -0.341   1.066   7.061 -0.0389 -0.4139 -0.2584
   75SLPC   H6R 6707  -0.363   0.957   7.065  2.7426 -1.0328  0.1298
   75SLPC   H6S 6708  -0.425   1.122   7.014  0.6220  0.6125 -0.2362
   75SLPC   C27 6709  -0.327   1.096   7.209 -0.1825 -0.4071 -0.6917
   75SLPC   H7R 6710  -0.424   1.096   7.262  1.3204 -0.6830  2.2830
   75SLPC   H7S 6711  -0.301   1.204   7.211 -1.6257 -0.0143  2.0191
   75SLPC   C28 6712  -0.216   1.018   7.287 -0.3644  0.0279 -0.3243
   75SLPC   H8R 6713  -0.212   1.062   7.389 -0.2773 -0.7970  0.0401
   75SLPC   H8S 6714  -0.120   1.047   7.238  0.6821 -1.2131  0.8858
   75SLPC   C29 6715  -0.229   0.867   7.295  0.8458 -0.1764 -0.1380
   75SLPC   H9R 6716  -0.190   0.830   7.200  0.2289 -1.6857  0.1716
   75SLPC  C210 6717  -0.248   0.789   7.402 -0.3666  0.3369  0.2500
   75SLPC  H10R 6718  -0.253   0.680   7.386 -0.3279  0.3863 -0.0962
   75SLPC  C211 6719  -0.256   0.836   7.541  0.0216  0.1688  0.1872
   75SLPC  H11R 6720  -0.321   0.757   7.585  1.8523 -2.0396 -0.8525
   75SLPC  H11S 6721  -0.299   0.938   7.538  1.3717  0.7307 -2.4013
   75SLPC  C212 6722  -0.123   0.834   7.612  0.1048 -0.1686 -0.2428
   75SLPC  H12R 6723  -0.028   0.837   7.556 -0.8853 -0.7950 -2.0452
   75SLPC  C213 6724  -0.111   0.839   7.751  0.6436 -0.9823 -0.1779
   75SLPC  H13R 6725  -0.013   0.827   7.800  0.8234  1.7120  0.2756
   75SLPC  C214 6726  -0.229   0.860   7.848 -0.5596 -0.2505  0.1875
   75SLPC  H14R 6727  -0.312   0.918   7.803 -0.0439  1.6992  1.6374
   75SLPC  H14S 6728  -0.209   0.906   7.947 -3.5254  0.2494  0.6442
   75SLPC  C215 6729  -0.290   0.725   7.893  0.0848  0.1966 -0.1301
   75SLPC  H15R 6730  -0.238   0.648   7.955 -1.2697 -3.3574 -3.0446
   75SLPC  H15S 6731  -0.328   0.674   7.802 -0.4931 -0.2072  0.3263
   75SLPC  C216 6732  -0.426   0.756   7.970  0.5005  0.2615 -0.3048
   75SLPC  H16R 6733  -0.481   0.849   7.941 -0.2666  0.6596  2.1452
   75SLPC  H16S 6734  -0.404   0.783   8.076  0.7454 -0.6271 -0.1251
   75SLPC  C217 6735  -0.517   0.628   7.979  0.1914  0.0780 -0.2757
   75SLPC  H17R 6736  -0.456   0.535   7.994 -1.7076 -1.0391  0.8394
   75SLPC  H17S 6737  -0.548   0.609   7.874  0.9364  1.1692 -0.7102
   75SLPC  C218 6738  -0.639   0.646   8.069  0.0613  0.1082  0.6247
   75SLPC  H18R 6739  -0.690   0.743   8.054 -0.8639 -0.6541 -1.6894
   75SLPC  H18S 6740  -0.608   0.644   8.175  2.1156 -2.6353  0.0835
   75SLPC  H18T 6741  -0.717   0.567   8.058 -1.2060  1.0242  2.6082
   75SLPC   C33 6742  -0.781   1.261   6.468  0.0158 -0.2577 -0.1054
   75SLPC   H3X 6743  -0.868   1.287   6.531 -1.1390 -0.5170 -1.5449
   75SLPC   H3Y 6744  -0.790   1.166   6.412 -1.0549  0.7116 -1.6730
   75SLPC   C34 6745  -0.656   1.245   6.553  0.4153  1.1516  0.0429
   75SLPC   H4X 6746  -0.622   1.344   6.591  0.6355  0.5279  1.5273
   75SLPC   H4Y 6747  -0.574   1.214   6.484 -0.9436 -1.5228 -0.4940
   75SLPC   C35 6748  -0.662   1.134   6.662 -0.3018  0.3223  0.0311
   75SLPC   H5X 6749  -0.565   1.142   6.714 -1.7547  0.7717  2.8534
   75SLPC   H5Y 6750  -0.666   1.036   6.608 -1.7501 -0.5020  1.5357
   75SLPC   C36 6751  -0.787   1.142   6.761 -0.2928 -0.0208 -0.5625
   75SLPC   H6X 6752  -0.880   1.149   6.701  0.0587  0.6265 -1.0409
   75SLPC   H6Y 6753  -0.778   1.231   6.827 -3.0426 -1.6411  2.2623
   75SLPC   C37 6754  -0.789   1.023   6.853 -0.3382  0.2728  0.2770
   75SLPC   H7X 6755  -0.803   0.936   6.784  0.6512 -0.8364  1.4230
   75SLPC   H7Y 6756  -0.873   1.032   6.925  0.5766 -0.4015  1.4516
   75SLPC   C38 6757  -0.663   1.013   6.935  0.1100 -0.7463 -0.7604
   75SLPC   H8X 6758  -0.643   1.112   6.980  1.3570 -0.8932 -0.9313
   75SLPC   H8Y 6759  -0.566   0.997   6.882  0.9820 -1.9770  1.0812
   75SLPC   C39 6760  -0.663   0.894   7.027  0.5143  0.1100 -0.9260
   75SLPC   H9X 6761  -0.572   0.898   7.090 -0.2248 -1.9993  0.4096
   75SLPC   H9Y 6762  -0.665   0.790   6.986  1.1929 -1.9823  3.7340
   75SLPC  C310 6763  -0.776   0.887   7.137 -0.1200  0.1614  0.3940
   75SLPC  H10X 6764  -0.865   0.852   7.081  0.0627 -0.7796  0.6627
   75SLPC  H10Y 6765  -0.773   0.987   7.184  1.2462 -0.1948  1.1433
   75SLPC  C311 6766  -0.748   0.777   7.245 -1.0909 -0.2993 -0.2236
   75SLPC  H11X 6767  -0.761   0.677   7.198 -0.8486 -0.2224 -0.4479
   75SLPC  H11Y 6768  -0.826   0.792   7.323 -3.0774  1.3058 -2.4036
   75SLPC  C312 6769  -0.613   0.792   7.314  0.2729 -0.1425  0.7839
   75SLPC  H12X 6770  -0.537   0.774   7.235 -0.8913 -0.3727 -0.2976
   75SLPC  H12Y 6771  -0.598   0.703   7.380 -2.2691  1.2796  3.5192
   75SLPC  C313 6772  -0.594   0.918   7.406 -0.9248 -0.0655 -0.0996
   75SLPC  H13X 6773  -0.619   1.012   7.352 -0.1887  1.6761  2.4303
   75SLPC  H13Y 6774  -0.489   0.921   7.441 -1.0855 -0.8672  0.4565
   75SLPC  C314 6775  -0.680   0.905   7.529  0.0319  0.3852  0.8107
   75SLPC  H14X 6776  -0.656   0.806   7.572 -3.6769 -0.6582  0.8263
   75SLPC  H14Y 6777  -0.788   0.919   7.508  0.5584  0.6051 -2.1856
   75SLPC  C315 6778  -0.639   0.998   7.646 -0.0369  0.1848  0.2851
   75SLPC  H15X 6779  -0.646   1.104   7.615 -0.8394  0.5580  1.6658
   75SLPC  H15Y 6780  -0.536   0.972   7.679  0.0480 -1.0221 -0.8204
   75SLPC  C316 6781  -0.723   0.983   7.773 -0.1362 -0.1537 -0.3434
   75SLPC  H16X 6782  -0.712   0.887   7.828 -2.1531 -0.5287 -0.5111
   75SLPC  H16Y 6783  -0.826   0.993   7.733 -0.9971 -0.0320  1.7730
   75SLPC  C317 6784  -0.696   1.103   7.872 -0.3646  0.2631 -0.2902
   75SLPC  H17X 6785  -0.724   1.197   7.820 -1.1132  1.0918  1.5370
   75SLPC  H17Y 6786  -0.589   1.129   7.883  0.3699 -0.5311 -4.0948
   75SLPC  C318 6787  -0.790   1.097   7.991  0.0666  0.2075 -0.1537
   75SLPC  H18X 6788  -0.760   1.011   8.055  1.9512  0.3365 -0.8074
   75SLPC  H18Y 6789  -0.893   1.082   7.953 -0.5657  1.2578  1.0785
   75SLPC  H18Z 6790  -0.786   1.195   8.044  0.6851 -0.3010  0.7736
   76SLPC     N 6791   5.907   4.948   5.750  0.1705  0.6771 -0.4086
   76SLPC   C13 6792   5.771   4.895   5.728 -0.5136 -0.7278 -0.1236
   76SLPC  H13A 6793   5.749   4.905   5.623  0.3379  2.9749 -0.0788
   76SLPC  H13B 6794   5.753   4.795   5.765  0.5154 -0.2223  1.8741
   76SLPC  H13C 6795   5.700   4.960   5.777 -0.3806  0.5122 -1.5087
   76SLPC   C14 6796   5.919   5.075   5.675  0.1271  0.2953 -0.0430
   76SLPC  H14A 6797   6.020   5.113   5.670  0.7069 -1.2774 -0.8336
   76SLPC  H14B 6798   5.867   5.069   5.580 -2.8853 -1.9293  1.5606
   76SLPC  H14C 6799   5.869   5.144   5.741  2.3093  0.3332  1.6977
   76SLPC   C15 6800   5.993   4.843   5.681 -0.5824 -0.5720 -0.9121
   76SLPC  H15A 6801   5.976   4.849   5.575 -1.4093 -1.7398 -0.8725
   76SLPC  H15B 6802   6.098   4.843   5.706 -0.3318  1.3522 -1.7742
   76SLPC  H15C 6803   5.971   4.746   5.723  2.6264 -1.5326 -1.1580
   76SLPC   C12 6804   5.938   4.964   5.893  0.6579  0.1405  0.2443
   76SLPC  H12A 6805   6.038   5.004   5.899  1.1458 -1.0801  0.3767
   76SLPC  H12B 6806   5.935   4.865   5.934  1.1311 -0.2107 -0.5481
   76SLPC   C11 6807   5.861   5.063   5.985 -0.1635 -0.4918 -0.0101
   76SLPC  H11A 6808   5.906   5.052   6.086 -0.1835  1.2771  0.2376
   76SLPC  H11B 6809   5.755   5.033   5.972 -0.3875  1.0575 -2.4939
   76SLPC     P 6810   5.949   5.308   6.022  0.1619 -0.2868 -0.5045
   76SLPC   O13 6811   6.094   5.277   6.027 -0.4617 -0.5723  0.1766
   76SLPC   O14 6812   5.911   5.437   5.955  0.3885 -0.1210  0.7607
   76SLPC   O12 6813   5.871   5.201   5.938  0.3166  0.0750  0.6104
   76SLPC   O11 6814   5.891   5.311   6.171  0.0327  0.1099  0.6474
   76SLPC    C1 6815   5.928   5.223   6.277  0.5431 -0.0649 -0.6817
   76SLPC    HA 6816   5.847   5.149   6.296  0.9452 -0.3976 -0.2315
   76SLPC    HB 6817   6.015   5.154   6.269 -0.4732 -1.7675  1.8228
   76SLPC    C2 6818   5.956   5.300   6.408  1.2931 -0.2410  0.2275
   76SLPC    HS 6819   5.974   5.225   6.488  0.4391 -0.2272  0.4405
   76SLPC   O21 6820   5.850   5.390   6.437  0.0921 -0.4042 -0.2519
   76SLPC   C21 6821   5.752   5.343   6.515 -0.0511  0.2062 -0.4226
   76SLPC   O22 6822   5.760   5.228   6.566  0.1119 -0.4893 -0.0934
   76SLPC   C22 6823   5.636   5.439   6.533  0.2536 -0.5877  0.5179
   76SLPC   H2R 6824   5.683   5.536   6.561  0.4935 -0.2432 -1.0054
   76SLPC   H2S 6825   5.590   5.465   6.435 -0.1644  3.3818  1.5750
   76SLPC    C3 6826   6.090   5.386   6.405 -0.2655  0.0453 -0.2217
   76SLPC    HX 6827   6.061   5.472   6.341  1.1908  0.4037 -0.4329
   76SLPC    HY 6828   6.166   5.329   6.349  4.0987  3.0155  2.0907
   76SLPC   O31 6829   6.125   5.417   6.547 -0.3985 -0.2426 -0.0103
   76SLPC   C31 6830   6.093   5.534   6.597 -0.1526 -0.7403 -0.1544
   76SLPC   O32 6831   6.014   5.615   6.551  0.0080  0.1240 -0.2089
   76SLPC   C32 6832   6.191   5.565   6.714 -0.3678 -0.3320  0.0435
   76SLPC   H2X 6833   6.296   5.541   6.688  0.0715  0.7896  0.7467
   76SLPC   H2Y 6834   6.164   5.493   6.795  0.9736 -1.7183 -0.6933
   76SLPC   C23 6835   5.521   5.384   6.619 -0.4292 -0.4648  0.0581
   76SLPC   H3R 6836   5.564   5.343   6.713  2.4508  1.0088 -0.5107
   76SLPC   H3S 6837   5.469   5.303   6.564 -0.7734 -0.5639  0.5239
   76SLPC   C24 6838   5.417   5.492   6.644  0.3020 -0.4653  0.0804
   76SLPC   H4R 6839   5.370   5.527   6.550  0.8845 -0.4553 -0.2141
   76SLPC   H4S 6840   5.452   5.588   6.686  4.5468 -1.8530  0.2538
   76SLPC   C25 6841   5.307   5.442   6.739  0.4417 -0.6274 -0.2024
   76SLPC   H5R 6842   5.275   5.344   6.697 -0.1258  0.0387 -1.3627
   76SLPC   H5S 6843   5.225   5.517   6.738  0.9913 -0.0171 -0.2399
   76SLPC   C26 6844   5.362   5.420   6.879  0.7536  0.8925  0.0835
   76SLPC   H6R 6845   5.405   5.518   6.909  0.0855  1.4886 -0.8851
   76SLPC   H6S 6846   5.443   5.344   6.883 -1.3058 -1.3716  1.1241
   76SLPC   C27 6847   5.248   5.366   6.967  0.6493  0.4607 -0.4475
   76SLPC   H7R 6848   5.212   5.272   6.919  0.3376 -0.4591  1.4733
   76SLPC   H7S 6849   5.161   5.435   6.969 -0.3038 -0.5949 -2.4968
   76SLPC   C28 6850   5.290   5.316   7.108 -0.0307 -0.1973  0.2360
   76SLPC   H8R 6851   5.204   5.278   7.168 -1.9915  1.3478 -1.4711
   76SLPC   H8S 6852   5.346   5.222   7.085  0.0467  0.1316 -0.9933
   76SLPC   C29 6853   5.364   5.424   7.182 -0.4402  0.4035  0.5463
   76SLPC   H9R 6854   5.394   5.513   7.125  1.9894  0.2951  1.5420
   76SLPC  C210 6855   5.408   5.434   7.310 -0.2625  0.9957 -0.1682
   76SLPC  H10R 6856   5.459   5.523   7.349  0.8797  1.0299 -1.6525
   76SLPC  C211 6857   5.376   5.338   7.419  1.2116  0.3269 -0.8537
   76SLPC  H11R 6858   5.471   5.283   7.437  1.5379  0.4368 -2.1454
   76SLPC  H11S 6859   5.294   5.266   7.395  2.7143 -1.5343 -0.6766
   76SLPC  C212 6860   5.330   5.406   7.550 -0.2457  0.1728  0.8044
   76SLPC  H12R 6861   5.228   5.447   7.540  0.1573  0.9693 -0.1809
   76SLPC  C213 6862   5.398   5.409   7.668  0.0473 -0.0976  0.4010
   76SLPC  H13R 6863   5.346   5.461   7.749  0.3753 -1.0757  1.2693
   76SLPC  C214 6864   5.545   5.366   7.689  0.4650  0.0086 -0.4414
   76SLPC  H14R 6865   5.598   5.445   7.744  1.3857 -1.3792  0.7310
   76SLPC  H14S 6866   5.598   5.353   7.592 -0.7088 -0.0217 -1.0993
   76SLPC  C215 6867   5.550   5.232   7.773 -0.6466 -0.4182  0.7610
   76SLPC  H15R 6868   5.657   5.213   7.794 -0.4269  1.5774  1.6807
   76SLPC  H15S 6869   5.518   5.147   7.708 -1.7653  1.6808 -1.6153
   76SLPC  C216 6870   5.468   5.244   7.896  0.1174 -0.0667 -0.0089
   76SLPC  H16R 6871   5.362   5.269   7.874  0.6603  1.0369 -1.5398
   76SLPC  H16S 6872   5.504   5.330   7.956 -0.1937 -0.5671  0.9077
   76SLPC  C217 6873   5.471   5.118   7.985  0.7607 -0.3664 -0.1216
   76SLPC  H17R 6874   5.566   5.064   7.965  2.4063  1.8025  1.3485
   76SLPC  H17S 6875   5.390   5.052   7.949  1.5540  0.1130 -3.0312
   76SLPC  C218 6876   5.465   5.143   8.137  0.6600 -0.2247 -0.9045
   76SLPC  H18R 6877   5.565   5.177   8.172  0.2020 -2.1603  2.8111
   76SLPC  H18S 6878   5.453   5.047   8.192 -0.4320 -0.9639 -2.3737
   76SLPC  H18T 6879   5.378   5.208   8.159  0.1244 -0.9357 -0.8810
   76SLPC   C33 6880   6.181   5.715   6.761 -0.6242 -0.8981  0.5214
   76SLPC   H3X 6881   6.080   5.760   6.771 -1.0027 -1.7570  0.6111
   76SLPC   H3Y 6882   6.227   5.779   6.682  0.3466 -0.2028  1.6157
   76SLPC   C34 6883   6.260   5.754   6.890  0.6796  0.1408  0.0471
   76SLPC   H4X 6884   6.293   5.860   6.883  0.4797  0.1025 -1.8677
   76SLPC   H4Y 6885   6.360   5.706   6.905  0.8007  0.8203  1.6895
   76SLPC   C35 6886   6.183   5.726   7.018 -0.4870 -0.1848  0.2114
   76SLPC   H5X 6887   6.194   5.622   7.057  2.8182 -0.7823 -1.8975
   76SLPC   H5Y 6888   6.076   5.739   6.992 -0.1606 -1.2453 -1.8884
   76SLPC   C36 6889   6.238   5.807   7.137 -0.6068 -0.0528  0.9885
   76SLPC   H6X 6890   6.231   5.915   7.112 -0.4296 -0.8053 -2.8976
   76SLPC   H6Y 6891   6.342   5.771   7.154 -0.4481  0.0501  0.2538
   76SLPC   C37 6892   6.173   5.783   7.274 -0.3801 -1.0127 -0.5390
   76SLPC   H7X 6893   6.219   5.699   7.330 -1.4773  0.5524  3.0047
   76SLPC   H7Y 6894   6.064   5.769   7.258 -0.3972 -1.1381 -0.3155
   76SLPC   C38 6895   6.193   5.901   7.376  0.5350 -1.3489 -0.6988
   76SLPC   H8X 6896   6.124   5.981   7.343 -1.4095 -0.8047  3.9136
   76SLPC   H8Y 6897   6.300   5.933   7.368 -0.2603  2.6259  1.5637
   76SLPC   C39 6898   6.149   5.868   7.521 -0.2325 -0.3500  0.0161
   76SLPC   H9X 6899   6.199   5.775   7.558 -3.5343 -2.6575 -0.8619
   76SLPC   H9Y 6900   6.043   5.839   7.506  0.0699 -1.4503 -0.1002
   76SLPC  C310 6901   6.157   5.982   7.620  0.4028 -0.1121  0.1145
   76SLPC  H10X 6902   6.064   6.032   7.586  1.3486  2.8239  1.5217
   76SLPC  H10Y 6903   6.248   6.043   7.598  1.1400 -0.9576  0.7371
   76SLPC  C311 6904   6.147   5.920   7.757  1.1715 -0.0859 -0.4479
   76SLPC  H11X 6905   6.149   6.011   7.821  2.3523 -0.7200  0.4434
   76SLPC  H11Y 6906   6.223   5.845   7.786  0.5117 -0.2926  0.8466
   76SLPC  C312 6907   6.009   5.856   7.795  0.4134  0.0762  0.6575
   76SLPC  H12X 6908   5.988   5.789   7.709 -0.6044  0.6544  0.4374
   76SLPC  H12Y 6909   5.923   5.926   7.804  0.1321 -0.2878  0.8082
   76SLPC  C313 6910   5.988   5.768   7.916 -0.3479  0.4049 -0.4892
   76SLPC  H13X 6911   5.993   5.829   8.009 -2.2341 -0.1669  0.0249
   76SLPC  H13Y 6912   6.066   5.689   7.906  0.7502  1.5055 -0.9374
   76SLPC  C314 6913   5.851   5.704   7.921  0.4118 -0.1097 -0.3222
   76SLPC  H14X 6914   5.863   5.621   7.847  0.8459  1.2848 -1.8902
   76SLPC  H14Y 6915   5.770   5.775   7.894  0.1112  0.5910  2.2054
   76SLPC  C315 6916   5.807   5.668   8.066 -0.2540 -0.3691 -0.2383
   76SLPC  H15X 6917   5.696   5.664   8.064 -0.3821  2.0035 -0.5661
   76SLPC  H15Y 6918   5.839   5.758   8.122  1.5097 -3.0032  3.4268
   76SLPC  C316 6919   5.879   5.544   8.129 -0.0402 -0.0442 -0.3168
   76SLPC  H16X 6920   5.879   5.524   8.238  1.2822 -2.5476 -0.7010
   76SLPC  H16Y 6921   5.986   5.546   8.100 -0.2061  0.2916 -0.9228
   76SLPC  C317 6922   5.821   5.412   8.069  0.4723 -0.1823  0.8434
   76SLPC  H17X 6923   5.810   5.428   7.960 -1.4720  0.3068  1.0707
   76SLPC  H17Y 6924   5.718   5.405   8.110  0.0494  0.7275 -0.0208
   76SLPC  C318 6925   5.905   5.287   8.107 -0.6225  0.3024  0.2332
   76SLPC  H18X 6926   5.871   5.197   8.051  0.2652 -0.4837  0.9275
   76SLPC  H18Y 6927   5.913   5.264   8.215  0.2422 -0.3289  0.0505
   76SLPC  H18Z 6928   6.012   5.311   8.087 -0.1449 -1.4454  0.4893
   77SLPC     N 6929   5.419   3.126   5.964 -0.1874  0.2209 -0.6149
   77SLPC   C13 6930   5.403   3.240   6.058  0.2207  0.4371  0.1295
   77SLPC  H13A 6931   5.385   3.200   6.157 -0.5689  0.0357 -0.1682
   77SLPC  H13B 6932   5.492   3.301   6.063  0.4501  0.2256 -1.0165
   77SLPC  H13C 6933   5.310   3.289   6.037 -1.1989 -1.2130  2.0618
   77SLPC   C14 6934   5.536   3.043   6.020 -0.2142 -0.2756  0.4794
   77SLPC  H14A 6935   5.567   2.958   5.961 -1.8919 -1.4590  1.2028
   77SLPC  H14B 6936   5.624   3.105   6.031 -0.1762 -0.3917  0.8762
   77SLPC  H14C 6937   5.520   3.000   6.118 -4.3952  1.1323  0.6067
   77SLPC   C15 6938   5.457   3.184   5.833  0.1448 -0.0179  0.5203
   77SLPC  H15A 6939   5.493   3.112   5.760  1.2656  0.7529  0.2858
   77SLPC  H15B 6940   5.379   3.248   5.794 -0.4378  0.8480  2.9502
   77SLPC  H15C 6941   5.543   3.246   5.853 -0.0693  0.1780  0.8335
   77SLPC   C12 6942   5.303   3.042   5.950 -0.2564  0.2968  0.0464
   77SLPC  H12A 6943   5.287   2.977   6.036  0.9524 -2.0075 -1.3679
   77SLPC  H12B 6944   5.341   2.965   5.884  1.9430 -1.4562  3.0970
   77SLPC   C11 6945   5.173   3.103   5.900  0.2379  0.0904  0.0759
   77SLPC  H11A 6946   5.103   3.017   5.903  1.2560 -0.7340  0.6879
   77SLPC  H11B 6947   5.195   3.131   5.794  0.7400 -2.1217 -0.4494
   77SLPC     P 6948   5.022   3.168   6.095  0.0957 -0.0142  0.0487
   77SLPC   O13 6949   4.916   3.272   6.103 -0.2261  0.0899  1.1985
   77SLPC   O14 6950   4.971   3.028   6.081  0.2246 -0.2485 -0.3724
   77SLPC   O12 6951   5.115   3.208   5.973 -0.4523  0.2907  0.2253
   77SLPC   O11 6952   5.124   3.174   6.219 -0.0845  0.0734 -0.5500
   77SLPC    C1 6953   5.094   3.085   6.329 -0.1862 -0.2762 -0.3242
   77SLPC    HA 6954   5.047   2.988   6.301  0.0579 -0.5770  0.2881
   77SLPC    HB 6955   5.189   3.077   6.386 -0.5421 -0.1418  0.2939
   77SLPC    C2 6956   4.990   3.147   6.433  0.5700 -0.5600 -0.3661
   77SLPC    HS 6957   4.894   3.157   6.378 -0.2412 -0.8118  0.9641
   77SLPC   O21 6958   5.030   3.280   6.477  0.3941 -0.1051  0.3378
   77SLPC   C21 6959   4.933   3.371   6.492  0.4732  0.2037 -0.2849
   77SLPC   O22 6960   4.813   3.344   6.477 -0.7837 -0.1125  0.5922
   77SLPC   C22 6961   4.996   3.500   6.535 -0.2744 -0.5228  0.1548
   77SLPC   H2R 6962   5.060   3.496   6.625  1.3351  0.6335 -0.8940
   77SLPC   H2S 6963   5.055   3.545   6.452  0.5398  0.6959  1.3671
   77SLPC    C3 6964   4.964   3.054   6.554 -0.2236  0.3407  0.0853
   77SLPC    HX 6965   5.063   3.028   6.597 -0.5025 -2.1916 -0.6482
   77SLPC    HY 6966   4.918   2.959   6.520  1.3355 -1.9976  3.9026
   77SLPC   O31 6967   4.883   3.118   6.653  0.5299 -0.2485  0.8204
   77SLPC   C31 6968   4.746   3.107   6.629  0.6638 -0.6511 -0.6898
   77SLPC   O32 6969   4.689   3.048   6.540 -0.3818 -0.7321  0.2686
   77SLPC   C32 6970   4.675   3.183   6.738 -0.3077  0.2326  0.7178
   77SLPC   H2X 6971   4.583   3.226   6.692 -0.4981  0.2619  1.1207
   77SLPC   H2Y 6972   4.745   3.264   6.767  0.6625  0.2623 -1.4758
   77SLPC   C23 6973   4.884   3.596   6.571  0.3503 -0.6070 -0.6627
   77SLPC   H3R 6974   4.800   3.596   6.497 -0.0104  1.1752 -0.3026
   77SLPC   H3S 6975   4.917   3.701   6.582  2.2527 -1.0876 -1.3224
   77SLPC   C24 6976   4.817   3.572   6.711 -0.2363  0.1794 -0.1415
   77SLPC   H4R 6977   4.744   3.489   6.706  0.0833 -0.0466 -1.5959
   77SLPC   H4S 6978   4.765   3.668   6.731 -0.0146  0.2114  0.2758
   77SLPC   C25 6979   4.913   3.553   6.827  0.1654  0.1357  0.0645
   77SLPC   H5R 6980   4.996   3.626   6.815  0.6425 -0.5738 -1.0992
   77SLPC   H5S 6981   4.962   3.453   6.825 -0.2256 -0.0616 -2.0512
   77SLPC   C26 6982   4.832   3.577   6.958 -0.1995 -0.2056 -0.0894
   77SLPC   H6R 6983   4.739   3.517   6.963 -0.1252 -0.4127 -0.9840
   77SLPC   H6S 6984   4.780   3.674   6.953 -0.3210 -0.1628  1.4099
   77SLPC   C27 6985   4.911   3.598   7.087  0.0331  0.1141 -0.0534
   77SLPC   H7R 6986   4.994   3.671   7.087 -0.9552  1.2773 -0.2262
   77SLPC   H7S 6987   4.972   3.506   7.098  0.5860  0.3517 -1.0307
   77SLPC   C28 6988   4.830   3.605   7.218  0.6828 -0.8619  0.1804
   77SLPC   H8R 6989   4.889   3.579   7.309  0.0047 -1.2630  0.5091
   77SLPC   H8S 6990   4.757   3.523   7.205  0.3912 -0.5139 -0.3954
   77SLPC   C29 6991   4.761   3.737   7.228  1.2036 -0.7814 -0.3867
   77SLPC   H9R 6992   4.733   3.787   7.134 -0.5038  1.4896  1.1891
   77SLPC  C210 6993   4.717   3.804   7.343  0.6022 -0.4874  0.0795
   77SLPC  H10R 6994   4.665   3.900   7.332 -1.1067 -1.0074  2.6684
   77SLPC  C211 6995   4.740   3.761   7.489 -0.8662 -0.7932  0.0567
   77SLPC  H11R 6996   4.822   3.686   7.499  0.2940  0.4125 -0.0314
   77SLPC  H11S 6997   4.649   3.711   7.528 -0.5187 -1.0712  0.5199
   77SLPC  C212 6998   4.781   3.880   7.579 -0.6718 -0.5192 -0.5338
   77SLPC  H12R 6999   4.777   3.980   7.532  0.3953 -0.7978 -1.2659
   77SLPC  C213 7000   4.804   3.874   7.707  0.0701 -0.2822 -0.0987
   77SLPC  H13R 7001   4.814   3.970   7.758  1.7892  1.0447 -2.6969
   77SLPC  C214 7002   4.790   3.757   7.799 -0.0442 -0.2779  0.2505
   77SLPC  H14R 7003   4.881   3.762   7.862  0.1597 -0.9084  0.0143
   77SLPC  H14S 7004   4.796   3.656   7.752 -0.6953 -0.8115  1.2805
   77SLPC  C215 7005   4.673   3.783   7.897 -0.4167  0.1601  0.0472
   77SLPC  H15R 7006   4.579   3.770   7.841 -0.1227 -1.1685 -0.1661
   77SLPC  H15S 7007   4.681   3.886   7.940 -1.2830 -0.0859  0.8112
   77SLPC  C216 7008   4.671   3.686   8.019 -1.1376  0.4471 -0.1025
   77SLPC  H16R 7009   4.759   3.704   8.084 -0.9075 -1.0923  0.0523
   77SLPC  H16S 7010   4.679   3.579   7.990 -1.6881 -0.0185  1.3872
   77SLPC  C217 7011   4.539   3.698   8.094  0.0794 -0.4984 -0.0001
   77SLPC  H17R 7012   4.465   3.684   8.012  0.3851 -0.7531 -0.2379
   77SLPC  H17S 7013   4.521   3.805   8.117 -0.9348 -0.3673 -1.3089
   77SLPC  C218 7014   4.517   3.620   8.218  0.2302  0.3950 -0.4940
   77SLPC  H18R 7015   4.542   3.517   8.185 -2.1134  0.1974 -1.9316
   77SLPC  H18S 7016   4.413   3.618   8.259  0.1567 -3.5306 -0.5096
   77SLPC  H18T 7017   4.585   3.657   8.298 -1.3971  1.4813  0.4476
   77SLPC   C33 7018   4.642   3.091   6.858 -0.1278 -0.2011 -0.0550
   77SLPC   H3X 7019   4.579   3.006   6.825 -1.4730  0.6111  0.3415
   77SLPC   H3Y 7020   4.582   3.153   6.929  1.5803 -0.8480  2.0670
   77SLPC   C34 7021   4.771   3.052   6.933  0.3435  0.1448 -0.2992
   77SLPC   H4X 7022   4.852   3.004   6.875  1.5806  0.0283  1.4524
   77SLPC   H4Y 7023   4.742   2.978   7.010 -0.5740  0.8454  0.0451
   77SLPC   C35 7024   4.838   3.173   6.997  0.5766  0.6874  0.5842
   77SLPC   H5X 7025   4.758   3.238   7.038  1.3536  0.1705  3.1067
   77SLPC   H5Y 7026   4.905   3.233   6.934 -2.0054  1.0506 -2.0465
   77SLPC   C36 7027   4.926   3.132   7.115 -0.1639  0.6935 -0.9031
   77SLPC   H6X 7028   4.991   3.215   7.151 -0.6582  1.0570 -0.8295
   77SLPC   H6Y 7029   4.990   3.048   7.082 -0.4478  0.6117 -1.2487
   77SLPC   C37 7030   4.841   3.077   7.237 -0.4996  0.3052  0.1788
   77SLPC   H7X 7031   4.764   3.007   7.197 -0.6140  0.8621 -0.6222
   77SLPC   H7Y 7032   4.789   3.157   7.294  0.4981  1.1267 -0.0375
   77SLPC   C38 7033   4.928   3.003   7.332  0.1281 -0.3728 -0.2069
   77SLPC   H8X 7034   4.990   3.086   7.373  1.5430 -1.4405 -0.1119
   77SLPC   H8Y 7035   4.986   2.932   7.270 -0.0345 -0.8012  0.1236
   77SLPC   C39 7036   4.845   2.934   7.444 -0.4964  0.4907 -0.7124
   77SLPC   H9X 7037   4.782   2.857   7.394  2.5734 -0.3730 -3.5893
   77SLPC   H9Y 7038   4.790   3.014   7.498  1.8998  0.3296  2.2565
   77SLPC  C310 7039   4.946   2.878   7.544  0.5163  0.1479 -0.3903
   77SLPC  H10X 7040   5.003   2.965   7.583  1.7010 -0.6011 -0.3845
   77SLPC  H10Y 7041   5.023   2.812   7.498 -0.2285 -1.1841  0.1976
   77SLPC  C311 7042   4.870   2.813   7.665 -0.4124  0.2136  0.5918
   77SLPC  H11X 7043   4.780   2.761   7.625  0.9054 -0.2260 -1.9832
   77SLPC  H11Y 7044   4.831   2.892   7.733 -0.3635  1.4556 -0.7658
   77SLPC  C312 7045   4.961   2.717   7.747 -0.7037  0.4699  0.3390
   77SLPC  H12X 7046   4.998   2.648   7.669 -0.9485  0.8528 -0.1274
   77SLPC  H12Y 7047   4.902   2.664   7.825 -1.2030  0.6813  0.1085
   77SLPC  C313 7048   5.078   2.796   7.814 -0.5764 -0.5022  0.2595
   77SLPC  H13X 7049   5.128   2.856   7.736  1.4638  0.3138  2.1115
   77SLPC  H13Y 7050   5.148   2.719   7.853  1.3624  1.4789  0.8875
   77SLPC  C314 7051   5.021   2.879   7.931  0.3065 -0.0159  0.4695
   77SLPC  H14X 7052   4.996   2.811   8.015 -0.8696 -0.4587 -0.2072
   77SLPC  H14Y 7053   4.933   2.940   7.900 -0.8637 -1.7941  0.1556
   77SLPC  C315 7054   5.117   2.981   7.992  0.0701  0.3119  0.1464
   77SLPC  H15X 7055   5.176   3.050   7.928  1.5053  0.4259  1.5252
   77SLPC  H15Y 7056   5.189   2.920   8.052  0.3528 -0.3769 -0.8646
   77SLPC  C316 7057   5.045   3.083   8.084  0.3573 -0.0977  0.3169
   77SLPC  H16X 7058   4.938   3.061   8.106 -0.1993  2.0380 -0.0694
   77SLPC  H16Y 7059   5.047   3.165   8.010 -1.3474  1.2583  1.6897
   77SLPC  C317 7060   5.132   3.123   8.205  0.1811  0.3543  0.2312
   77SLPC  H17X 7061   5.238   3.093   8.189  0.3477  0.2265  1.4684
   77SLPC  H17Y 7062   5.093   3.069   8.293  0.5574 -2.3876 -1.1642
   77SLPC  C318 7063   5.148   3.271   8.231 -0.2324 -0.2666 -0.6263
   77SLPC  H18X 7064   5.219   3.301   8.312  0.1373 -2.9851  0.1438
   77SLPC  H18Y 7065   5.046   3.307   8.255 -0.6928 -0.9021 -1.6048
   77SLPC  H18Z 7066   5.201   3.316   8.144 -2.4474  0.2646 -1.7799
   78SLPC     N 7067   4.819   0.034   6.258  0.1555  0.1582  0.4553
   78SLPC   C13 7068   4.877  -0.025   6.136 -0.0709 -0.0579  0.0587
   78SLPC  H13A 7069   4.939   0.055   6.098 -1.1449  1.3380  1.0913
   78SLPC  H13B 7070   4.920  -0.120   6.163 -1.4865 -0.5454  0.7198
   78SLPC  H13C 7071   4.804  -0.056   6.063  2.8494 -1.0138 -2.6652
   78SLPC   C14 7072   4.728  -0.075   6.304  0.2647  0.0194 -0.0357
   78SLPC  H14A 7073   4.667  -0.050   6.390  0.4046 -0.6257  0.2575
   78SLPC  H14B 7074   4.658  -0.106   6.228 -1.8375  0.3680  1.6473
   78SLPC  H14C 7075   4.788  -0.156   6.342 -0.4944 -1.2804 -1.5019
   78SLPC   C15 7076   4.733   0.163   6.235  0.3770 -0.5099  0.0363
   78SLPC  H15A 7077   4.792   0.248   6.206 -0.7252  0.6572  1.1043
   78SLPC  H15B 7078   4.663   0.158   6.153  1.5161  2.0722 -1.1941
   78SLPC  H15C 7079   4.683   0.191   6.327  0.8330 -1.8303  0.7103
   78SLPC   C12 7080   4.910   0.060   6.376 -0.0979 -0.6329  0.6879
   78SLPC  H12A 7081   4.848   0.081   6.462  0.8653  1.5495  0.9340
   78SLPC  H12B 7082   4.967   0.150   6.357 -3.8030  1.7268 -0.2002
   78SLPC   C11 7083   5.011  -0.054   6.417 -0.4290 -0.4707  0.9929
   78SLPC  H11A 7084   4.957  -0.145   6.452 -2.6114  0.8475  1.2400
   78SLPC  H11B 7085   5.068  -0.026   6.508 -0.1130  0.0772  0.6336
   78SLPC     P 7086   5.222   0.004   6.290 -0.1248 -0.5157  0.5360
   78SLPC   O13 7087   5.317  -0.049   6.188  0.3510  0.4908  0.4843
   78SLPC   O14 7088   5.183   0.147   6.280 -0.2446  0.1080  0.0829
   78SLPC   O12 7089   5.099  -0.090   6.305  0.4640  0.0335  0.1230
   78SLPC   O11 7090   5.304  -0.003   6.424  0.2590  0.0684  0.0411
   78SLPC    C1 7091   5.376  -0.117   6.464 -0.9076  0.7646 -0.4954
   78SLPC    HA 7092   5.375  -0.206   6.397  0.1477 -2.0189  2.8786
   78SLPC    HB 7093   5.484  -0.091   6.457 -1.3247  2.3259 -1.6773
   78SLPC    C2 7094   5.336  -0.157   6.609  0.3023  0.1753 -0.3975
   78SLPC    HS 7095   5.412  -0.221   6.659 -0.1689 -1.5094 -1.7381
   78SLPC   O21 7096   5.208  -0.223   6.597  0.3156  0.0308 -0.4430
   78SLPC   C21 7097   5.177  -0.295   6.703  0.7841 -0.0275  0.1533
   78SLPC   O22 7098   5.254  -0.324   6.787 -0.6269 -0.3906 -0.1766
   78SLPC   C22 7099   5.027  -0.317   6.712  0.4921  0.3233 -0.6442
   78SLPC   H2R 7100   4.979  -0.295   6.614  3.3300 -0.9420 -2.4395
   78SLPC   H2S 7101   5.004  -0.426   6.723 -2.0448  0.7588 -1.0156
   78SLPC    C3 7102   5.326  -0.022   6.698  0.2401  0.3594 -0.3095
   78SLPC    HX 7103   5.248   0.044   6.654  1.8755  1.6398 -1.4302
   78SLPC    HY 7104   5.414   0.042   6.677  0.2164 -0.1261 -2.0864
   78SLPC   O31 7105   5.294  -0.045   6.837 -0.2775 -0.0835 -0.4326
   78SLPC   C31 7106   5.399  -0.059   6.919  0.9049 -0.3841 -0.0240
   78SLPC   O32 7107   5.513  -0.036   6.884 -0.1101 -0.3812  0.1596
   78SLPC   C32 7108   5.354  -0.116   7.055 -0.1341  0.1875  0.2161
   78SLPC   H2X 7109   5.388  -0.221   7.055 -0.4920  0.0249 -2.2966
   78SLPC   H2Y 7110   5.244  -0.105   7.070 -0.7496 -2.5053 -1.7610
   78SLPC   C23 7111   4.960  -0.239   6.833 -0.1070  0.9589  0.8514
   78SLPC   H3R 7112   4.850  -0.242   6.817 -0.0569 -1.4054  0.6057
   78SLPC   H3S 7113   5.004  -0.137   6.840  2.5692 -0.1162  0.9293
   78SLPC   C24 7114   4.983  -0.306   6.968 -0.5781 -0.5714  0.1207
   78SLPC   H4R 7115   5.092  -0.327   6.976 -0.4371 -0.8594 -1.8897
   78SLPC   H4S 7116   4.926  -0.401   6.957 -0.7635 -0.3201 -1.3960
   78SLPC   C25 7117   4.938  -0.209   7.078 -0.9110  0.7390 -0.3728
   78SLPC   H5R 7118   4.836  -0.170   7.061 -0.2308  2.4097 -0.8505
   78SLPC   H5S 7119   4.996  -0.114   7.079  0.1376  0.1111  0.2563
   78SLPC   C26 7120   4.937  -0.286   7.208  0.0445  0.3976  0.1774
   78SLPC   H6R 7121   5.038  -0.298   7.255 -1.0111 -0.8136  2.3144
   78SLPC   H6S 7122   4.891  -0.386   7.198  1.7276 -0.3020 -0.8772
   78SLPC   C27 7123   4.849  -0.217   7.314 -0.0654 -0.2503 -0.7395
   78SLPC   H7R 7124   4.749  -0.265   7.313 -0.8766  1.3770 -1.5643
   78SLPC   H7S 7125   4.836  -0.110   7.289  1.2244  0.7480  2.3526
   78SLPC   C28 7126   4.902  -0.220   7.462 -0.3823 -0.1880  0.0130
   78SLPC   H8R 7127   5.008  -0.188   7.453 -0.6132  0.2845 -1.2638
   78SLPC   H8S 7128   4.904  -0.327   7.491  2.0578 -0.3920 -0.7011
   78SLPC   C29 7129   4.836  -0.137   7.572  0.0656 -0.2080  0.8310
   78SLPC   H9R 7130   4.781  -0.051   7.532  0.9638  0.5699  1.2154
   78SLPC  C210 7131   4.832  -0.156   7.703 -0.6330  0.0684  0.4519
   78SLPC  H10R 7132   4.787  -0.083   7.772  0.9401  0.9402  0.6181
   78SLPC  C211 7133   4.891  -0.277   7.774  0.9391 -0.1782 -0.0562
   78SLPC  H11R 7134   4.957  -0.246   7.858  0.0599  0.2474  0.4984
   78SLPC  H11S 7135   4.961  -0.327   7.704 -0.0720  0.2693 -1.4184
   78SLPC  C212 7136   4.779  -0.353   7.835 -0.2530  0.0627  0.1113
   78SLPC  H12R 7137   4.706  -0.391   7.762  0.5715  1.5309 -1.5228
   78SLPC  C213 7138   4.789  -0.419   7.951  0.2285 -0.5380 -0.6805
   78SLPC  H13R 7139   4.700  -0.478   7.977 -0.5655  1.8870  2.7365
   78SLPC  C214 7140   4.869  -0.384   8.078 -0.3120  0.2719  0.4017
   78SLPC  H14R 7141   4.892  -0.276   8.071 -1.5296  0.4719 -0.6012
   78SLPC  H14S 7142   4.969  -0.432   8.090  1.0055  2.1319 -2.0889
   78SLPC  C215 7143   4.794  -0.397   8.214 -0.3731 -0.4667 -0.1229
   78SLPC  H15R 7144   4.751  -0.499   8.211  0.4005 -0.8853  1.8483
   78SLPC  H15S 7145   4.713  -0.321   8.221 -1.0832 -1.1308 -0.8022
   78SLPC  C216 7146   4.883  -0.378   8.334  0.4858  0.1366 -0.8038
   78SLPC  H16R 7147   4.949  -0.290   8.316  0.3970  0.0134 -1.7631
   78SLPC  H16S 7148   4.958  -0.459   8.343  0.7157  0.5273  1.7230
   78SLPC  C217 7149   4.805  -0.369   8.468  0.0923  0.9739 -0.8289
   78SLPC  H17R 7150   4.717  -0.301   8.464  0.3164  1.3107 -0.2051
   78SLPC  H17S 7151   4.876  -0.336   8.546 -0.5989  0.5709 -0.0109
   78SLPC  C218 7152   4.758  -0.511   8.507 -0.8659  0.1245  0.5712
   78SLPC  H18R 7153   4.677  -0.546   8.440 -0.5563 -0.7296  0.6256
   78SLPC  H18S 7154   4.721  -0.524   8.611  0.6343 -1.6815  0.9454
   78SLPC  H18T 7155   4.837  -0.590   8.504 -1.3251 -0.3364  0.5749
   78SLPC   C33 7156   5.416  -0.052   7.183 -0.6855 -0.5791  0.3855
   78SLPC   H3X 7157   5.395   0.056   7.194 -0.1673 -0.5224  0.8571
   78SLPC   H3Y 7158   5.525  -0.072   7.181 -0.6036 -0.1302  0.2303
   78SLPC   C34 7159   5.357  -0.117   7.313  0.5791 -0.1701  0.1115
   78SLPC   H4X 7160   5.384  -0.225   7.309  0.2608 -0.2546  0.2013
   78SLPC   H4Y 7161   5.246  -0.112   7.315  0.6017  0.2460  1.1529
   78SLPC   C35 7162   5.400  -0.053   7.441  0.4357 -0.2973 -0.2570
   78SLPC   H5X 7163   5.352  -0.111   7.523  3.1718 -1.1818  0.8206
   78SLPC   H5Y 7164   5.349   0.046   7.430  2.1822  0.6654 -0.0282
   78SLPC   C36 7165   5.547  -0.032   7.467  0.4905  0.3207  0.7593
   78SLPC   H6X 7166   5.576   0.029   7.378 -2.6546  0.8151 -0.0508
   78SLPC   H6Y 7167   5.595  -0.131   7.451 -0.7470  0.0535 -1.8823
   78SLPC   C37 7168   5.580   0.051   7.590  0.3292  0.9447 -0.3421
   78SLPC   H7X 7169   5.513   0.139   7.605  0.4151  1.2965 -1.8631
   78SLPC   H7Y 7170   5.685   0.087   7.586 -0.0057  2.1611  0.8418
   78SLPC   C38 7171   5.568  -0.040   7.715 -0.0234 -0.0196 -0.2493
   78SLPC   H8X 7172   5.635  -0.129   7.708 -0.5239 -0.5445  1.2176
   78SLPC   H8Y 7173   5.462  -0.068   7.733 -0.1568  0.7824  0.2664
   78SLPC   C39 7174   5.622   0.017   7.845  1.0047 -0.5979 -0.0233
   78SLPC   H9X 7175   5.592  -0.051   7.928 -2.6725  0.9116  0.0556
   78SLPC   H9Y 7176   5.570   0.114   7.860 -1.1093 -1.7835  0.7408
   78SLPC  C310 7177   5.774   0.046   7.849 -0.0505 -0.0430 -0.3803
   78SLPC  H10X 7178   5.805   0.117   7.928  0.8316 -0.9983  0.1495
   78SLPC  H10Y 7179   5.819   0.100   7.763 -2.5925  1.0863 -1.0825
   78SLPC  C311 7180   5.855  -0.083   7.883  0.4870  0.6246  0.5389
   78SLPC  H11X 7181   5.959  -0.047   7.898  0.3357  2.9962 -2.8932
   78SLPC  H11Y 7182   5.843  -0.139   7.788  0.0987  1.9352 -0.2159
   78SLPC  C312 7183   5.808  -0.176   8.002  0.3300 -0.0992 -0.1974
   78SLPC  H12X 7184   5.888  -0.253   8.009  2.0987  1.7260  0.6762
   78SLPC  H12Y 7185   5.714  -0.233   7.992  1.1143 -1.1760 -1.8467
   78SLPC  C313 7186   5.799  -0.091   8.130 -0.5819 -0.7496 -0.3092
   78SLPC  H13X 7187   5.727  -0.011   8.103 -0.5753 -0.6371 -0.0058
   78SLPC  H13Y 7188   5.897  -0.044   8.154  0.0867 -1.5064 -1.4800
   78SLPC  C314 7189   5.746  -0.168   8.243 -0.0250  0.2300 -0.4587
   78SLPC  H14X 7190   5.794  -0.268   8.234  2.6696  1.4201 -0.3701
   78SLPC  H14Y 7191   5.637  -0.182   8.232 -0.1526 -0.6395  1.4732
   78SLPC  C315 7192   5.769  -0.112   8.387 -0.6236 -0.6830 -0.3774
   78SLPC  H15X 7193   5.877  -0.088   8.394 -0.8303  0.0572  0.4897
   78SLPC  H15Y 7194   5.744  -0.188   8.464 -0.4294  0.9132  1.3577
   78SLPC  C316 7195   5.702   0.026   8.418 -0.3795  0.4184  0.1362
   78SLPC  H16X 7196   5.592   0.013   8.420 -0.3742 -0.3486 -1.9614
   78SLPC  H16Y 7197   5.723   0.092   8.331  0.9124  0.0204  0.1273
   78SLPC  C317 7198   5.768   0.089   8.545 -0.8604 -0.5472  0.3602
   78SLPC  H17X 7199   5.865   0.131   8.512 -1.3796  2.1779  1.9728
   78SLPC  H17Y 7200   5.783   0.002   8.612 -0.5946 -0.9095 -0.1678
   78SLPC  C318 7201   5.685   0.201   8.612 -0.1005  0.3649 -0.1779
   78SLPC  H18X 7202   5.594   0.151   8.653 -0.5667  0.8915 -0.5440
   78SLPC  H18Y 7203   5.640   0.257   8.526  0.2819 -1.8449 -1.9055
   78SLPC  H18Z 7204   5.739   0.263   8.686 -1.1573  1.1731 -0.0469
   79SLPC     N 7205   6.267   3.038   6.056  0.7948  0.1933  0.4191
   79SLPC   C13 7206   6.357   3.056   5.935 -0.2351 -0.4426  0.9099
   79SLPC  H13A 7207   6.319   2.993   5.856  1.3273  0.4640 -0.6342
   79SLPC  H13B 7208   6.354   3.161   5.911  0.8855 -0.3411  1.1678
   79SLPC  H13C 7209   6.462   3.037   5.956 -0.0407 -0.2232  0.1951
   79SLPC   C14 7210   6.263   2.894   6.099  0.6397  0.0454 -0.2253
   79SLPC  H14A 7211   6.198   2.884   6.185 -0.7589  1.3315 -1.0869
   79SLPC  H14B 7212   6.241   2.821   6.023  0.6396 -0.4086  0.1983
   79SLPC  H14C 7213   6.364   2.866   6.125  1.7838  0.3846 -3.8469
   79SLPC   C15 7214   6.129   3.086   6.000 -0.3001 -0.0389  0.1931
   79SLPC  H15A 7215   6.100   3.040   5.907 -2.6194  0.2549  0.7150
   79SLPC  H15B 7216   6.056   3.059   6.074  0.0182 -0.3651  0.3909
   79SLPC  H15C 7217   6.132   3.192   5.977  1.6709 -0.1393 -0.1710
   79SLPC   C12 7218   6.307   3.125   6.173 -0.2505 -0.6326 -0.3214
   79SLPC  H12A 7219   6.238   3.105   6.253 -1.5669 -0.6247 -1.4243
   79SLPC  H12B 7220   6.292   3.230   6.152 -2.1489 -0.7175  0.4193
   79SLPC   C11 7221   6.443   3.105   6.235  0.5898  0.4634 -0.4295
   79SLPC  H11A 7222   6.461   2.996   6.245 -0.3896  0.2640 -0.6501
   79SLPC  H11B 7223   6.440   3.142   6.339 -1.8137 -1.0532  0.1271
   79SLPC     P 7224   6.615   3.300   6.199 -0.1055  0.0023  0.1872
   79SLPC   O13 7225   6.724   3.332   6.110 -0.3006 -0.2355 -0.1782
   79SLPC   O14 7226   6.523   3.412   6.217  0.6684  0.0284 -0.2915
   79SLPC   O12 7227   6.536   3.173   6.148 -0.2708 -0.5528  0.0388
   79SLPC   O11 7228   6.672   3.257   6.334 -0.8301  0.0762 -0.7277
   79SLPC    C1 7229   6.773   3.153   6.337  0.3804 -0.4083  0.1810
   79SLPC    HA 7230   6.741   3.060   6.286  0.0658  0.5660 -1.4632
   79SLPC    HB 7231   6.859   3.193   6.279 -0.0872  0.7340  0.2648
   79SLPC    C2 7232   6.826   3.132   6.480  0.2099  0.1085 -0.0590
   79SLPC    HS 7233   6.891   3.042   6.479  0.3349  0.1805  0.7319
   79SLPC   O21 7234   6.725   3.096   6.575  0.2237 -0.4868  0.2560
   79SLPC   C21 7235   6.649   2.992   6.533  0.0072 -0.0404  0.8340
   79SLPC   O22 7236   6.681   2.908   6.455 -0.6439  0.2593 -0.4674
   79SLPC   C22 7237   6.518   2.979   6.618  0.0748  0.4633 -0.4048
   79SLPC   H2R 7238   6.515   3.072   6.679 -1.9079  0.2258 -0.0691
   79SLPC   H2S 7239   6.427   2.978   6.555  0.0770 -2.5380 -0.5064
   79SLPC    C3 7240   6.913   3.248   6.537  0.4855 -0.2231 -0.1738
   79SLPC    HX 7241   6.872   3.350   6.519  0.9274 -0.1593 -0.8683
   79SLPC    HY 7242   7.008   3.238   6.480  1.7577  1.2405  1.5663
   79SLPC   O31 7243   6.948   3.238   6.670  0.0142 -0.0239 -0.0408
   79SLPC   C31 7244   7.035   3.144   6.714  0.0764 -0.0015 -0.2687
   79SLPC   O32 7245   7.078   3.049   6.656 -0.9527 -0.5467  0.0522
   79SLPC   C32 7246   7.066   3.183   6.859  0.0315  0.1777 -0.8599
   79SLPC   H2X 7247   6.973   3.201   6.917  0.6370  1.5004 -0.2508
   79SLPC   H2Y 7248   7.119   3.281   6.861  3.3099 -1.4772 -0.0479
   79SLPC   C23 7249   6.522   2.847   6.691  0.2147  0.1409  0.9171
   79SLPC   H3R 7250   6.516   2.757   6.626  0.2821  0.4831  0.4370
   79SLPC   H3S 7251   6.425   2.850   6.745 -0.1194  2.2966  0.2816
   79SLPC   C24 7252   6.628   2.827   6.801  0.1562  0.5347  0.1955
   79SLPC   H4R 7253   6.725   2.801   6.752 -0.7853 -0.4161 -1.2564
   79SLPC   H4S 7254   6.585   2.740   6.855  0.8278 -1.0803 -1.7088
   79SLPC   C25 7255   6.650   2.950   6.889  0.1980  0.2360  0.1585
   79SLPC   H5R 7256   6.554   3.003   6.908 -0.6469 -0.2844 -2.3292
   79SLPC   H5S 7257   6.706   3.030   6.836 -0.4077  3.1443  3.5090
   79SLPC   C26 7258   6.724   2.945   7.029 -0.0237 -0.6209 -0.3976
   79SLPC   H6R 7259   6.718   3.049   7.069 -1.4105 -1.0780  0.6593
   79SLPC   H6S 7260   6.830   2.913   7.031 -0.0645 -0.9545 -2.1800
   79SLPC   C27 7261   6.640   2.852   7.116 -0.8513 -0.5172 -0.1622
   79SLPC   H7R 7262   6.604   2.776   7.044  0.2735 -0.2828 -0.9854
   79SLPC   H7S 7263   6.547   2.896   7.159  0.2579  2.7785 -0.8620
   79SLPC   C28 7264   6.714   2.793   7.241  0.1942 -0.3122  0.1377
   79SLPC   H8R 7265   6.723   2.878   7.312  0.6393 -0.3223  0.1015
   79SLPC   H8S 7266   6.819   2.762   7.220  0.2703 -0.2804  0.4571
   79SLPC   C29 7267   6.642   2.679   7.303 -0.1767 -0.0830  0.6730
   79SLPC   H9R 7268   6.610   2.608   7.225  0.0112 -0.7978  1.2351
   79SLPC  C210 7269   6.592   2.669   7.427  0.4557 -0.4756  0.0999
   79SLPC  H10R 7270   6.554   2.569   7.449  4.1150 -2.0435  0.0454
   79SLPC  C211 7271   6.603   2.771   7.544 -0.8610 -0.3459 -0.2343
   79SLPC  H11R 7272   6.510   2.754   7.603 -1.5565  0.8016 -0.9478
   79SLPC  H11S 7273   6.580   2.871   7.499  1.2546  0.1380 -0.3535
   79SLPC  C212 7274   6.737   2.771   7.618 -0.0169  0.4112  0.1692
   79SLPC  H12R 7275   6.826   2.772   7.554  0.2862  1.1748  0.5852
   79SLPC  C213 7276   6.755   2.799   7.749  0.8323 -0.3272 -0.1919
   79SLPC  H13R 7277   6.860   2.794   7.781  0.7897 -0.1466 -0.0251
   79SLPC  C214 7278   6.636   2.820   7.845  0.5030  0.5025 -0.0523
   79SLPC  H14R 7279   6.553   2.873   7.795 -0.1120 -0.9082 -0.5501
   79SLPC  H14S 7280   6.667   2.879   7.935  0.4019  0.3409  0.0874
   79SLPC  C215 7281   6.594   2.680   7.905  0.3136  0.1606 -0.2210
   79SLPC  H15R 7282   6.684   2.634   7.950  1.0051  2.4303  0.8776
   79SLPC  H15S 7283   6.568   2.610   7.823 -0.6380 -0.0480  0.2485
   79SLPC  C216 7284   6.480   2.687   7.997  0.0661  0.2964 -0.0178
   79SLPC  H16R 7285   6.393   2.732   7.945 -1.7058 -0.0764  2.4252
   79SLPC  H16S 7286   6.495   2.736   8.096 -0.4226  1.6394 -0.5825
   79SLPC  C217 7287   6.429   2.541   8.028  0.0026  0.1798  0.2012
   79SLPC  H17R 7288   6.514   2.496   8.084  0.3441  1.7972  1.0491
   79SLPC  H17S 7289   6.415   2.488   7.931 -2.2044  0.5421  0.2639
   79SLPC  C218 7290   6.299   2.527   8.109 -0.2328  0.1074 -0.1853
   79SLPC  H18R 7291   6.306   2.421   8.140  0.1669 -0.0439 -0.7726
   79SLPC  H18S 7292   6.210   2.544   8.045 -1.2525  1.6474  1.5466
   79SLPC  H18T 7293   6.306   2.602   8.191 -0.4889 -0.8543  0.7342
   79SLPC   C33 7294   7.158   3.081   6.935  0.3332 -0.3831  0.0718
   79SLPC   H3X 7295   7.256   3.102   6.886  0.3568 -0.2017  0.1949
   79SLPC   H3Y 7296   7.130   2.974   6.924 -0.5743 -0.2607  1.0410
   79SLPC   C34 7297   7.185   3.100   7.086  0.4103  0.5820  0.3102
   79SLPC   H4X 7298   7.203   3.208   7.102 -1.7857  1.1752 -0.8815
   79SLPC   H4Y 7299   7.275   3.035   7.097  0.2034  0.4909  1.6247
   79SLPC   C35 7300   7.072   3.050   7.181 -0.2005 -0.8126  0.8457
   79SLPC   H5X 7301   7.032   2.952   7.146  0.8405 -0.4904 -1.4057
   79SLPC   H5Y 7302   6.991   3.126   7.176  1.2775  0.8040  0.4886
   79SLPC   C36 7303   7.103   3.059   7.333  0.3882 -0.0078  0.2479
   79SLPC   H6X 7304   7.139   3.162   7.352 -2.4251  1.5771 -2.2166
   79SLPC   H6Y 7305   7.184   2.990   7.367 -0.0361 -0.4610  0.3516
   79SLPC   C37 7306   6.969   3.040   7.413  0.3839  0.0358 -0.3733
   79SLPC   H7X 7307   6.933   2.939   7.384  0.6496  0.2649 -1.5515
   79SLPC   H7Y 7308   6.893   3.110   7.373 -1.1544 -1.0488  0.5467
   79SLPC   C38 7309   6.973   3.068   7.564  0.5681  0.3083 -0.1392
   79SLPC   H8X 7310   6.878   3.065   7.621  1.0865 -2.2988  0.7590
   79SLPC   H8Y 7311   7.003   3.174   7.577  0.8737  0.2581 -0.4326
   79SLPC   C39 7312   7.076   2.988   7.649 -0.6632  0.4795  0.6025
   79SLPC   H9X 7313   7.176   3.025   7.616 -1.3861  1.1675 -0.9297
   79SLPC   H9Y 7314   7.076   2.879   7.626  1.5672  0.1298  1.9083
   79SLPC  C310 7315   7.064   2.998   7.802  0.1437  0.4327 -0.1233
   79SLPC  H10X 7316   7.160   2.963   7.846  0.7315 -1.1895 -2.4594
   79SLPC  H10Y 7317   6.980   2.931   7.830  1.7801 -1.8209 -0.2926
   79SLPC  C311 7318   7.050   3.145   7.845  0.5567 -0.0224 -0.6955
   79SLPC  H11X 7319   6.970   3.194   7.785  1.1999  3.3910  0.9570
   79SLPC  H11Y 7320   7.147   3.196   7.833  0.1910  0.9890  0.3840
   79SLPC  C312 7321   7.001   3.145   7.991  0.1673 -0.0396 -0.1407
   79SLPC  H12X 7322   7.071   3.098   8.063 -1.9477  0.4913  2.4538
   79SLPC  H12Y 7323   6.903   3.092   7.998 -0.3342  0.9168  0.3656
   79SLPC  C313 7324   6.986   3.293   8.047 -0.2385 -0.7089 -0.0027
   79SLPC  H13X 7325   6.905   3.333   7.983 -0.6345 -1.5202 -0.0280
   79SLPC  H13Y 7326   7.085   3.342   8.032 -1.3103  1.5387  0.0058
   79SLPC  C314 7327   6.950   3.305   8.193  0.5374 -0.7862 -0.3011
   79SLPC  H14X 7328   6.860   3.245   8.216  0.2921 -0.6517 -0.9002
   79SLPC  H14Y 7329   6.921   3.412   8.206 -0.6567 -1.3447  2.2420
   79SLPC  C315 7330   7.063   3.277   8.298  0.1196 -0.3459  0.6337
   79SLPC  H15X 7331   7.153   3.335   8.268  0.6677 -1.0901  0.8173
   79SLPC  H15Y 7332   7.086   3.169   8.288 -0.9944 -0.6289  1.0416
   79SLPC  C316 7333   7.010   3.311   8.437  0.0935  0.3002  0.4676
   79SLPC  H16X 7334   6.966   3.413   8.448 -0.5759  0.0054  0.5313
   79SLPC  H16Y 7335   7.103   3.309   8.498  0.7389  0.1836 -0.4935
   79SLPC  C317 7336   6.896   3.218   8.487 -0.7473  0.2706  0.1164
   79SLPC  H17X 7337   6.912   3.110   8.468 -0.6866  0.5853 -1.7755
   79SLPC  H17Y 7338   6.812   3.235   8.417  0.6230  0.4088 -1.5624
   79SLPC  C318 7339   6.864   3.247   8.631 -0.0267 -0.0780  0.0777
   79SLPC  H18X 7340   6.863   3.356   8.649  2.4948  0.2843 -1.5133
   79SLPC  H18Y 7341   6.943   3.200   8.694 -0.8440 -0.3466  0.9301
   79SLPC  H18Z 7342   6.762   3.208   8.653 -1.2843  0.3137 -4.1016
   80SLPC     N 7343   5.188   1.293   5.896  0.1490  0.6287  0.7877
   80SLPC   C13 7344   5.298   1.387   5.853  0.9091 -1.5770  0.3609
   80SLPC  H13A 7345   5.299   1.407   5.747  0.2212 -2.3355  0.2014
   80SLPC  H13B 7346   5.277   1.483   5.898  1.0942 -1.2776 -0.1837
   80SLPC  H13C 7347   5.396   1.357   5.888  0.2578 -2.7237  1.3042
   80SLPC   C14 7348   5.223   1.167   5.817 -0.5994 -0.2086  0.6745
   80SLPC  H14A 7349   5.205   1.172   5.710  0.7792 -1.0462  0.3782
   80SLPC  H14B 7350   5.326   1.138   5.830 -1.5541 -4.0407  0.9329
   80SLPC  H14C 7351   5.172   1.079   5.854 -0.1100 -1.0425 -0.5565
   80SLPC   C15 7352   5.054   1.352   5.857 -0.2539  0.4146  0.1159
   80SLPC  H15A 7353   5.030   1.345   5.752 -3.1797 -1.2853  0.7706
   80SLPC  H15B 7354   4.983   1.290   5.910  0.3700  0.3299  0.8642
   80SLPC  H15C 7355   5.046   1.457   5.880  2.0513  1.1205 -1.8643
   80SLPC   C12 7356   5.204   1.275   6.043 -0.2453  0.4870 -0.5323
   80SLPC  H12A 7357   5.180   1.367   6.095  1.8523  2.7255 -3.2002
   80SLPC  H12B 7358   5.307   1.248   6.063 -0.3562  0.0677 -0.5244
   80SLPC   C11 7359   5.122   1.164   6.114  0.4056  0.5843 -0.0388
   80SLPC  H11A 7360   5.155   1.141   6.218 -0.7227 -2.6541 -0.2908
   80SLPC  H11B 7361   5.135   1.068   6.059  2.5872  0.4456  0.6170
   80SLPC     P 7362   4.915   1.287   6.213  0.2260 -0.5156  0.0622
   80SLPC   O13 7363   5.004   1.310   6.331  0.2106 -0.5978 -0.0845
   80SLPC   O14 7364   4.884   1.413   6.140 -0.0527  0.6840 -0.0193
   80SLPC   O12 7365   4.983   1.192   6.110  0.4320 -0.3146 -0.1431
   80SLPC   O11 7366   4.776   1.232   6.262  0.5346 -0.1320  0.0367
   80SLPC    C1 7367   4.732   1.101   6.230  0.3576 -0.7048  0.0010
   80SLPC    HA 7368   4.623   1.106   6.251  0.6309  2.9912  1.2945
   80SLPC    HB 7369   4.743   1.086   6.120 -0.5843  0.0969 -0.2222
   80SLPC    C2 7370   4.787   0.976   6.298 -0.1529 -0.2258  0.3238
   80SLPC    HS 7371   4.705   0.909   6.330 -1.8853  0.9147 -1.5349
   80SLPC   O21 7372   4.868   1.008   6.421 -0.2840  0.0802 -0.3765
   80SLPC   C21 7373   4.799   1.049   6.532 -0.3860 -0.4570  0.9352
   80SLPC   O22 7374   4.680   1.075   6.531  0.3528 -0.4577 -0.2133
   80SLPC   C22 7375   4.896   1.068   6.649 -0.1938 -0.4729 -0.8102
   80SLPC   H2R 7376   4.864   0.992   6.724 -0.7407  0.7629  0.2515
   80SLPC   H2S 7377   5.002   1.060   6.615 -0.0343 -0.9628 -0.2173
   80SLPC    C3 7378   4.873   0.896   6.194 -0.5325  0.1654 -0.1204
   80SLPC    HX 7379   4.950   0.966   6.155 -1.0710  1.8320  1.6090
   80SLPC    HY 7380   4.811   0.868   6.106 -0.2371  0.2387 -0.3532
   80SLPC   O31 7381   4.929   0.776   6.259  0.3471 -0.2664 -0.8458
   80SLPC   C31 7382   5.058   0.769   6.286 -0.8198  0.1586  0.1935
   80SLPC   O32 7383   5.137   0.856   6.269 -0.2572 -0.2348 -0.1412
   80SLPC   C32 7384   5.090   0.633   6.342  0.1611 -0.3510  0.9554
   80SLPC   H2X 7385   5.161   0.590   6.269 -0.3645  0.2340  0.0846
   80SLPC   H2Y 7386   4.994   0.576   6.340 -0.6574  0.9629 -1.3435
   80SLPC   C23 7387   4.874   1.211   6.697 -1.0342 -0.6206 -0.3207
   80SLPC   H3R 7388   4.769   1.242   6.716 -0.9138 -1.2582  1.5981
   80SLPC   H3S 7389   4.924   1.267   6.615  1.6239 -1.0890  0.8554
   80SLPC   C24 7390   4.954   1.246   6.819  0.3499  0.3275  0.1610
   80SLPC   H4R 7391   4.948   1.357   6.818 -2.1691  0.2617 -0.6222
   80SLPC   H4S 7392   5.056   1.208   6.799  0.6747  0.4577  1.4942
   80SLPC   C25 7393   4.893   1.195   6.951 -0.4530 -0.2286 -0.1254
   80SLPC   H5R 7394   4.898   1.085   6.964  1.5134 -0.0197  1.2393
   80SLPC   H5S 7395   4.785   1.224   6.954 -0.4387 -0.2151  0.4904
   80SLPC   C26 7396   4.960   1.250   7.082 -0.0505  0.5817  0.4034
   80SLPC   H6R 7397   4.967   1.361   7.078  2.3228  0.4687 -0.7384
   80SLPC   H6S 7398   5.066   1.217   7.073 -1.0434 -2.4188 -1.7990
   80SLPC   C27 7399   4.907   1.184   7.206  0.3461  0.1588  0.2722
   80SLPC   H7R 7400   4.977   1.208   7.289  0.9905 -0.4626 -0.0861
   80SLPC   H7S 7401   4.898   1.074   7.206  0.7269  0.0815  2.5829
   80SLPC   C28 7402   4.765   1.227   7.263 -0.6394 -0.2328  0.0842
   80SLPC   H8R 7403   4.747   1.178   7.362  0.2347 -1.5124 -0.3645
   80SLPC   H8S 7404   4.692   1.183   7.191  0.9652 -2.0524 -0.5141
   80SLPC   C29 7405   4.746   1.377   7.269 -0.0660  0.1381 -0.1413
   80SLPC   H9R 7406   4.742   1.433   7.175  0.0154  2.6407  1.2666
   80SLPC  C210 7407   4.735   1.455   7.375 -0.0653 -1.5406 -0.3858
   80SLPC  H10R 7408   4.733   1.564   7.357  1.4238 -1.4675 -0.2386
   80SLPC  C211 7409   4.730   1.423   7.522  0.4872  0.4999 -0.2050
   80SLPC  H11R 7410   4.647   1.352   7.542  1.1243  0.0083  0.7995
   80SLPC  H11S 7411   4.696   1.509   7.583  0.1864 -0.7439  1.4641
   80SLPC  C212 7412   4.855   1.348   7.562 -0.0451 -0.0328  0.4443
   80SLPC  H12R 7413   4.928   1.316   7.487 -0.9554 -0.1325 -0.4202
   80SLPC  C213 7414   4.877   1.320   7.693 -0.3617 -0.3436  0.0205
   80SLPC  H13R 7415   4.970   1.266   7.717  0.2488 -0.2812 -2.0399
   80SLPC  C214 7416   4.788   1.344   7.812 -0.0723 -0.8101 -0.0625
   80SLPC  H14R 7417   4.717   1.424   7.782  1.1523 -0.9376 -3.8087
   80SLPC  H14S 7418   4.849   1.391   7.892 -1.1214 -0.5642  0.6114
   80SLPC  C215 7419   4.712   1.221   7.872 -0.4708  0.4519  0.0282
   80SLPC  H15R 7420   4.693   1.233   7.980  0.6315  0.4828  0.2295
   80SLPC  H15S 7421   4.769   1.127   7.856 -0.3017  0.7295 -1.1146
   80SLPC  C216 7422   4.575   1.201   7.794 -0.0494  0.4906  0.3897
   80SLPC  H16R 7423   4.600   1.225   7.688 -0.7500  3.2635  0.7740
   80SLPC  H16S 7424   4.509   1.283   7.831  1.9350  3.2080 -1.5867
   80SLPC  C217 7425   4.494   1.069   7.811  0.4830  0.0504 -0.0280
   80SLPC  H17R 7426   4.564   0.994   7.768 -1.8628 -1.3775 -1.5605
   80SLPC  H17S 7427   4.400   1.067   7.753 -0.8013  1.0523  1.8905
   80SLPC  C218 7428   4.461   1.037   7.955 -0.3675 -0.0384 -0.3123
   80SLPC  H18R 7429   4.396   1.120   7.993 -0.2104 -0.4018  0.8024
   80SLPC  H18S 7430   4.554   1.036   8.016 -0.3926 -0.3367 -0.2797
   80SLPC  H18T 7431   4.411   0.941   7.980  0.7320 -0.4824  0.2362
   80SLPC   C33 7432   5.150   0.645   6.482  0.4025 -0.2265 -0.0030
   80SLPC   H3X 7433   5.247   0.697   6.472 -1.0024  2.6121  0.0820
   80SLPC   H3Y 7434   5.165   0.540   6.515  2.2524 -1.2975 -3.7040
   80SLPC   C34 7435   5.068   0.728   6.590 -0.2458 -0.4919  0.7483
   80SLPC   H4X 7436   4.975   0.677   6.624 -1.6432  0.8278 -0.9441
   80SLPC   H4Y 7437   5.033   0.826   6.551 -1.8052 -0.5936  1.7604
   80SLPC   C35 7438   5.156   0.781   6.706 -0.2430 -0.2756 -0.0816
   80SLPC   H5X 7439   5.095   0.856   6.761 -0.2445  1.0126 -1.7361
   80SLPC   H5Y 7440   5.247   0.835   6.672  0.5148 -1.6783 -0.3793
   80SLPC   C36 7441   5.187   0.667   6.809 -0.3948 -0.4289  0.1138
   80SLPC   H6X 7442   5.247   0.584   6.765  1.0219  0.4860  0.2386
   80SLPC   H6Y 7443   5.092   0.619   6.840 -1.9473  1.6768 -1.1165
   80SLPC   C37 7444   5.268   0.717   6.931  0.2249  0.7497  0.6948
   80SLPC   H7X 7445   5.350   0.784   6.899  0.7166 -0.5094 -0.8326
   80SLPC   H7Y 7446   5.316   0.633   6.987  0.5967 -0.2763 -1.0843
   80SLPC   C38 7447   5.169   0.796   7.017 -0.3984  0.3194 -0.9870
   80SLPC   H8X 7448   5.086   0.731   7.050  0.0853 -0.3309 -1.0341
   80SLPC   H8Y 7449   5.122   0.884   6.970  0.2798  2.6374  2.2957
   80SLPC   C39 7450   5.252   0.849   7.141 -0.3177 -0.1991 -0.3031
   80SLPC   H9X 7451   5.275   0.957   7.128  0.9856 -0.4797 -0.4701
   80SLPC   H9Y 7452   5.346   0.790   7.134 -0.4570 -0.4403 -0.1539
   80SLPC  C310 7453   5.173   0.816   7.264  0.0294 -0.0818 -0.7967
   80SLPC  H10X 7454   5.154   0.706   7.270  1.0038 -0.1950  1.6041
   80SLPC  H10Y 7455   5.072   0.861   7.256  0.7433  2.5815  2.5901
   80SLPC  C311 7456   5.234   0.876   7.394  0.5173 -0.1454  0.5579
   80SLPC  H11X 7457   5.213   0.985   7.400 -1.3082 -0.4700  0.7310
   80SLPC  H11Y 7458   5.343   0.858   7.390  0.7502  1.3106 -1.8755
   80SLPC  C312 7459   5.174   0.818   7.521  0.3640 -0.1702 -0.2217
   80SLPC  H12X 7460   5.181   0.708   7.535 -1.9241 -0.1928  1.2905
   80SLPC  H12Y 7461   5.066   0.844   7.520 -0.1556 -1.3372  4.1597
   80SLPC  C313 7462   5.241   0.890   7.641  0.3348 -0.1338  0.0987
   80SLPC  H13X 7463   5.202   0.843   7.733  0.2516 -0.9161 -0.3235
   80SLPC  H13Y 7464   5.235   1.001   7.637  0.1144 -0.0909  1.3734
   80SLPC  C314 7465   5.394   0.876   7.659  0.9860 -0.8941  0.1708
   80SLPC  H14X 7466   5.459   0.878   7.568 -0.5220 -1.0635 -0.9613
   80SLPC  H14Y 7467   5.400   0.777   7.709 -1.3486 -0.6732  0.9861
   80SLPC  C315 7468   5.457   0.971   7.758  0.3843 -0.0541 -0.2083
   80SLPC  H15X 7469   5.391   0.971   7.848  0.7778  0.0312  0.0845
   80SLPC  H15Y 7470   5.457   1.076   7.724  1.8127  0.1333  0.3228
   80SLPC  C316 7471   5.594   0.937   7.808 -0.2809 -0.2635 -0.2263
   80SLPC  H16X 7472   5.623   1.012   7.885 -1.6021  1.0965 -0.9871
   80SLPC  H16Y 7473   5.666   0.952   7.725  0.8483 -1.7821  0.4376
   80SLPC  C317 7474   5.623   0.795   7.856  0.2484  0.2068  0.0157
   80SLPC  H17X 7475   5.604   0.737   7.763 -1.6269 -0.2535  0.6433
   80SLPC  H17Y 7476   5.545   0.768   7.930 -0.1747 -2.2528 -1.2132
   80SLPC  C318 7477   5.763   0.779   7.911  0.1572  0.2454  0.5428
   80SLPC  H18X 7478   5.785   0.682   7.958 -0.8121  0.6376  1.8496
   80SLPC  H18Y 7479   5.787   0.859   7.984  1.7391  0.4060 -0.1086
   80SLPC  H18Z 7480   5.834   0.793   7.826  1.3565 -0.9788  1.3125
   81SAPS     N 7481   0.007   4.410  10.517  0.2297  0.6855  0.5058
   81SAPS   HN1 7482  -0.032   4.487  10.575  1.3407  1.9824 -0.4171
   81SAPS   HN2 7483   0.096   4.439  10.472 -0.6180 -0.2669 -1.9675
   81SAPS   HN3 7484  -0.063   4.382  10.445  0.4797  0.9391  0.1633
   81SAPS   C12 7485   0.013   4.292  10.607  0.2103  0.5171  0.4118
   81SAPS  H12A 7486   0.042   4.204  10.553 -1.8754 -1.0253  1.6403
   81SAPS   C13 7487   0.118   4.303  10.724  0.0534  0.2165  0.7813
   81SAPS  O13A 7488   0.174   4.408  10.748 -0.1165 -0.3166  0.0978
   81SAPS  O13B 7489   0.141   4.195  10.784  0.0149 -0.1207  0.3877
   81SAPS   C11 7490  -0.121   4.261  10.673 -0.1624  0.2752 -0.1801
   81SAPS  H11A 7491  -0.145   4.339  10.749  2.7011  1.0984  0.0071
   81SAPS  H11B 7492  -0.111   4.163  10.726  2.3698  0.0412 -0.9555
   81SAPS     P 7493  -0.308   4.098  10.568  0.0030 -0.2118 -0.0299
   81SAPS   O13 7494  -0.221   3.985  10.598  0.3408  0.5756 -0.1434
   81SAPS   O14 7495  -0.435   4.106  10.646 -0.7358  0.4203 -0.6022
   81SAPS   O12 7496  -0.224   4.241  10.573  0.9867 -0.0101  0.5047
   81SAPS   O11 7497  -0.360   4.080  10.422 -0.2145 -0.2791 -0.2239
   81SAPS    C1 7498  -0.264   4.071  10.315 -0.3391 -0.2510 -0.8050
   81SAPS    HA 7499  -0.163   4.108  10.343  0.2134 -0.0207 -2.9530
   81SAPS    HB 7500  -0.247   3.966  10.284  0.7635 -0.3223 -0.0263
   81SAPS    C2 7501  -0.307   4.154  10.186  0.0803 -0.1073 -0.3367
   81SAPS    HS 7502  -0.218   4.179  10.125  0.0822 -0.9352 -0.6768
   81SAPS   O21 7503  -0.371   4.274  10.233 -0.0749  0.1789 -0.2299
   81SAPS   C21 7504  -0.304   4.364  10.307  0.5030 -0.0587 -0.0861
   81SAPS   O22 7505  -0.187   4.355  10.332  0.3062  0.5322  0.0902
   81SAPS   C22 7506  -0.396   4.474  10.352 -0.1996 -0.5626 -0.3744
   81SAPS   H2R 7507  -0.475   4.499  10.278 -1.2028  0.3454  0.9407
   81SAPS   H2S 7508  -0.440   4.441  10.449 -0.6626 -0.3850 -0.5192
   81SAPS    C3 7509  -0.400   4.058  10.111  0.7807 -0.2630  0.3951
   81SAPS    HX 7510  -0.459   4.113  10.034  0.5040 -0.5194  0.4205
   81SAPS    HY 7511  -0.475   4.023  10.186  0.7166 -0.1696  0.3756
   81SAPS   O31 7512  -0.326   3.942  10.052  0.2932  0.0819  0.9009
   81SAPS   C31 7513  -0.256   3.978   9.936  0.3861 -0.4245  0.4530
   81SAPS   O32 7514  -0.271   4.088   9.885 -0.0049 -0.1770  0.4865
   81SAPS   C32 7515  -0.170   3.862   9.888  0.3594 -0.2241 -0.2038
   81SAPS   H2X 7516  -0.147   3.802   9.979  1.3236  2.2465  1.2963
   81SAPS   H2Y 7517  -0.075   3.915   9.867  0.3978  0.8782  2.2854
   81SAPS   C23 7518  -0.313   4.607  10.370  0.8795  0.0209 -0.4268
   81SAPS   H3R 7519  -0.233   4.593  10.446  0.8800 -0.8896 -0.5836
   81SAPS   H3S 7520  -0.361   4.692  10.423  1.5877  0.3284 -0.2665
   81SAPS   C24 7521  -0.247   4.653  10.242  0.2901 -0.3179  0.2966
   81SAPS   H4R 7522  -0.263   4.763  10.246 -1.7116 -0.6072  1.5054
   81SAPS   H4S 7523  -0.308   4.626  10.153  0.5446  0.2535 -0.0599
   81SAPS   C25 7524  -0.098   4.629  10.237  0.5494  0.1053  0.1860
   81SAPS   H5R 7525  -0.054   4.638  10.337  2.4689  0.2673 -0.6342
   81SAPS   C26 7526  -0.018   4.585  10.133 -0.3282 -0.1829 -0.5561
   81SAPS   H6R 7527   0.089   4.570  10.151 -0.3998  0.3373  0.3892
   81SAPS   C27 7528  -0.063   4.565   9.992 -0.5457  0.8828  0.0117
   81SAPS   H7R 7529   0.022   4.568   9.920 -0.3580  1.2676  0.2498
   81SAPS   H7S 7530  -0.128   4.644   9.949 -0.2702  1.1972  0.1714
   81SAPS   C28 7531  -0.148   4.438   9.966  0.2529 -0.2093 -0.4124
   81SAPS   H8R 7532  -0.148   4.364  10.048  0.2978  0.1347 -0.1015
   81SAPS   C29 7533  -0.220   4.411   9.860 -0.2995 -0.0862  0.0332
   81SAPS   H9R 7534  -0.279   4.318   9.864  0.7507 -0.7390  1.5031
   81SAPS  C210 7535  -0.229   4.502   9.737 -0.0647  0.1023  0.1095
   81SAPS  H10R 7536  -0.187   4.605   9.743 -0.2797  0.2356 -0.5657
   81SAPS  H10S 7537  -0.337   4.519   9.719 -0.1542  0.1427  0.6628
   81SAPS  C211 7538  -0.178   4.430   9.615  0.2027 -0.4107 -0.6538
   81SAPS  H11R 7539  -0.069   4.445   9.608  0.2666 -0.5873 -0.0779
   81SAPS  C212 7540  -0.244   4.357   9.524  0.0289 -0.4127  0.5022
   81SAPS  H12R 7541  -0.181   4.291   9.463  0.1703  0.5405 -0.4031
   81SAPS  C213 7542  -0.389   4.319   9.527  0.4023  0.0445  0.3663
   81SAPS  H13R 7543  -0.450   4.396   9.474  1.0765 -0.7873 -1.7566
   81SAPS  H13S 7544  -0.426   4.330   9.631  0.9236 -2.7012  0.9102
   81SAPS  C214 7545  -0.423   4.182   9.482 -0.7575  0.2505 -0.3790
   81SAPS  H14R 7546  -0.400   4.109   9.561 -1.3790 -0.0103 -0.4317
   81SAPS  C215 7547  -0.479   4.141   9.362 -0.4337 -0.1519  0.4011
   81SAPS  H15R 7548  -0.510   4.036   9.354  1.7225 -0.7339 -1.4454
   81SAPS  C216 7549  -0.519   4.227   9.246  0.9514 -0.2200  0.5010
   81SAPS  H16R 7550  -0.461   4.322   9.253  2.0698 -0.9934  3.8609
   81SAPS  H16S 7551  -0.628   4.246   9.246  0.5513 -2.0864 -1.9472
   81SAPS  C217 7552  -0.487   4.141   9.116  0.4331  0.0823  0.8969
   81SAPS  H17R 7553  -0.541   4.043   9.114 -0.9376  0.7978  1.5888
   81SAPS  H17S 7554  -0.379   4.114   9.113  0.4119  0.0021 -1.6001
   81SAPS  C218 7555  -0.511   4.222   8.994  0.0847  0.4233 -0.4945
   81SAPS  H18R 7556  -0.465   4.323   8.990 -1.7473  1.3015 -0.4620
   81SAPS  H18S 7557  -0.621   4.240   8.994  0.4187  3.0459  1.1417
   81SAPS  C219 7558  -0.489   4.140   8.868  0.2735  0.2947  0.2113
   81SAPS  H19R 7559  -0.555   4.051   8.858  0.0111  0.6740 -1.9996
   81SAPS  H19S 7560  -0.383   4.107   8.861 -0.2021 -1.0567 -1.3063
   81SAPS  C220 7561  -0.515   4.213   8.732  0.3153  0.3345 -0.2346
   81SAPS  H20R 7562  -0.620   4.247   8.718  0.6616  1.4475 -0.2199
   81SAPS  H20S 7563  -0.490   4.156   8.639  2.6563 -0.3652  0.7498
   81SAPS  H20T 7564  -0.458   4.307   8.734  0.3014  0.3337  0.2335
   81SAPS   C33 7565  -0.236   3.775   9.776 -0.6078 -0.2064  0.3422
   81SAPS   H3X 7566  -0.345   3.768   9.793 -0.4553 -1.7567  0.8369
   81SAPS   H3Y 7567  -0.187   3.675   9.778 -2.6772 -1.2615  1.0767
   81SAPS   C34 7568  -0.219   3.845   9.644 -1.0364  0.5831 -0.3744
   81SAPS   H4X 7569  -0.110   3.865   9.636 -0.3078 -1.9045  1.8681
   81SAPS   H4Y 7570  -0.261   3.947   9.661  0.1440  0.8364  1.3789
   81SAPS   C35 7571  -0.271   3.774   9.528 -0.4186  0.5989  0.3076
   81SAPS   H5X 7572  -0.381   3.762   9.523 -0.3350  0.1554 -0.9354
   81SAPS   H5Y 7573  -0.238   3.668   9.535 -2.1585 -0.1782 -1.9302
   81SAPS   C36 7574  -0.242   3.845   9.393 -0.1669  0.5376 -0.7636
   81SAPS   H6X 7575  -0.138   3.883   9.406  0.0892 -0.2258 -0.4545
   81SAPS   H6Y 7576  -0.310   3.930   9.372  1.4620  1.8352 -0.9652
   81SAPS   C37 7577  -0.238   3.745   9.275 -0.6168  0.3567  0.3479
   81SAPS   H7X 7578  -0.339   3.699   9.272 -1.3641  1.5934  3.3228
   81SAPS   H7Y 7579  -0.162   3.665   9.292 -2.0699 -1.3946 -0.9686
   81SAPS   C38 7580  -0.199   3.807   9.138  0.4274 -0.0410 -0.6951
   81SAPS   H8X 7581  -0.095   3.843   9.152 -0.7873  2.5747  3.5849
   81SAPS   H8Y 7582  -0.265   3.896   9.131 -3.7085 -2.8072 -0.2287
   81SAPS   C39 7583  -0.216   3.714   9.020 -0.0871 -0.8344 -0.1698
   81SAPS   H9X 7584  -0.314   3.662   9.025 -0.8142  0.5925  1.4766
   81SAPS   H9Y 7585  -0.133   3.641   9.016  0.5850 -0.0280 -1.7927
   81SAPS  C310 7586  -0.217   3.799   8.886 -0.3416  0.6387 -0.1568
   81SAPS  H10X 7587  -0.128   3.866   8.883  0.6580 -0.6726 -0.5589
   81SAPS  H10Y 7588  -0.307   3.864   8.886  0.5936  2.0021 -1.1838
   81SAPS  C311 7589  -0.227   3.706   8.762 -0.8176  0.9502  0.4764
   81SAPS  H11X 7590  -0.304   3.631   8.790  0.3811  0.5445  2.8739
   81SAPS  H11Y 7591  -0.130   3.653   8.753 -0.4173  1.9993 -2.3072
   81SAPS  C312 7592  -0.247   3.775   8.628 -0.1655  1.1023 -0.1364
   81SAPS  H12X 7593  -0.163   3.846   8.617 -0.1515  1.0713 -0.2279
   81SAPS  H12Y 7594  -0.343   3.831   8.621 -0.8331  0.3779  2.1546
   81SAPS  C313 7595  -0.270   3.679   8.510  0.7273  0.3722  0.0240
   81SAPS  H13X 7596  -0.375   3.646   8.500  1.1917 -1.2704  0.2082
   81SAPS  H13Y 7597  -0.213   3.584   8.523 -1.1799 -1.0950 -1.5510
   81SAPS  C314 7598  -0.227   3.728   8.370  0.2942 -1.4080  0.4083
   81SAPS  H14X 7599  -0.266   3.656   8.295 -1.3378  1.6093 -1.8643
   81SAPS  H14Y 7600  -0.117   3.734   8.368  0.2968 -0.2045  1.8973
   81SAPS  C315 7601  -0.265   3.877   8.345 -0.7924 -0.0966  0.0180
   81SAPS  H15X 7602  -0.209   3.923   8.260 -0.5243  0.5613  0.5372
   81SAPS  H15Y 7603  -0.238   3.940   8.433 -0.9055  1.1050 -0.7780
   81SAPS  C316 7604  -0.412   3.894   8.330  0.5624 -0.5701  0.2207
   81SAPS  H16X 7605  -0.461   3.848   8.419 -0.1307 -1.4445 -0.5940
   81SAPS  H16Y 7606  -0.456   3.831   8.250  1.5401 -0.1564 -0.6705
   81SAPS  C317 7607  -0.462   4.041   8.322 -0.4615  0.2415  0.4765
   81SAPS  H17X 7608  -0.399   4.089   8.244  0.7229  0.1763  1.3578
   81SAPS  H17Y 7609  -0.434   4.087   8.420 -0.2343  0.6062  0.2417
   81SAPS  C318 7610  -0.612   4.069   8.302  0.4516  0.3448  0.5147
   81SAPS  H18X 7611  -0.672   4.050   8.394  0.2249  0.2552  0.3477
   81SAPS  H18Y 7612  -0.645   3.997   8.224  0.3070  0.6601  0.2813
   81SAPS  H18Z 7613  -0.626   4.175   8.271  0.8686  0.0095 -0.8984
   82SAPS     N 7614   4.776   1.353  10.764  0.4428  0.2406 -0.2404
   82SAPS   HN1 7615   4.732   1.446  10.750 -2.6718 -0.5082  3.1831
   82SAPS   HN2 7616   4.813   1.337  10.860  1.1318  0.6871 -0.4276
   82SAPS   HN3 7617   4.853   1.337  10.696  0.8920  0.2275  0.2642
   82SAPS   C12 7618   4.672   1.245  10.736 -0.9749  0.2174 -0.3039
   82SAPS  H12A 7619   4.726   1.157  10.768  0.7761  0.7998 -1.4921
   82SAPS   C13 7620   4.552   1.259  10.815 -0.3441 -0.2674 -0.1322
   82SAPS  O13A 7621   4.533   1.353  10.894  0.4409 -0.6309  0.3305
   82SAPS  O13B 7622   4.454   1.182  10.793  0.7634  0.1006 -0.2797
   82SAPS   C11 7623   4.645   1.249  10.582  0.2263  0.5497  0.0025
   82SAPS  H11A 7624   4.616   1.354  10.558 -3.3012 -0.8133 -2.5530
   82SAPS  H11B 7625   4.549   1.197  10.563  0.2447  0.6438 -0.3521
   82SAPS     P 7626   4.752   1.056  10.444  0.0216  0.0023 -0.2650
   82SAPS   O13 7627   4.883   1.027  10.379  1.2442  0.4108  0.6639
   82SAPS   O14 7628   4.709   0.976  10.561 -0.0031 -0.2027  0.8288
   82SAPS   O12 7629   4.753   1.205  10.500 -0.1785  0.0935 -0.1469
   82SAPS   O11 7630   4.634   1.051  10.341 -0.0047 -0.2599  0.0991
   82SAPS    C1 7631   4.558   1.161  10.293  0.3654  0.6090 -0.3674
   82SAPS    HA 7632   4.461   1.172  10.345  0.2226 -2.8042  0.3163
   82SAPS    HB 7633   4.600   1.262  10.310 -0.1955  0.6562  0.8553
   82SAPS    C2 7634   4.535   1.155  10.141 -0.0918 -0.2434  0.5723
   82SAPS    HS 7635   4.492   1.254  10.114 -0.0926  0.5419  3.1949
   82SAPS   O21 7636   4.444   1.049  10.104  0.5433  0.4477 -0.1744
   82SAPS   C21 7637   4.332   1.076  10.032  0.7652  0.1697 -0.4565
   82SAPS   O22 7638   4.322   1.178   9.972 -0.0120 -0.6789 -0.1722
   82SAPS   C22 7639   4.223   0.971  10.045 -0.4415  0.2346  0.2890
   82SAPS   H2R 7640   4.216   0.934  10.150  2.2079 -0.5315  0.2726
   82SAPS   H2S 7641   4.136   1.033  10.015  0.2095 -0.3487 -3.1914
   82SAPS    C3 7642   4.665   1.139  10.060 -0.2592 -0.4445  0.1406
   82SAPS    HX 7643   4.728   1.053  10.090  1.3030  0.4987 -0.3004
   82SAPS    HY 7644   4.731   1.226  10.082 -1.8866  0.7881  0.3743
   82SAPS   O31 7645   4.643   1.133   9.922 -0.0739 -0.4259 -0.1781
   82SAPS   C31 7646   4.626   1.248   9.862 -0.2596 -0.2767 -0.2074
   82SAPS   O32 7647   4.619   1.359   9.910  0.4147  0.0049  0.1760
   82SAPS   C32 7648   4.614   1.226   9.713  0.2058 -0.1486  0.4712
   82SAPS   H2X 7649   4.534   1.154   9.684 -0.4915 -0.2409  2.4277
   82SAPS   H2Y 7650   4.712   1.186   9.682  0.0213  0.1727 -0.5831
   82SAPS   C23 7651   4.221   0.850   9.944  0.4783 -0.6170  0.2426
   82SAPS   H3R 7652   4.140   0.776   9.963 -2.1638  1.4816 -2.0252
   82SAPS   H3S 7653   4.325   0.811   9.934  0.8860  0.6182 -0.4925
   82SAPS   C24 7654   4.198   0.909   9.802 -0.1156  0.2348 -0.2527
   82SAPS   H4R 7655   4.279   0.981   9.778  0.0344  0.2958  0.4071
   82SAPS   H4S 7656   4.102   0.964   9.791  0.3850  1.0576 -0.5238
   82SAPS   C25 7657   4.196   0.805   9.699  0.3056  0.0052 -0.2438
   82SAPS   H5R 7658   4.122   0.727   9.721  0.2757  0.1373  0.1327
   82SAPS   C26 7659   4.271   0.790   9.597  0.2924 -0.3960  0.3667
   82SAPS   H6R 7660   4.251   0.715   9.519 -0.1498  1.1028 -0.9983
   82SAPS   C27 7661   4.370   0.892   9.556  0.0491 -0.0397 -0.5356
   82SAPS   H7R 7662   4.352   0.997   9.588 -0.1829 -0.4372  0.7059
   82SAPS   H7S 7663   4.379   0.890   9.446  0.2860  2.3447 -0.5992
   82SAPS   C28 7664   4.505   0.871   9.628  0.2715  0.0628  0.1162
   82SAPS   H8R 7665   4.491   0.859   9.736 -0.9673  1.4046  0.1461
   82SAPS   C29 7666   4.629   0.884   9.579 -0.1288  0.3878 -0.4450
   82SAPS   H9R 7667   4.713   0.845   9.638 -0.9572 -0.3066  0.2968
   82SAPS  C210 7668   4.670   0.919   9.445 -0.4104 -0.3271 -0.0016
   82SAPS  H10R 7669   4.581   0.965   9.396 -1.0172 -2.1646 -0.7309
   82SAPS  H10S 7670   4.690   0.824   9.390  1.8787 -0.8213  1.5306
   82SAPS  C211 7671   4.793   1.001   9.424  0.7302  0.0225  0.5458
   82SAPS  H11R 7672   4.855   1.010   9.515  2.4618 -1.9586 -0.3348
   82SAPS  C212 7673   4.856   1.025   9.302  0.7385  0.5543  0.6140
   82SAPS  H12R 7674   4.953   1.076   9.308 -0.5850  3.1667  1.8552
   82SAPS  C213 7675   4.794   0.995   9.166  0.2784  0.3595 -0.9657
   82SAPS  H13R 7676   4.785   1.084   9.100 -1.7176 -0.4184 -1.8314
   82SAPS  H13S 7677   4.690   0.956   9.177  0.6503 -0.7586 -1.2660
   82SAPS  C214 7678   4.860   0.889   9.085 -0.2940 -0.1204 -0.0790
   82SAPS  H14R 7679   4.969   0.895   9.100 -0.1263 -0.1785 -1.1448
   82SAPS  C215 7680   4.792   0.792   9.016 -0.7304  1.1358  0.7732
   82SAPS  H15R 7681   4.856   0.727   8.954 -0.5431  1.7743  0.2872
   82SAPS  C216 7682   4.641   0.772   9.004  0.2246 -0.7967  0.4201
   82SAPS  H16R 7683   4.584   0.832   9.077  0.5034  0.1282 -0.1117
   82SAPS  H16S 7684   4.608   0.666   9.006  0.6869 -0.9503  0.0449
   82SAPS  C217 7685   4.582   0.833   8.868  0.6698 -0.2381 -0.3898
   82SAPS  H17R 7686   4.610   0.940   8.877 -1.3456  0.1475  3.7399
   82SAPS  H17S 7687   4.471   0.835   8.873  0.7274  0.5870  2.8562
   82SAPS  C218 7688   4.640   0.758   8.745 -0.0293  0.3457 -0.0114
   82SAPS  H18R 7689   4.618   0.649   8.750  0.8180  0.2218  2.6885
   82SAPS  H18S 7690   4.751   0.755   8.752  0.0544 -0.9037 -1.3046
   82SAPS  C219 7691   4.605   0.827   8.618  0.7258  0.4904 -0.0224
   82SAPS  H19R 7692   4.657   0.792   8.526  0.2373 -2.4830  0.7333
   82SAPS  H19S 7693   4.640   0.930   8.643  2.1527  0.4362 -1.6262
   82SAPS  C220 7694   4.456   0.809   8.590 -0.5602  0.1832  0.7201
   82SAPS  H20R 7695   4.437   0.717   8.529  0.6239 -0.0030  0.6003
   82SAPS  H20S 7696   4.428   0.894   8.524  2.7454 -1.1222 -2.7543
   82SAPS  H20T 7697   4.388   0.816   8.677 -1.7348  1.4235 -0.2460
   82SAPS   C33 7698   4.604   1.359   9.644  0.0149 -0.1237  0.7051
   82SAPS   H3X 7699   4.679   1.430   9.686  1.6971 -1.2636 -0.2685
   82SAPS   H3Y 7700   4.504   1.406   9.654 -0.7030 -1.2694 -0.7290
   82SAPS   C34 7701   4.638   1.337   9.498 -0.2176 -0.0677  0.0424
   82SAPS   H4X 7702   4.741   1.302   9.478 -1.4435 -4.1880  0.0229
   82SAPS   H4Y 7703   4.637   1.433   9.441  2.1635 -0.7580 -1.2865
   82SAPS   C35 7704   4.528   1.251   9.425 -0.0856  0.5931  0.6511
   82SAPS   H5X 7705   4.430   1.299   9.448 -0.4405  0.4125 -0.4037
   82SAPS   H5Y 7706   4.520   1.149   9.469 -3.5967  1.0162  1.3305
   82SAPS   C36 7707   4.560   1.249   9.277 -0.7165 -0.2062 -0.0980
   82SAPS   H6X 7708   4.651   1.188   9.260  0.6013  1.5102  0.5297
   82SAPS   H6Y 7709   4.583   1.348   9.233  1.1120 -1.0673 -1.1672
   82SAPS   C37 7710   4.445   1.192   9.193 -0.0867  0.8472  0.1493
   82SAPS   H7X 7711   4.351   1.249   9.211 -0.8616 -0.4913  0.4964
   82SAPS   H7Y 7712   4.427   1.089   9.232 -0.3045 -0.1084 -2.2783
   82SAPS   C38 7713   4.472   1.184   9.042  0.3874 -0.1686  0.1372
   82SAPS   H8X 7714   4.567   1.130   9.019  1.5233  1.8243 -0.0141
   82SAPS   H8Y 7715   4.478   1.289   9.006 -1.6325  0.3224  1.1441
   82SAPS   C39 7716   4.367   1.101   8.970 -0.0710  0.3214  0.3740
   82SAPS   H9X 7717   4.264   1.127   9.005  0.0506  0.8730  0.3379
   82SAPS   H9Y 7718   4.391   0.997   8.997  2.1849  0.5646 -0.4740
   82SAPS  C310 7719   4.377   1.120   8.813  0.7952 -0.9078  0.4381
   82SAPS  H10X 7720   4.478   1.102   8.770  0.6281  0.1445 -0.4396
   82SAPS  H10Y 7721   4.360   1.230   8.810  1.8740 -0.7295  0.4233
   82SAPS  C311 7722   4.257   1.067   8.729  0.5918 -0.3344 -0.7544
   82SAPS  H11X 7723   4.162   1.099   8.776 -0.1334  0.9298 -2.8961
   82SAPS  H11Y 7724   4.263   0.956   8.730 -2.2163 -0.5938  2.0448
   82SAPS  C312 7725   4.249   1.123   8.584 -0.0771 -0.2512  0.2446
   82SAPS  H12X 7726   4.346   1.089   8.541 -0.8848  0.0946 -2.0018
   82SAPS  H12Y 7727   4.230   1.233   8.586 -0.7931 -0.3746  0.6218
   82SAPS  C313 7728   4.135   1.051   8.495  0.2937 -0.2178 -0.3073
   82SAPS  H13X 7729   4.051   1.058   8.567  0.4616 -0.5648 -0.0767
   82SAPS  H13Y 7730   4.164   0.944   8.496  2.2276  0.2380 -1.6658
   82SAPS  C314 7731   4.114   1.104   8.353  0.1763 -0.1845  0.3072
   82SAPS  H14X 7732   4.192   1.074   8.281 -0.4854 -1.2404  0.0131
   82SAPS  H14Y 7733   4.115   1.215   8.368  3.6774 -0.2730  1.6166
   82SAPS  C315 7734   3.983   1.055   8.292 -0.5524  0.5957 -0.5521
   82SAPS  H15X 7735   3.954   1.113   8.201 -1.0878  2.5930  0.8230
   82SAPS  H15Y 7736   3.891   1.081   8.349 -0.6674  0.2564 -0.5764
   82SAPS  C316 7737   3.992   0.919   8.243  0.1811 -0.0758  0.1145
   82SAPS  H16X 7738   4.033   0.850   8.319  0.1043  0.7865  0.9534
   82SAPS  H16Y 7739   4.054   0.914   8.151 -0.5442  0.4265 -0.4188
   82SAPS  C317 7740   3.849   0.868   8.220 -0.0511  0.2364  0.4617
   82SAPS  H17X 7741   3.800   0.952   8.166 -2.2903 -1.2710  0.0083
   82SAPS  H17Y 7742   3.807   0.873   8.322 -0.8068  3.2507  0.1085
   82SAPS  C318 7743   3.839   0.740   8.139  1.0071  0.3495 -0.5836
   82SAPS  H18X 7744   3.876   0.654   8.199 -0.9532 -0.6289 -0.6813
   82SAPS  H18Y 7745   3.895   0.743   8.043 -1.4879 -0.5373 -2.1865
   82SAPS  H18Z 7746   3.730   0.723   8.121  0.6950  1.9431 -0.3012
   83SAPS     N 7747   5.697   2.179  10.810  0.0092 -0.1142  0.2923
   83SAPS   HN1 7748   5.783   2.131  10.842 -0.5198 -0.2169  1.6217
   83SAPS   HN2 7749   5.672   2.157  10.711  0.3286  1.3242 -0.1430
   83SAPS   HN3 7750   5.721   2.280  10.817  1.6302 -0.5495  1.3370
   83SAPS   C12 7751   5.588   2.169  10.903 -0.4261  0.3195 -0.6170
   83SAPS  H12A 7752   5.591   2.077  10.959  0.5922 -0.5427 -2.0273
   83SAPS   C13 7753   5.572   2.288  10.999 -0.7073  0.3680 -0.1369
   83SAPS  O13A 7754   5.653   2.386  11.001 -0.5013  0.8427  0.1464
   83SAPS  O13B 7755   5.480   2.287  11.083  0.6209  0.2457  0.6082
   83SAPS   C11 7756   5.463   2.161  10.814  0.7412 -0.1031 -0.2060
   83SAPS  H11A 7757   5.458   2.250  10.748  1.1616 -1.0151 -1.4928
   83SAPS  H11B 7758   5.371   2.149  10.875  0.9776 -3.8882 -0.3382
   83SAPS     P 7759   5.345   2.000  10.628 -0.2319 -0.0776 -0.1458
   83SAPS   O13 7760   5.406   1.947  10.505 -0.0059 -0.2422 -0.0950
   83SAPS   O14 7761   5.251   1.911  10.699  0.2060 -0.0837 -0.3076
   83SAPS   O12 7762   5.460   2.038  10.734  0.0809 -0.5844  0.3586
   83SAPS   O11 7763   5.277   2.135  10.592  0.3760 -0.1381  0.1998
   83SAPS    C1 7764   5.341   2.232  10.500  0.4689  0.3979  0.0064
   83SAPS    HA 7765   5.342   2.336  10.541 -1.9870  1.6373 -2.7470
   83SAPS    HB 7766   5.449   2.210  10.487  0.5243  1.5112 -1.7198
   83SAPS    C2 7767   5.286   2.237  10.358  0.1543 -0.0001  0.2526
   83SAPS    HS 7768   5.175   2.241  10.358  0.1601  0.1080  0.8350
   83SAPS   O21 7769   5.334   2.120  10.284  0.4787 -0.4412 -0.5084
   83SAPS   C21 7770   5.248   2.015  10.279 -0.0754  0.2921  0.3120
   83SAPS   O22 7771   5.136   2.017  10.324 -0.0137 -0.3116  0.1948
   83SAPS   C22 7772   5.325   1.891  10.206  0.7077 -0.1634 -0.3551
   83SAPS   H2R 7773   5.435   1.904  10.203  0.7858 -0.3960  0.9426
   83SAPS   H2S 7774   5.289   1.807  10.271  0.2440  0.3759  0.1027
   83SAPS    C3 7775   5.321   2.365  10.279  0.1824 -0.3992 -0.2813
   83SAPS    HX 7776   5.421   2.410  10.298  0.1279 -0.3983 -0.0010
   83SAPS    HY 7777   5.256   2.448  10.315  0.0081 -0.3801 -0.6308
   83SAPS   O31 7778   5.311   2.343  10.134 -0.8772  0.2753  0.3046
   83SAPS   C31 7779   5.289   2.461  10.069  0.0706 -0.4148  0.9474
   83SAPS   O32 7780   5.286   2.569  10.121  0.3893 -0.5569 -0.0216
   83SAPS   C32 7781   5.289   2.431   9.920 -0.3470  0.8579  0.0891
   83SAPS   H2X 7782   5.209   2.358   9.898  0.8487  0.2225 -2.6201
   83SAPS   H2Y 7783   5.391   2.391   9.896 -0.3994 -0.6619  2.1418
   83SAPS   C23 7784   5.272   1.853  10.063 -0.0232 -0.1475 -0.8841
   83SAPS   H3R 7785   5.163   1.836  10.073 -0.0751 -0.2541 -1.5771
   83SAPS   H3S 7786   5.325   1.763  10.025  1.2371 -0.4000  1.3115
   83SAPS   C24 7787   5.306   1.963   9.966 -0.3416 -0.3709 -0.0064
   83SAPS   H4R 7788   5.278   2.059  10.014  2.7181  0.4485  0.3295
   83SAPS   H4S 7789   5.251   1.954   9.869 -1.6659  0.3466  0.6497
   83SAPS   C25 7790   5.461   1.984   9.944 -0.1595 -0.4711  0.0174
   83SAPS   H5R 7791   5.515   1.997  10.039  2.5582 -1.6518 -1.2665
   83SAPS   C26 7792   5.532   2.006   9.832 -0.4953  0.8179  0.4140
   83SAPS   H6R 7793   5.640   2.024   9.841 -0.0581 -1.0807 -0.4616
   83SAPS   C27 7794   5.492   2.000   9.687 -0.4573  0.1329 -0.4936
   83SAPS   H7R 7795   5.430   1.909   9.669 -1.2322  1.0918 -3.2978
   83SAPS   H7S 7796   5.583   2.004   9.624 -0.7918  2.1090 -0.9290
   83SAPS   C28 7797   5.404   2.122   9.658  0.0650  0.0296 -0.4142
   83SAPS   H8R 7798   5.342   2.151   9.743  0.2619 -2.7200  0.7527
   83SAPS   C29 7799   5.378   2.174   9.538  0.5412 -0.0564  0.1339
   83SAPS   H9R 7800   5.303   2.254   9.544  0.6332  0.1656 -1.3015
   83SAPS  C210 7801   5.420   2.121   9.410  0.6271 -0.1407 -0.2638
   83SAPS  H10R 7802   5.362   2.171   9.329 -1.4614 -1.5610  0.2703
   83SAPS  H10S 7803   5.384   2.016   9.401  1.7342 -1.1269  4.2747
   83SAPS  C211 7804   5.567   2.132   9.384 -0.6499  0.1019  0.4162
   83SAPS  H11R 7805   5.630   2.118   9.474 -0.6628 -0.8740  0.2923
   83SAPS  C212 7806   5.627   2.189   9.274 -0.1266 -0.3987 -0.0153
   83SAPS  H12R 7807   5.731   2.219   9.297 -0.9735  2.4025  0.4406
   83SAPS  C213 7808   5.573   2.219   9.136 -0.1727 -0.1366 -0.0323
   83SAPS  H13R 7809   5.628   2.303   9.088 -1.4996  0.7079 -0.1119
   83SAPS  H13S 7810   5.469   2.256   9.141  0.0067  0.2650  1.0885
   83SAPS  C214 7811   5.559   2.106   9.033 -0.2536  0.1944 -0.6251
   83SAPS  H14R 7812   5.555   2.004   9.073 -0.4019  1.3739  2.6527
   83SAPS  C215 7813   5.534   2.127   8.907  0.6916 -1.0361  0.1512
   83SAPS  H15R 7814   5.516   2.040   8.840 -0.2699 -0.1104 -0.8439
   83SAPS  C216 7815   5.504   2.264   8.839 -0.5266  0.1408 -0.2312
   83SAPS  H16R 7816   5.472   2.340   8.913 -3.2690 -0.5464 -0.6085
   83SAPS  H16S 7817   5.414   2.256   8.774 -1.8852 -4.1548  1.8437
   83SAPS  C217 7818   5.623   2.307   8.740 -0.2400 -0.0315 -0.0680
   83SAPS  H17R 7819   5.591   2.397   8.683 -0.0052  0.2358  0.2200
   83SAPS  H17S 7820   5.653   2.217   8.683  0.7998 -0.4005  1.0308
   83SAPS  C218 7821   5.751   2.341   8.819 -0.0139 -0.0016 -0.2333
   83SAPS  H18R 7822   5.790   2.249   8.867 -0.9706 -0.0469  0.4827
   83SAPS  H18S 7823   5.726   2.423   8.890 -0.5775  0.1365 -0.5890
   83SAPS  C219 7824   5.856   2.395   8.723  0.0036 -0.5925  0.1181
   83SAPS  H19R 7825   5.806   2.465   8.653 -1.4311 -2.1535 -0.4922
   83SAPS  H19S 7826   5.895   2.305   8.670  1.8050  0.6550 -0.8126
   83SAPS  C220 7827   5.976   2.455   8.795 -0.4507 -0.2268 -0.6114
   83SAPS  H20R 7828   6.039   2.490   8.710  1.5688 -1.7399  0.1817
   83SAPS  H20S 7829   6.037   2.383   8.854  0.5039  0.6072 -0.5298
   83SAPS  H20T 7830   5.940   2.540   8.857 -0.5443 -0.4757 -0.3225
   83SAPS   C33 7831   5.268   2.553   9.826 -0.3806 -0.1103 -0.1063
   83SAPS   H3X 7832   5.346   2.631   9.843 -1.2081  0.7811 -0.3159
   83SAPS   H3Y 7833   5.176   2.597   9.871  0.1104  0.0047  0.8199
   83SAPS   C34 7834   5.254   2.523   9.678  0.1142  0.7688  0.4635
   83SAPS   H4X 7835   5.182   2.439   9.677 -2.2060  2.5202  2.9151
   83SAPS   H4Y 7836   5.349   2.497   9.627  1.3259  0.9420  2.5521
   83SAPS   C35 7837   5.183   2.631   9.597 -0.2146  0.9642  0.6749
   83SAPS   H5X 7838   5.251   2.714   9.568 -0.7328  2.3259  3.1368
   83SAPS   H5Y 7839   5.106   2.666   9.669 -0.8461  2.0120 -0.4687
   83SAPS   C36 7840   5.122   2.572   9.472 -0.1878  0.6154 -0.6425
   83SAPS   H6X 7841   5.067   2.654   9.421 -1.5420  0.3640  0.3694
   83SAPS   H6Y 7842   5.058   2.486   9.500 -1.3664  1.3023 -1.1482
   83SAPS   C37 7843   5.226   2.516   9.371 -0.1585 -0.3409 -0.2321
   83SAPS   H7X 7844   5.161   2.491   9.285  0.3992 -1.7397 -0.2758
   83SAPS   H7Y 7845   5.278   2.425   9.407  0.4271 -0.4766 -1.3558
   83SAPS   C38 7846   5.339   2.608   9.319 -1.5065  0.2915 -0.5015
   83SAPS   H8X 7847   5.426   2.623   9.386 -1.1489  1.4283 -1.1877
   83SAPS   H8Y 7848   5.282   2.703   9.323 -1.1799  0.4412  1.7901
   83SAPS   C39 7849   5.409   2.575   9.177  0.2129 -0.3803  1.0564
   83SAPS   H9X 7850   5.458   2.476   9.193  0.2919 -0.6175 -0.4829
   83SAPS   H9Y 7851   5.479   2.660   9.167 -1.8661  1.5443  1.9146
   83SAPS  C310 7852   5.307   2.555   9.063 -1.2759  0.5247  1.0223
   83SAPS  H10X 7853   5.238   2.473   9.093 -0.6704 -0.3500  0.0571
   83SAPS  H10Y 7854   5.366   2.535   8.972  4.2747  1.7233  3.9264
   83SAPS  C311 7855   5.220   2.686   9.037  0.0231  0.4771 -0.3796
   83SAPS  H11X 7856   5.273   2.781   9.013 -0.2029  0.5294 -0.6794
   83SAPS  H11Y 7857   5.163   2.701   9.132 -1.3856  2.5100 -1.4616
   83SAPS  C312 7858   5.101   2.659   8.948  0.3552 -0.4242  0.3673
   83SAPS  H12X 7859   5.031   2.745   8.953  1.0556  0.2534 -0.9050
   83SAPS  H12Y 7860   5.038   2.581   8.996  1.3794 -0.9573  0.8767
   83SAPS  C313 7861   5.135   2.639   8.805 -0.0861  0.4940 -0.8602
   83SAPS  H13X 7862   5.173   2.537   8.782  1.7314  1.4438 -2.2778
   83SAPS  H13Y 7863   5.217   2.710   8.779 -1.1325  1.8800 -0.4751
   83SAPS  C314 7864   5.022   2.669   8.713  0.3987  0.1786  0.3503
   83SAPS  H14X 7865   4.973   2.766   8.737 -1.5717 -1.0897  1.7528
   83SAPS  H14Y 7866   4.934   2.602   8.729  1.3052 -0.6067  2.2887
   83SAPS  C315 7867   5.059   2.642   8.568  0.0999 -0.8311  1.1477
   83SAPS  H15X 7868   5.071   2.531   8.563 -1.7469 -1.0330  0.5983
   83SAPS  H15Y 7869   5.155   2.683   8.530 -0.2350 -0.9312  0.1898
   83SAPS  C316 7870   4.953   2.684   8.467 -0.3188 -0.9006  0.0808
   83SAPS  H16X 7871   4.948   2.795   8.464  0.1303 -0.8510 -3.2895
   83SAPS  H16Y 7872   4.862   2.635   8.507  0.4675 -1.8003  0.8410
   83SAPS  C317 7873   4.972   2.621   8.329  0.4620  0.7103 -0.1726
   83SAPS  H17X 7874   4.973   2.511   8.341 -1.2469  0.7837  1.1052
   83SAPS  H17Y 7875   5.071   2.651   8.287  1.7194 -1.1069  1.3471
   83SAPS  C318 7876   4.858   2.655   8.236 -1.0108 -0.5778  0.3821
   83SAPS  H18X 7877   4.885   2.626   8.132  0.5877 -0.4722  0.7387
   83SAPS  H18Y 7878   4.860   2.765   8.220 -0.4940 -0.8409 -1.6372
   83SAPS  H18Z 7879   4.764   2.607   8.270 -1.5240 -1.0793 -1.6084
   84SAPS     N 7880   1.390   0.867  10.343  0.4722  0.0896 -0.5675
   84SAPS   HN1 7881   1.487   0.866  10.378  1.0069 -0.5684 -2.0086
   84SAPS   HN2 7882   1.344   0.953  10.380  3.2686  2.7301 -2.6968
   84SAPS   HN3 7883   1.339   0.783  10.377  1.3247  0.3329  1.4315
   84SAPS   C12 7884   1.362   0.862  10.203 -0.1611  0.3519 -0.4844
   84SAPS  H12A 7885   1.444   0.803  10.165  0.5399  1.7579 -1.2249
   84SAPS   C13 7886   1.228   0.788  10.173  0.7084  0.4151 -1.0469
   84SAPS  O13A 7887   1.154   0.749  10.268  0.0442 -0.2189  0.6095
   84SAPS  O13B 7888   1.197   0.758  10.050  0.3635 -0.2627 -0.0604
   84SAPS   C11 7889   1.366   1.005  10.133 -0.2469  0.1581  0.1555
   84SAPS  H11A 7890   1.343   1.000  10.024  1.7379  1.1059 -0.3603
   84SAPS  H11B 7891   1.472   1.038  10.129  0.2903 -1.5753 -0.6022
   84SAPS     P 7892   1.236   1.226  10.121  0.1129 -0.2665 -0.5621
   84SAPS   O13 7893   1.109   1.182  10.063  1.0076  0.7407 -0.2532
   84SAPS   O14 7894   1.221   1.336  10.214 -0.3317  0.2691 -0.3542
   84SAPS   O12 7895   1.297   1.109  10.202 -0.4286 -0.3147 -0.0029
   84SAPS   O11 7896   1.347   1.273  10.012  0.1285  0.1517  0.2574
   84SAPS    C1 7897   1.334   1.397   9.945 -0.2859 -0.2831  0.3927
   84SAPS    HA 7898   1.230   1.434   9.941 -1.3014 -3.0279 -1.1033
   84SAPS    HB 7899   1.397   1.470  10.001  1.1974 -0.1183 -1.3858
   84SAPS    C2 7900   1.371   1.382   9.798 -0.4075 -0.8850  0.0513
   84SAPS    HS 7901   1.348   1.484   9.759  2.0718  0.0324  0.8052
   84SAPS   O21 7902   1.303   1.278   9.721  0.1496  0.0630 -0.6995
   84SAPS   C21 7903   1.173   1.281   9.713  0.1616  0.1058 -0.2393
   84SAPS   O22 7904   1.106   1.377   9.752 -0.3716 -0.0135  0.2202
   84SAPS   C22 7905   1.122   1.144   9.671  0.6332 -0.9745  0.4656
   84SAPS   H2R 7906   1.205   1.085   9.626  1.6372 -0.2221  1.2709
   84SAPS   H2S 7907   1.101   1.089   9.765 -0.1287  0.4147  1.1452
   84SAPS    C3 7908   1.516   1.340   9.770 -0.2287 -0.9758 -0.0926
   84SAPS    HX 7909   1.529   1.235   9.803  0.1515 -1.1275 -0.6988
   84SAPS    HY 7910   1.574   1.407   9.836 -0.7739  0.6185 -1.1741
   84SAPS   O31 7911   1.551   1.355   9.625  0.3151 -0.2883 -0.1328
   84SAPS   C31 7912   1.661   1.297   9.584 -0.7923 -0.6010 -0.2796
   84SAPS   O32 7913   1.742   1.237   9.650  0.4159  0.2042 -0.2250
   84SAPS   C32 7914   1.683   1.323   9.435 -0.1762 -0.2114  0.2842
   84SAPS   H2X 7915   1.670   1.431   9.416  0.0929 -0.3898 -0.9754
   84SAPS   H2Y 7916   1.598   1.270   9.386  1.6332 -3.2588  0.2144
   84SAPS   C23 7917   0.994   1.145   9.590 -0.1245 -0.0490 -0.2555
   84SAPS   H3R 7918   0.913   1.215   9.618 -1.7317 -1.5643 -0.9508
   84SAPS   H3S 7919   0.950   1.045   9.610 -0.1025  0.0529  0.3232
   84SAPS   C24 7920   1.025   1.158   9.441 -0.7285 -0.4973  0.6671
   84SAPS   H4R 7921   1.086   1.067   9.418  0.3359  0.5088 -0.6456
   84SAPS   H4S 7922   1.086   1.248   9.420 -1.3084 -0.1722  0.3580
   84SAPS   C25 7923   0.899   1.138   9.362  0.6215 -0.3328  0.2823
   84SAPS   H5R 7924   0.838   1.049   9.383 -0.1541 -0.0151 -0.5929
   84SAPS   C26 7925   0.854   1.230   9.275 -0.3162 -0.4297  0.2563
   84SAPS   H6R 7926   0.761   1.216   9.217 -0.7434  3.2822 -0.2052
   84SAPS   C27 7927   0.919   1.364   9.245  0.3720 -0.4765 -0.1257
   84SAPS   H7R 7928   0.897   1.401   9.143  0.0688 -0.0096  0.1075
   84SAPS   H7S 7929   1.029   1.350   9.245  0.3659 -0.5756 -1.2783
   84SAPS   C28 7930   0.879   1.472   9.345  0.5934  0.3129  0.4416
   84SAPS   H8R 7931   0.885   1.444   9.451  1.0972  1.8490  0.8540
   84SAPS   C29 7932   0.847   1.604   9.315  0.2925 -0.1734 -1.0078
   84SAPS   H9R 7933   0.826   1.673   9.397 -0.0021  1.2983 -2.2835
   84SAPS  C210 7934   0.837   1.678   9.183 -0.2166  0.6102  0.6614
   84SAPS  H10R 7935   0.817   1.612   9.096  1.9850  0.6519  0.0555
   84SAPS  H10S 7936   0.939   1.710   9.155 -0.9747  0.8743 -2.1229
   84SAPS  C211 7937   0.747   1.798   9.175 -0.3585 -0.5113  0.4139
   84SAPS  H11R 7938   0.709   1.829   9.273 -0.2033  0.0195  0.3119
   84SAPS  C212 7939   0.714   1.855   9.059 -0.2298  0.0078  0.4517
   84SAPS  H12R 7940   0.661   1.951   9.059 -1.3473 -0.5442  2.5808
   84SAPS  C213 7941   0.751   1.813   8.918 -0.2580  0.1992 -0.4911
   84SAPS  H13R 7942   0.669   1.835   8.847 -1.3384  1.7303  1.1322
   84SAPS  H13S 7943   0.761   1.703   8.911 -0.1636  0.1252  0.5833
   84SAPS  C214 7944   0.882   1.870   8.883  0.3154  0.2598 -0.0348
   84SAPS  H14R 7945   0.945   1.885   8.972 -2.5995  1.0025  2.0686
   84SAPS  C215 7946   0.925   1.902   8.758 -0.4055  0.5441 -0.5469
   84SAPS  H15R 7947   1.020   1.955   8.748  0.6895 -1.1659  0.4098
   84SAPS  C216 7948   0.846   1.880   8.627  0.4639 -0.3400 -0.0339
   84SAPS  H16R 7949   0.744   1.837   8.640  0.6768 -1.5712 -2.0134
   84SAPS  H16S 7950   0.900   1.812   8.558 -0.5050  0.5616 -1.7502
   84SAPS  C217 7951   0.819   2.000   8.535  0.4553 -0.1674 -0.3773
   84SAPS  H17R 7952   0.780   2.086   8.592  1.7099  0.6737 -0.7659
   84SAPS  H17S 7953   0.744   1.960   8.462 -1.8251 -0.3655  1.9275
   84SAPS  C218 7954   0.938   2.073   8.466 -0.1433  0.7932  0.5743
   84SAPS  H18R 7955   0.985   1.984   8.420 -0.6470  0.5852  0.4644
   84SAPS  H18S 7956   1.008   2.129   8.532  0.9885  0.3151 -0.2020
   84SAPS  C219 7957   0.895   2.175   8.357 -0.5979 -0.4633  0.1989
   84SAPS  H19R 7958   0.833   2.259   8.394  0.4175  0.7671 -0.8031
   84SAPS  H19S 7959   0.835   2.122   8.280 -0.6747  1.6652 -1.2677
   84SAPS  C220 7960   1.012   2.240   8.271  0.3908 -0.3930  0.3674
   84SAPS  H20R 7961   0.965   2.312   8.200  0.8632  0.0872  0.5342
   84SAPS  H20S 7962   1.053   2.176   8.191 -0.1845  2.7353 -2.7096
   84SAPS  H20T 7963   1.091   2.285   8.334  0.3119 -0.3041  0.4032
   84SAPS   C33 7964   1.812   1.279   9.375 -0.0894 -0.0156 -0.0273
   84SAPS   H3X 7965   1.821   1.171   9.352  2.1222 -0.0387  0.7495
   84SAPS   H3Y 7966   1.898   1.319   9.433 -0.6305 -0.3086  1.0050
   84SAPS   C34 7967   1.822   1.345   9.236 -0.0487 -0.3525 -0.2354
   84SAPS   H4X 7968   1.788   1.450   9.245  0.2571 -0.1221 -1.5274
   84SAPS   H4Y 7969   1.748   1.309   9.162 -2.0903 -0.9107  1.9560
   84SAPS   C35 7970   1.970   1.350   9.187 -1.1735  0.3949 -0.9768
   84SAPS   H5X 7971   2.006   1.250   9.155  0.2679  0.7748 -0.6284
   84SAPS   H5Y 7972   2.027   1.381   9.278 -1.9761 -1.4221  0.1938
   84SAPS   C36 7973   1.984   1.462   9.080 -0.1394  0.1093 -0.1910
   84SAPS   H6X 7974   1.957   1.563   9.119 -0.3830  0.3200 -0.8876
   84SAPS   H6Y 7975   1.898   1.444   9.012 -0.6567  0.1540  0.4471
   84SAPS   C37 7976   2.124   1.463   9.012  0.4446  0.0473  0.1177
   84SAPS   H7X 7977   2.147   1.383   8.938  2.2658  1.7162 -1.2057
   84SAPS   H7Y 7978   2.202   1.484   9.088  1.2622  1.0980 -0.9913
   84SAPS   C38 7979   2.129   1.581   8.910  0.2141 -0.3445  0.2051
   84SAPS   H8X 7980   2.129   1.678   8.966  1.0666 -0.8147  1.0564
   84SAPS   H8Y 7981   2.033   1.568   8.857 -0.8267  0.9243  1.6957
   84SAPS   C39 7982   2.244   1.575   8.804  0.4738  0.2033  0.0525
   84SAPS   H9X 7983   2.221   1.501   8.724  0.7314 -1.8772  1.8086
   84SAPS   H9Y 7984   2.330   1.543   8.867 -0.3887  0.8335  1.6149
   84SAPS  C310 7985   2.275   1.708   8.757 -0.7881 -0.3818  0.2301
   84SAPS  H10X 7986   2.309   1.785   8.830 -0.6063 -0.5895  0.3670
   84SAPS  H10Y 7987   2.193   1.763   8.706 -0.5225  1.4767  1.6773
   84SAPS  C311 7988   2.402   1.703   8.671  0.3947  0.3673  0.0600
   84SAPS  H11X 7989   2.475   1.635   8.720  0.9469  2.3220  2.1158
   84SAPS  H11Y 7990   2.439   1.807   8.661 -1.4421  0.9873 -0.7520
   84SAPS  C312 7991   2.352   1.660   8.533  0.2677  0.2461  0.6908
   84SAPS  H12X 7992   2.262   1.714   8.496  0.6670  0.6467  0.2855
   84SAPS  H12Y 7993   2.310   1.557   8.531  0.4198  0.1306 -2.8792
   84SAPS  C313 7994   2.477   1.669   8.436  0.2365  0.8175 -0.3361
   84SAPS  H13X 7995   2.565   1.615   8.475  1.2010  1.0156 -2.1202
   84SAPS  H13Y 7996   2.517   1.772   8.421 -1.0464  1.5004  0.6580
   84SAPS  C314 7997   2.444   1.608   8.303 -0.0532 -0.1454  0.6527
   84SAPS  H14X 7998   2.517   1.618   8.220  0.1404  0.3599  0.8754
   84SAPS  H14Y 7999   2.350   1.649   8.262  0.6004 -0.5797 -1.3855
   84SAPS  C315 8000   2.404   1.461   8.292  1.0801  0.7981 -0.8248
   84SAPS  H15X 8001   2.307   1.427   8.335  2.8761 -1.3516  1.9049
   84SAPS  H15Y 8002   2.479   1.409   8.355 -0.4961 -1.6875 -0.8832
   84SAPS  C316 8003   2.407   1.406   8.148 -0.5949  0.4870 -0.2333
   84SAPS  H16X 8004   2.514   1.404   8.117 -0.9777 -0.9964 -1.6398
   84SAPS  H16Y 8005   2.345   1.478   8.092 -0.9123  0.9185  0.6583
   84SAPS  C317 8006   2.360   1.266   8.146  0.5044 -0.0680  0.2549
   84SAPS  H17X 8007   2.252   1.260   8.168  0.4927  2.0713  0.9617
   84SAPS  H17Y 8008   2.407   1.214   8.232  0.4622 -2.7252 -1.2123
   84SAPS  C318 8009   2.386   1.196   8.012 -0.0495 -0.1524  0.2767
   84SAPS  H18X 8010   2.336   1.239   7.923  0.4644  0.1411  0.1255
   84SAPS  H18Y 8011   2.357   1.089   8.011  0.4064 -0.3140 -1.9273
   84SAPS  H18Z 8012   2.493   1.188   7.982 -0.7911 -3.4911 -2.0492
   85SAPS     N 8013   2.765   4.193  10.696  0.5966 -0.2836 -0.2718
   85SAPS   HN1 8014   2.665   4.175  10.716  0.5231  0.0974 -0.2860
   85SAPS   HN2 8015   2.762   4.249  10.608  1.2058 -0.8401 -0.6601
   85SAPS   HN3 8016   2.811   4.106  10.661 -0.4633 -0.9990  0.0658
   85SAPS   C12 8017   2.825   4.256  10.816 -0.1031  0.2611 -0.2443
   85SAPS  H12A 8018   2.761   4.341  10.833 -1.2510 -0.6621  0.2246
   85SAPS   C13 8019   2.809   4.167  10.944 -0.3796 -0.0874 -0.6747
   85SAPS  O13A 8020   2.727   4.071  10.940 -0.3996 -0.2331 -0.1565
   85SAPS  O13B 8021   2.833   4.230  11.052 -0.0404  0.3484  0.1953
   85SAPS   C11 8022   2.964   4.308  10.786  0.2908 -0.4825  0.1070
   85SAPS  H11A 8023   3.013   4.338  10.881 -1.0370  0.6359  0.4583
   85SAPS  H11B 8024   2.931   4.399  10.731 -1.0055 -1.4135 -0.7190
   85SAPS     P 8025   3.131   4.283  10.587 -0.0696  0.0232  0.0859
   85SAPS   O13 8026   3.211   4.397  10.633 -0.3509 -0.6704  1.3326
   85SAPS   O14 8027   3.203   4.174  10.518  0.3164 -0.2682 -0.0424
   85SAPS   O12 8028   3.048   4.223  10.710  0.3504  0.1840  0.2957
   85SAPS   O11 8029   3.006   4.327  10.498  0.6487  0.1631  0.0135
   85SAPS    C1 8030   2.983   4.461  10.476 -0.4677  0.2108  0.0114
   85SAPS    HA 8031   2.976   4.515  10.572  1.4151 -1.6498  1.2880
   85SAPS    HB 8032   3.072   4.497  10.419 -0.3920  0.1274  0.0771
   85SAPS    C2 8033   2.849   4.477  10.393 -0.6598 -0.0761 -0.4723
   85SAPS    HS 8034   2.765   4.457  10.463  0.8917  0.3524  1.6106
   85SAPS   O21 8035   2.846   4.382  10.283 -0.7257 -0.6747 -0.5751
   85SAPS   C21 8036   2.797   4.259  10.318 -0.2373 -0.4913  0.4811
   85SAPS   O22 8037   2.751   4.239  10.432  0.3171 -0.0012  0.7677
   85SAPS   C22 8038   2.802   4.155  10.199 -0.3950 -0.1956 -0.4567
   85SAPS   H2R 8039   2.833   4.058  10.243  0.8571  0.8784  1.1386
   85SAPS   H2S 8040   2.697   4.128  10.173 -0.5436 -1.8792  1.5569
   85SAPS    C3 8041   2.846   4.614  10.315  0.5967 -0.0035 -0.0486
   85SAPS    HX 8042   2.843   4.679  10.405  0.2240  0.9135 -0.7083
   85SAPS    HY 8043   2.754   4.627  10.254  0.4771  1.3290  0.3896
   85SAPS   O31 8044   2.957   4.657  10.244 -0.3029  0.3638  0.2822
   85SAPS   C31 8045   2.970   4.602  10.122 -0.3382  0.3205  0.0590
   85SAPS   O32 8046   2.884   4.534  10.066 -0.4483  0.5426 -0.2644
   85SAPS   C32 8047   3.106   4.635  10.064  0.3083 -0.1423  0.5826
   85SAPS   H2X 8048   3.108   4.578   9.969  0.8542  1.0775 -0.1651
   85SAPS   H2Y 8049   3.180   4.587  10.131 -0.9139  1.4746  3.2813
   85SAPS   C23 8050   2.883   4.199  10.081  0.0604  0.2957  0.0403
   85SAPS   H3R 8051   2.988   4.219  10.111  0.2129 -1.0836  0.4892
   85SAPS   H3S 8052   2.840   4.291  10.035  0.1912  1.2640  1.7978
   85SAPS   C24 8053   2.888   4.088   9.969 -0.6186  0.7432 -0.5881
   85SAPS   H4R 8054   2.937   4.132   9.879 -1.0566  1.5856 -0.4290
   85SAPS   H4S 8055   2.784   4.078   9.931 -1.0994 -2.6645  1.2435
   85SAPS   C25 8056   2.952   3.963  10.012 -0.5487  0.2507 -0.2888
   85SAPS   H5R 8057   2.975   3.958  10.120 -1.2037  1.4847 -0.0814
   85SAPS   C26 8058   2.996   3.865   9.931 -0.3523  0.1744 -0.6232
   85SAPS   H6R 8059   3.045   3.773   9.968  0.7465  0.1596 -2.0272
   85SAPS   C27 8060   2.980   3.880   9.780 -0.4223  0.6854  0.1684
   85SAPS   H7R 8061   3.057   3.954   9.750  0.2936  0.3809  1.1987
   85SAPS   H7S 8062   2.883   3.927   9.754 -0.5075  1.7405  2.1819
   85SAPS   C28 8063   2.992   3.760   9.694 -0.4687 -0.3541  0.3513
   85SAPS   H8R 8064   2.899   3.717   9.652  0.3643  0.0161 -2.0218
   85SAPS   C29 8065   3.100   3.694   9.649  0.2957  0.3335  0.0056
   85SAPS   H9R 8066   3.092   3.595   9.602 -0.6827  0.5367 -0.3001
   85SAPS  C210 8067   3.246   3.725   9.672 -0.4994  0.4452  0.1223
   85SAPS  H10R 8068   3.306   3.633   9.686 -0.3539  0.0685 -2.4054
   85SAPS  H10S 8069   3.246   3.792   9.761  0.1655  1.1309 -0.3763
   85SAPS  C211 8070   3.323   3.795   9.564  0.0705 -0.3128  0.3340
   85SAPS  H11R 8071   3.295   3.899   9.546  1.8284  0.3882  1.4483
   85SAPS  C212 8072   3.416   3.745   9.485  0.0853  0.9271 -0.0152
   85SAPS  H12R 8073   3.456   3.822   9.418 -1.0717  1.2385 -0.3675
   85SAPS  C213 8074   3.476   3.601   9.486  0.9302 -1.2005  0.3275
   85SAPS  H13R 8075   3.459   3.567   9.381 -0.8670 -0.0382  0.1930
   85SAPS  H13S 8076   3.422   3.520   9.539 -2.9633 -0.3388 -1.9067
   85SAPS  C214 8077   3.623   3.593   9.515 -0.4956 -0.0506  0.2638
   85SAPS  H14R 8078   3.659   3.671   9.583  1.5252  0.0273 -0.8116
   85SAPS  C215 8079   3.707   3.501   9.460 -0.0868 -0.8165 -0.0916
   85SAPS  H15R 8080   3.811   3.495   9.495  0.3149 -2.6743 -1.4336
   85SAPS  C216 8081   3.676   3.380   9.382 -0.7469 -0.4336  0.3540
   85SAPS  H16R 8082   3.570   3.350   9.398 -1.1413 -0.1146 -1.4051
   85SAPS  H16S 8083   3.735   3.297   9.426  0.1899  0.4990  0.8885
   85SAPS  C217 8084   3.696   3.389   9.226 -0.1535 -0.2868 -0.2758
   85SAPS  H17R 8085   3.801   3.415   9.202  0.3190 -0.5740  1.3682
   85SAPS  H17S 8086   3.631   3.471   9.189 -0.4705 -0.6351 -0.4860
   85SAPS  C218 8087   3.639   3.269   9.155  0.2531 -0.3096 -0.0962
   85SAPS  H18R 8088   3.536   3.246   9.188  0.9006 -2.3544  0.6474
   85SAPS  H18S 8089   3.709   3.185   9.179  0.7901 -0.5734 -2.3848
   85SAPS  C219 8090   3.640   3.271   9.000  0.8656 -0.0807  0.1106
   85SAPS  H19R 8091   3.570   3.347   8.958 -0.2474 -0.2731  1.5398
   85SAPS  H19S 8092   3.605   3.175   8.956 -0.2300  0.5255 -0.4077
   85SAPS  C220 8093   3.774   3.304   8.940  0.0955 -1.0859  0.2530
   85SAPS  H20R 8094   3.845   3.231   8.986 -0.9392 -1.4865  1.2623
   85SAPS  H20S 8095   3.809   3.407   8.964 -3.3245  0.2941 -0.1762
   85SAPS  H20T 8096   3.767   3.289   8.830  0.6904 -1.4882  0.2593
   85SAPS   C33 8097   3.138   4.786  10.045  0.0862  0.2229  0.6471
   85SAPS   H3X 8098   3.199   4.832  10.126 -0.3271  1.3176  0.3639
   85SAPS   H3Y 8099   3.045   4.848  10.039  0.5581  0.8065 -1.1853
   85SAPS   C34 8100   3.226   4.808   9.925 -1.1270  0.0414  0.1252
   85SAPS   H4X 8101   3.320   4.754   9.951  0.2472  2.7462  1.2439
   85SAPS   H4Y 8102   3.265   4.911   9.915  0.2213 -0.4624 -0.0358
   85SAPS   C35 8103   3.178   4.751   9.789  0.1474 -0.5125  0.1271
   85SAPS   H5X 8104   3.109   4.822   9.740  1.0814 -1.1972 -2.3214
   85SAPS   H5Y 8105   3.132   4.650   9.789  3.2750 -2.0690 -0.8626
   85SAPS   C36 8106   3.300   4.740   9.697 -0.3127  0.1501 -0.4453
   85SAPS   H6X 8107   3.369   4.667   9.745 -1.0287 -1.7783 -2.1953
   85SAPS   H6Y 8108   3.352   4.838   9.701 -0.2976  0.1106  0.6309
   85SAPS   C37 8109   3.268   4.694   9.555 -0.2381  0.6192  0.1811
   85SAPS   H7X 8110   3.176   4.633   9.567 -0.1610  0.6624  1.0429
   85SAPS   H7Y 8111   3.341   4.621   9.513 -0.8241 -0.8034  1.5310
   85SAPS   C38 8112   3.254   4.800   9.454  0.2197  0.1266  0.2430
   85SAPS   H8X 8113   3.328   4.881   9.471  0.5633  0.1872 -1.4150
   85SAPS   H8Y 8114   3.153   4.839   9.477  0.1668 -0.4860  1.1184
   85SAPS   C39 8115   3.258   4.755   9.306  0.0330  0.1162  0.0120
   85SAPS   H9X 8116   3.210   4.839   9.252  1.4861 -0.0126 -1.5887
   85SAPS   H9Y 8117   3.209   4.659   9.279  1.0507 -0.0720 -1.2897
   85SAPS  C310 8118   3.394   4.747   9.241  0.0016 -0.1273  0.4644
   85SAPS  H10X 8119   3.452   4.663   9.285 -0.8559 -1.4054 -0.7605
   85SAPS  H10Y 8120   3.457   4.836   9.262 -0.1117  0.2916 -0.8574
   85SAPS  C311 8121   3.380   4.733   9.085  0.0207  0.2030 -0.0138
   85SAPS  H11X 8122   3.307   4.653   9.059  0.0164 -0.2341  1.2289
   85SAPS  H11Y 8123   3.477   4.691   9.051 -0.0609  1.2641 -1.6592
   85SAPS  C312 8124   3.365   4.870   9.016  1.7466  0.3071  0.8914
   85SAPS  H12X 8125   3.455   4.928   9.043  2.0686 -0.8324  2.3568
   85SAPS  H12Y 8126   3.283   4.933   9.057  1.0819  2.8831 -3.6563
   85SAPS  C313 8127   3.349   4.873   8.863 -0.5227  0.7117 -0.3139
   85SAPS  H13X 8128   3.439   4.840   8.807 -0.3667  1.4199 -0.4908
   85SAPS  H13Y 8129   3.348   4.977   8.823  1.5244  1.1990  0.7694
   85SAPS  C314 8130   3.233   4.785   8.817  0.7151  0.3064  0.0382
   85SAPS  H14X 8131   3.145   4.820   8.876  0.1288  1.3804 -1.4145
   85SAPS  H14Y 8132   3.254   4.676   8.829  0.9051  0.3492  0.0856
   85SAPS  C315 8133   3.199   4.798   8.666 -0.1066 -0.2536 -0.4539
   85SAPS  H15X 8134   3.186   4.906   8.642  0.7280  0.2821  1.3336
   85SAPS  H15Y 8135   3.098   4.755   8.645 -1.6330  2.3825  0.8614
   85SAPS  C316 8136   3.317   4.747   8.572  0.2805 -0.0079  0.1575
   85SAPS  H16X 8137   3.409   4.806   8.590 -0.8867  2.8188 -2.3996
   85SAPS  H16Y 8138   3.287   4.758   8.466 -0.5696  1.1290  0.4915
   85SAPS  C317 8139   3.362   4.599   8.608 -0.3483  0.3971  0.4421
   85SAPS  H17X 8140   3.265   4.545   8.612 -1.2530  2.0699  1.6050
   85SAPS  H17Y 8141   3.405   4.612   8.709 -0.0513 -0.0919  0.3858
   85SAPS  C318 8142   3.459   4.526   8.510 -0.1855 -0.5805 -0.1224
   85SAPS  H18X 8143   3.557   4.580   8.511 -0.9487  0.8560  1.4801
   85SAPS  H18Y 8144   3.419   4.534   8.407 -0.7816  2.1850  0.2413
   85SAPS  H18Z 8145   3.478   4.420   8.537 -1.2941 -0.4247  1.4481
   86SAPS     N 8146   0.060   2.477  10.630 -0.3522 -0.3229 -0.0213
   86SAPS   HN1 8147  -0.035   2.440  10.611 -1.0119  1.4572 -0.4487
   86SAPS   HN2 8148   0.065   2.546  10.552 -2.2957 -1.0344 -0.8114
   86SAPS   HN3 8149   0.142   2.418  10.605 -0.3874 -1.7074  2.7608
   86SAPS   C12 8150   0.078   2.545  10.760 -0.5470  0.0683  0.1738
   86SAPS  H12A 8151   0.000   2.619  10.769  0.5948  1.3625 -0.2543
   86SAPS   C13 8152   0.072   2.445  10.879 -0.2177  0.1013 -0.0764
   86SAPS  O13A 8153   0.022   2.329  10.859 -0.1605  0.5845 -0.0014
   86SAPS  O13B 8154   0.066   2.504  10.990 -0.3404  0.0704 -0.4977
   86SAPS   C11 8155   0.221   2.605  10.763 -0.7368 -0.4574  0.1068
   86SAPS  H11A 8156   0.290   2.518  10.764 -1.4300 -1.0454 -1.2455
   86SAPS  H11B 8157   0.237   2.668  10.853 -2.0273 -0.1201  0.1302
   86SAPS     P 8158   0.341   2.804  10.644 -0.1866 -0.4010  0.4943
   86SAPS   O13 8159   0.263   2.919  10.691 -0.0432  0.4264 -0.4783
   86SAPS   O14 8160   0.452   2.768  10.734  0.8325 -0.5665  0.2440
   86SAPS   O12 8161   0.243   2.682  10.639  0.1591 -0.7862  0.2680
   86SAPS   O11 8162   0.389   2.815  10.491  0.8725 -0.3557 -0.2566
   86SAPS    C1 8163   0.296   2.848  10.386  0.5821  0.9772  0.9640
   86SAPS    HA 8164   0.201   2.791  10.400  1.1801  0.1457  1.7432
   86SAPS    HB 8165   0.255   2.952  10.382  2.7631  1.8824  0.7556
   86SAPS    C2 8166   0.362   2.812  10.247  0.5609  0.5692 -0.2787
   86SAPS    HS 8167   0.428   2.896  10.216  0.3560  0.3751 -1.2861
   86SAPS   O21 8168   0.266   2.771  10.142 -0.2417 -0.4156 -0.2467
   86SAPS   C21 8169   0.217   2.878  10.071 -0.8569  0.6450  0.1086
   86SAPS   O22 8170   0.234   2.995  10.099  0.2788  0.4817  0.2268
   86SAPS   C22 8171   0.117   2.825   9.969 -0.2897  0.3608  0.2164
   86SAPS   H2R 8172   0.186   2.753   9.921 -1.6580  0.3885 -1.9295
   86SAPS   H2S 8173   0.031   2.780  10.024 -1.9375  0.7627 -1.8935
   86SAPS    C3 8174   0.450   2.682  10.266 -0.0033  0.7162 -0.0646
   86SAPS    HX 8175   0.403   2.620  10.345  1.7921  0.8243  1.1268
   86SAPS    HY 8176   0.541   2.719  10.318 -0.5808  0.6405  1.0303
   86SAPS   O31 8177   0.470   2.595  10.151  0.5087 -0.1256 -0.3547
   86SAPS   C31 8178   0.541   2.654  10.058  0.1600 -0.4057 -0.1524
   86SAPS   O32 8179   0.574   2.772  10.053  0.1170  0.1003 -0.1098
   86SAPS   C32 8180   0.583   2.543   9.970  0.5846 -0.5250  0.4095
   86SAPS   H2X 8181   0.505   2.464   9.973  0.5262 -0.4551  0.8574
   86SAPS   H2Y 8182   0.678   2.515  10.022  2.2695  1.0110 -1.6293
   86SAPS   C23 8183   0.076   2.928   9.860 -0.1270 -0.1351  0.7074
   86SAPS   H3R 8184   0.168   2.980   9.824  1.1532 -1.7899  1.4865
   86SAPS   H3S 8185   0.009   3.002   9.910 -1.3861 -0.8351  0.0928
   86SAPS   C24 8186   0.010   2.851   9.744  0.5429 -0.3914  0.0364
   86SAPS   H4R 8187  -0.061   2.922   9.697  0.9112  0.2315  0.4024
   86SAPS   H4S 8188  -0.057   2.772   9.782 -1.3637  1.5999  1.0295
   86SAPS   C25 8189   0.100   2.801   9.634 -0.5425  0.8101  0.2943
   86SAPS   H5R 8190   0.158   2.713   9.667 -0.4103  0.9557  0.4526
   86SAPS   C26 8191   0.086   2.828   9.500  0.5247  1.1641 -0.5674
   86SAPS   H6R 8192   0.166   2.791   9.435  3.8279  1.0944  3.1311
   86SAPS   C27 8193  -0.005   2.936   9.441 -0.3762  0.0410 -0.6721
   86SAPS   H7R 8194  -0.103   2.946   9.493  0.1412 -0.5664  0.4594
   86SAPS   H7S 8195  -0.025   2.912   9.334  1.1549 -0.5501 -0.8429
   86SAPS   C28 8196   0.074   3.061   9.436  0.1264  0.0213  0.3453
   86SAPS   H8R 8197   0.064   3.124   9.526  1.0461 -0.5356  0.8524
   86SAPS   C29 8198   0.170   3.102   9.348  0.2158  0.1025  0.3760
   86SAPS   H9R 8199   0.222   3.198   9.362 -1.1764  0.7261  1.4676
   86SAPS  C210 8200   0.190   3.035   9.216 -0.4929 -0.2158  0.2342
   86SAPS  H10R 8201   0.172   2.926   9.224 -0.0847 -0.1528  4.6027
   86SAPS  H10S 8202   0.300   3.029   9.202  0.1735 -0.5172  4.2944
   86SAPS  C211 8203   0.105   3.110   9.110 -0.6770  0.5885 -0.1639
   86SAPS  H11R 8204   0.083   3.212   9.145  3.0881  1.7000 -0.5950
   86SAPS  C212 8205   0.083   3.059   8.986 -0.4218  0.5011  0.0659
   86SAPS  H12R 8206   0.025   3.118   8.913 -0.2914 -1.1246 -1.4246
   86SAPS  C213 8207   0.132   2.931   8.936 -0.1001  0.4914  0.6494
   86SAPS  H13R 8208   0.186   2.865   9.007 -1.9079 -1.8486 -0.0402
   86SAPS  H13S 8209   0.199   2.956   8.852  0.7531 -0.5472  1.0096
   86SAPS  C214 8210   0.012   2.856   8.875 -1.1057 -0.0440 -0.4412
   86SAPS  H14R 8211  -0.083   2.910   8.875 -1.4516 -0.5874  1.1415
   86SAPS  C215 8212  -0.004   2.725   8.857  0.4030  0.6896 -0.0303
   86SAPS  H15R 8213  -0.098   2.685   8.816  0.2500 -1.2257  2.0316
   86SAPS  C216 8214   0.097   2.621   8.873  0.3090 -0.5022  0.2014
   86SAPS  H16R 8215   0.201   2.659   8.878 -0.8016  2.9703 -0.1596
   86SAPS  H16S 8216   0.101   2.553   8.785 -0.0725 -1.3971  0.8673
   86SAPS  C217 8217   0.045   2.534   8.995  0.0715 -0.2469  0.0908
   86SAPS  H17R 8218   0.106   2.442   9.006 -2.2580 -1.6201  2.8026
   86SAPS  H17S 8219  -0.052   2.493   8.958  0.5796 -0.3275 -1.2309
   86SAPS  C218 8220   0.020   2.605   9.130  0.2640  0.2468 -0.3982
   86SAPS  H18R 8221  -0.064   2.677   9.119  0.7979  0.9216 -0.1983
   86SAPS  H18S 8222   0.111   2.659   9.167  1.1566  0.4768 -2.7654
   86SAPS  C219 8223  -0.024   2.510   9.249 -0.1283  0.0176 -0.3544
   86SAPS  H19R 8224  -0.054   2.582   9.329  0.9547  2.5904 -2.1529
   86SAPS  H19S 8225   0.058   2.452   9.296 -0.2724  0.4071  0.3949
   86SAPS  C220 8226  -0.143   2.419   9.228  1.0469  0.6484 -0.4469
   86SAPS  H20R 8227  -0.226   2.469   9.175 -0.1881 -1.0214 -0.1580
   86SAPS  H20S 8228  -0.188   2.388   9.324  1.5371  1.4006  0.0426
   86SAPS  H20T 8229  -0.115   2.328   9.171 -0.3283  0.6949 -1.2506
   86SAPS   C33 8230   0.621   2.582   9.823  0.5041 -0.4821 -0.0615
   86SAPS   H3X 8231   0.698   2.663   9.822 -0.0783  0.0817 -0.8543
   86SAPS   H3Y 8232   0.527   2.617   9.776  1.3426 -0.0835 -1.4962
   86SAPS   C34 8233   0.668   2.456   9.754 -0.2259 -0.0459  0.8277
   86SAPS   H4X 8234   0.586   2.381   9.760  1.1314 -1.9241 -1.8752
   86SAPS   H4Y 8235   0.754   2.419   9.814  0.6744  2.2615  1.0619
   86SAPS   C35 8236   0.676   2.454   9.602  0.4267 -0.0289 -0.0920
   86SAPS   H5X 8237   0.650   2.351   9.571 -2.3615  0.5148  0.1321
   86SAPS   H5Y 8238   0.771   2.483   9.552 -0.2081  1.9788 -0.2347
   86SAPS   C36 8239   0.568   2.530   9.529 -1.0532 -0.0234 -0.5918
   86SAPS   H6X 8240   0.596   2.637   9.526 -0.6379 -0.0111  1.8909
   86SAPS   H6Y 8241   0.467   2.530   9.576 -0.9277 -2.0034 -0.2301
   86SAPS   C37 8242   0.551   2.477   9.385  0.2335  0.1069 -0.8068
   86SAPS   H7X 8243   0.554   2.366   9.375  1.0287 -0.0802  1.1102
   86SAPS   H7Y 8244   0.639   2.517   9.331  0.0204  4.0483  1.3954
   86SAPS   C38 8245   0.420   2.519   9.318  1.1775 -0.1871 -0.0926
   86SAPS   H8X 8246   0.329   2.493   9.376  0.7290  0.7491 -0.3611
   86SAPS   H8Y 8247   0.417   2.476   9.215 -1.9581 -0.9040  0.1817
   86SAPS   C39 8248   0.403   2.669   9.296  0.2029  0.2734 -0.1798
   86SAPS   H9X 8249   0.422   2.724   9.391  1.1931 -0.8723  0.3135
   86SAPS   H9Y 8250   0.301   2.695   9.262 -0.2359 -0.9434  0.1540
   86SAPS  C310 8251   0.499   2.736   9.200 -1.0950 -0.2132  0.2048
   86SAPS  H10X 8252   0.605   2.715   9.227 -1.1019 -1.5656 -0.7402
   86SAPS  H10Y 8253   0.485   2.846   9.201 -1.3501 -0.2367 -0.4692
   86SAPS  C311 8254   0.489   2.690   9.053  0.1998 -0.0319  0.2654
   86SAPS  H11X 8255   0.380   2.687   9.032 -0.2467  2.2337  1.8868
   86SAPS  H11Y 8256   0.512   2.581   9.057 -0.0242 -0.1152 -0.5157
   86SAPS  C312 8257   0.578   2.756   8.948 -0.1191  0.0170  0.6839
   86SAPS  H12X 8258   0.683   2.732   8.976  0.9046 -0.2795 -2.8607
   86SAPS  H12Y 8259   0.559   2.865   8.954 -1.3775  0.0204 -1.9249
   86SAPS  C313 8260   0.555   2.715   8.797  1.3989 -0.3090 -0.1375
   86SAPS  H13X 8261   0.535   2.605   8.791 -1.8024  0.2347 -1.7614
   86SAPS  H13Y 8262   0.649   2.738   8.742  1.8268  0.5284  0.9286
   86SAPS  C314 8263   0.438   2.800   8.740  0.0542  0.1622 -0.1267
   86SAPS  H14X 8264   0.442   2.907   8.767 -0.3448  0.1652 -0.0762
   86SAPS  H14Y 8265   0.343   2.760   8.782  0.7472  0.5676  1.9647
   86SAPS  C315 8266   0.448   2.796   8.589 -0.0797  0.1669  0.3833
   86SAPS  H15X 8267   0.439   2.694   8.545 -1.6918  0.7627 -0.7593
   86SAPS  H15Y 8268   0.542   2.843   8.553 -0.3401 -0.0222 -0.5713
   86SAPS  C316 8269   0.337   2.881   8.531 -0.6138 -0.1892  0.1320
   86SAPS  H16X 8270   0.340   2.971   8.597  3.0115  0.2186 -0.3856
   86SAPS  H16Y 8271   0.246   2.819   8.539  0.3153 -1.5191  0.7865
   86SAPS  C317 8272   0.359   2.902   8.376 -0.6755 -0.2698  0.0193
   86SAPS  H17X 8273   0.268   2.962   8.353  0.8616  2.8077  1.4674
   86SAPS  H17Y 8274   0.355   2.806   8.320 -0.6253 -0.1345 -0.2177
   86SAPS  C318 8275   0.481   2.994   8.325 -0.2738 -0.2316  0.5877
   86SAPS  H18X 8276   0.579   2.947   8.348 -0.4782 -2.0870 -1.9048
   86SAPS  H18Y 8277   0.472   3.095   8.370 -1.2949 -0.3571  0.7016
   86SAPS  H18Z 8278   0.471   3.014   8.217  0.5051  1.0130  0.7343
   87SAPS     N 8279   0.326   4.592  10.630  0.0167  0.0018  0.1291
   87SAPS   HN1 8280   0.422   4.553  10.639 -0.5428 -1.0753  2.1615
   87SAPS   HN2 8281   0.262   4.523  10.675  1.0387  0.2951  2.1891
   87SAPS   HN3 8282   0.298   4.619  10.534 -0.1908 -3.4500 -0.9046
   87SAPS   C12 8283   0.321   4.707  10.716 -0.1291  0.2546 -0.0537
   87SAPS  H12A 8284   0.285   4.675  10.812 -0.3515 -1.9428 -0.8104
   87SAPS   C13 8285   0.456   4.782  10.734  0.5409 -0.6842 -0.0179
   87SAPS  O13A 8286   0.556   4.762  10.656  0.3954  0.1952 -0.5664
   87SAPS  O13B 8287   0.452   4.888  10.808  0.3478 -0.2450 -0.3361
   87SAPS   C11 8288   0.208   4.810  10.653 -0.7161 -0.0645  0.0143
   87SAPS  H11A 8289   0.256   4.859  10.566  2.3400 -4.7279 -1.2931
   87SAPS  H11B 8290   0.177   4.879  10.735 -0.4884 -0.2742  0.2740
   87SAPS     P 8291  -0.040   4.730  10.696 -0.0119 -0.0143  0.5823
   87SAPS   O13 8292  -0.094   4.601  10.662  0.3502 -0.3070  0.1080
   87SAPS   O14 8293  -0.013   4.764  10.835  0.0184  0.0554 -0.0317
   87SAPS   O12 8294   0.090   4.751  10.604  0.3290  0.0073 -0.9629
   87SAPS   O11 8295  -0.135   4.846  10.649  0.6884 -0.7413 -0.6338
   87SAPS    C1 8296  -0.092   4.929  10.538 -0.7354  0.6690 -0.4579
   87SAPS    HA 8297   0.006   4.979  10.554 -1.0864  0.6490  2.0790
   87SAPS    HB 8298  -0.086   4.867  10.446  1.7760 -1.8203  1.2335
   87SAPS    C2 8299  -0.196   5.044  10.503 -0.0229  0.1251 -0.1939
   87SAPS    HS 8300  -0.203   5.107  10.594  0.1122  0.1470 -0.1982
   87SAPS   O21 8301  -0.316   4.973  10.464  0.0389 -0.0660 -0.2208
   87SAPS   C21 8302  -0.420   5.060  10.466 -0.0725 -0.6198  0.2354
   87SAPS   O22 8303  -0.414   5.176  10.496  0.0216 -0.3652  0.2550
   87SAPS   C22 8304  -0.550   4.977  10.430 -0.0382  0.3303 -0.2525
   87SAPS   H2R 8305  -0.529   4.869  10.416 -3.3900 -1.1572  3.9822
   87SAPS   H2S 8306  -0.622   4.992  10.513  2.1240  2.2266  1.4343
   87SAPS    C3 8307  -0.142   5.135  10.389  0.2670 -0.4883  0.5056
   87SAPS    HX 8308  -0.032   5.139  10.407  0.8104 -1.8748 -2.0515
   87SAPS    HY 8309  -0.182   5.238  10.385 -0.3878 -0.7829 -2.3163
   87SAPS   O31 8310  -0.140   5.073  10.259 -0.3139  0.0215  0.1139
   87SAPS   C31 8311  -0.238   5.095  10.176  1.0794 -0.4990 -0.2258
   87SAPS   O32 8312  -0.325   5.178  10.190 -0.0936  0.4472 -0.0898
   87SAPS   C32 8313  -0.227   5.001  10.056  0.2840 -0.7275  0.5948
   87SAPS   H2X 8314  -0.156   4.915  10.059  0.5888 -0.4590  1.1894
   87SAPS   H2Y 8315  -0.188   5.056   9.968 -2.4614  1.7989  0.8042
   87SAPS   C23 8316  -0.635   5.023  10.306  0.0196 -0.4280 -0.7380
   87SAPS   H3R 8317  -0.575   5.007  10.213  1.9801  0.4415  0.3141
   87SAPS   H3S 8318  -0.662   5.131  10.308 -2.2116 -0.9268 -1.3487
   87SAPS   C24 8319  -0.770   4.951  10.308 -0.4381 -0.5084 -0.0109
   87SAPS   H4R 8320  -0.846   4.996  10.376  0.2372 -1.2363  1.2738
   87SAPS   H4S 8321  -0.748   4.854  10.359  2.1024  1.0520  2.1315
   87SAPS   C25 8322  -0.831   4.924  10.173 -0.9845  0.8603  0.2779
   87SAPS   H5R 8323  -0.902   5.003  10.143  0.3219  2.1024  0.3334
   87SAPS   C26 8324  -0.800   4.829  10.083  0.5152  0.5128 -0.1265
   87SAPS   H6R 8325  -0.855   4.820   9.988  1.1203  1.2547 -0.5487
   87SAPS   C27 8326  -0.681   4.733  10.100  0.6718  0.2980 -0.4455
   87SAPS   H7R 8327  -0.618   4.765  10.185 -0.6192  0.7754  0.3627
   87SAPS   H7S 8328  -0.610   4.747  10.016 -0.1540  1.9216 -0.9330
   87SAPS   C28 8329  -0.715   4.589  10.126  0.3085  1.1630  0.7287
   87SAPS   H8R 8330  -0.759   4.566  10.224 -2.9689 -0.6544 -0.9734
   87SAPS   C29 8331  -0.688   4.478  10.048 -0.4824 -0.2236  0.3332
   87SAPS   H9R 8332  -0.718   4.379  10.085  0.0313 -0.0409  1.2730
   87SAPS  C210 8333  -0.617   4.473   9.915  0.2298 -0.6514 -0.4383
   87SAPS  H10R 8334  -0.578   4.371   9.891  0.0608 -0.9329  0.4142
   87SAPS  H10S 8335  -0.531   4.542   9.925 -0.0095 -0.4030 -0.0679
   87SAPS  C211 8336  -0.713   4.511   9.815  0.6093  0.3546 -0.3277
   87SAPS  H11R 8337  -0.753   4.612   9.832  0.0381  0.1267 -0.2879
   87SAPS  C212 8338  -0.763   4.443   9.707 -0.1688 -0.1423 -0.3626
   87SAPS  H12R 8339  -0.848   4.487   9.654 -2.1821 -3.2509  0.0295
   87SAPS  C213 8340  -0.732   4.300   9.663 -0.1808  0.3078  0.3229
   87SAPS  H13R 8341  -0.659   4.251   9.731 -0.7740 -0.4203  0.4437
   87SAPS  H13S 8342  -0.671   4.316   9.571 -0.2946  0.7268  0.3171
   87SAPS  C214 8343  -0.851   4.207   9.631 -0.1519 -0.4955 -0.2757
   87SAPS  H14R 8344  -0.873   4.139   9.714 -1.7943  2.1243  1.6096
   87SAPS  C215 8345  -0.925   4.205   9.521 -0.1718  0.8511 -0.6881
   87SAPS  H15R 8346  -0.999   4.123   9.520  0.3216  0.4016 -1.4527
   87SAPS  C216 8347  -0.909   4.288   9.398  0.2337  0.2417 -0.0564
   87SAPS  H16R 8348  -0.799   4.306   9.397  0.4881 -0.9897  1.6952
   87SAPS  H16S 8349  -0.971   4.381   9.397  0.1715  0.2037  0.1889
   87SAPS  C217 8350  -0.950   4.212   9.273  0.0669 -0.3508 -0.4897
   87SAPS  H17R 8351  -1.056   4.179   9.283 -0.2388  0.9212  0.8658
   87SAPS  H17S 8352  -0.883   4.124   9.268  1.6978  0.3881  3.7223
   87SAPS  C218 8353  -0.922   4.291   9.150  0.0688  0.3179  0.2601
   87SAPS  H18R 8354  -0.824   4.341   9.154  0.9260 -1.3315  1.1348
   87SAPS  H18S 8355  -0.995   4.374   9.148  1.2813  1.4921  1.9384
   87SAPS  C219 8356  -0.925   4.212   9.021 -1.0039 -0.4651  0.6411
   87SAPS  H19R 8357  -1.021   4.156   9.016 -1.1490 -0.1473 -0.1603
   87SAPS  H19S 8358  -0.846   4.135   9.015 -2.2863 -1.7462 -0.5182
   87SAPS  C220 8359  -0.911   4.313   8.902 -0.3897 -0.3617 -0.4647
   87SAPS  H20R 8360  -0.921   4.254   8.808 -1.2644 -0.7179 -0.1572
   87SAPS  H20S 8361  -0.807   4.352   8.896 -1.4551  2.8658 -0.3412
   87SAPS  H20T 8362  -0.985   4.396   8.899 -0.8644 -0.6977  0.9560
   87SAPS   C33 8363  -0.366   4.953  10.008 -0.0113  0.0937  0.8419
   87SAPS   H3X 8364  -0.443   5.032   9.998 -0.8380 -0.9856 -2.4116
   87SAPS   H3Y 8365  -0.409   4.897  10.094  2.0361 -0.4846  1.5623
   87SAPS   C34 8366  -0.386   4.865   9.885 -0.3653  0.5672  0.5281
   87SAPS   H4X 8367  -0.416   4.763   9.918 -0.0434  0.2577 -0.1274
   87SAPS   H4Y 8368  -0.291   4.858   9.827 -0.6174 -0.2269  0.1974
   87SAPS   C35 8369  -0.485   4.919   9.781  0.0517  0.5679  0.1739
   87SAPS   H5X 8370  -0.461   5.025   9.760  1.2405  0.6880  1.9033
   87SAPS   H5Y 8371  -0.586   4.923   9.827 -1.0049 -1.3708 -1.7814
   87SAPS   C36 8372  -0.492   4.837   9.651 -0.4814  0.4402  0.1014
   87SAPS   H6X 8373  -0.590   4.843   9.599 -1.0616  0.2049  1.1485
   87SAPS   H6Y 8374  -0.476   4.729   9.671  0.1854  1.0205  3.1189
   87SAPS   C37 8375  -0.383   4.870   9.547  0.1845  0.4282 -1.1036
   87SAPS   H7X 8376  -0.276   4.866   9.577 -0.4539 -0.9760  1.2297
   87SAPS   H7Y 8377  -0.409   4.977   9.533 -1.9976  0.3092  1.3870
   87SAPS   C38 8378  -0.415   4.807   9.412  0.2542 -0.6119  0.1033
   87SAPS   H8X 8379  -0.523   4.815   9.384  0.6827  1.2315 -1.1618
   87SAPS   H8Y 8380  -0.397   4.698   9.419 -1.7118 -0.9100  1.5097
   87SAPS   C39 8381  -0.336   4.869   9.301  0.0832  0.4202 -0.0696
   87SAPS   H9X 8382  -0.227   4.868   9.321 -0.0738  0.2749  0.8168
   87SAPS   H9Y 8383  -0.374   4.972   9.286 -2.5239 -0.0001  2.5689
   87SAPS  C310 8384  -0.353   4.796   9.163 -0.0381  0.2051 -0.1872
   87SAPS  H10X 8385  -0.321   4.690   9.174 -1.1236 -0.1739 -0.5668
   87SAPS  H10Y 8386  -0.279   4.848   9.100 -0.3349 -1.3064 -1.8613
   87SAPS  C311 8387  -0.495   4.803   9.107 -0.6089  0.2241 -0.1756
   87SAPS  H11X 8388  -0.547   4.901   9.099 -0.8444 -0.0279 -2.1667
   87SAPS  H11Y 8389  -0.562   4.756   9.183  0.8576  1.1915  1.7996
   87SAPS  C312 8390  -0.514   4.720   8.977 -0.4151  0.4205 -0.0873
   87SAPS  H12X 8391  -0.619   4.686   8.966  0.4799 -2.7429  0.1096
   87SAPS  H12Y 8392  -0.454   4.629   9.002  0.2583  0.8906  0.0374
   87SAPS  C313 8393  -0.463   4.786   8.852  0.8751 -0.0489  0.2128
   87SAPS  H13X 8394  -0.359   4.827   8.854  0.5020  1.1736 -2.2690
   87SAPS  H13Y 8395  -0.525   4.877   8.843 -2.6718 -1.9025  3.2629
   87SAPS  C314 8396  -0.463   4.705   8.716 -0.4171 -0.0602 -0.4280
   87SAPS  H14X 8397  -0.400   4.616   8.738  1.1330  0.2272 -3.2244
   87SAPS  H14Y 8398  -0.438   4.758   8.622 -2.6231 -1.9291 -2.1740
   87SAPS  C315 8399  -0.599   4.641   8.683 -0.2325 -0.2059  0.3759
   87SAPS  H15X 8400  -0.678   4.719   8.680  0.5696  0.6834  1.2729
   87SAPS  H15Y 8401  -0.623   4.570   8.765  2.8944 -1.5177  0.2890
   87SAPS  C316 8402  -0.601   4.563   8.553 -0.9209 -0.5988 -0.1658
   87SAPS  H16X 8403  -0.533   4.475   8.553 -2.1582 -1.6103 -1.5751
   87SAPS  H16Y 8404  -0.578   4.626   8.465 -0.0569 -0.9443 -0.1954
   87SAPS  C317 8405  -0.739   4.509   8.543 -0.7350 -0.2197  0.5211
   87SAPS  H17X 8406  -0.810   4.593   8.556  0.9884  0.9183  3.3024
   87SAPS  H17Y 8407  -0.759   4.435   8.624 -0.0962 -0.7420  0.2087
   87SAPS  C318 8408  -0.759   4.435   8.408  0.1953 -0.3406  0.6423
   87SAPS  H18X 8409  -0.741   4.502   8.321  1.5193 -0.0421  1.1293
   87SAPS  H18Y 8410  -0.862   4.394   8.401  0.7610 -2.1534  1.9834
   87SAPS  H18Z 8411  -0.693   4.345   8.406 -2.2637 -2.2901  1.9127
   88SAPS     N 8412   4.631   3.438  10.744  0.1815  0.4908  0.1111
   88SAPS   HN1 8413   4.683   3.357  10.704 -0.4680  0.1905 -0.1417
   88SAPS   HN2 8414   4.531   3.438  10.715  0.5017 -1.8126 -1.2416
   88SAPS   HN3 8415   4.688   3.514  10.701 -1.0332  2.1547  1.3248
   88SAPS   C12 8416   4.641   3.426  10.893  0.1640 -0.8259 -0.5458
   88SAPS  H12A 8417   4.542   3.451  10.928  0.9244  0.6379  0.6480
   88SAPS   C13 8418   4.657   3.281  10.932  0.1464  0.0065 -0.2353
   88SAPS  O13A 8419   4.693   3.201  10.840  0.3261 -0.2272 -0.4213
   88SAPS  O13B 8420   4.627   3.243  11.046  0.1560 -0.2101 -0.2157
   88SAPS   C11 8421   4.756   3.511  10.951 -0.1422 -1.6918 -0.1364
   88SAPS  H11A 8422   4.854   3.465  10.929 -0.6124 -2.3308 -0.9664
   88SAPS  H11B 8423   4.749   3.516  11.062  1.6585 -1.1130 -0.0211
   88SAPS     P 8424   4.844   3.721  10.817  0.5121  0.6488 -0.0927
   88SAPS   O13 8425   4.808   3.856  10.787  0.2508 -0.1908 -0.0948
   88SAPS   O14 8426   4.982   3.688  10.857  0.4285  0.0987  0.6680
   88SAPS   O12 8427   4.742   3.651  10.921 -0.2226 -0.7105  0.1508
   88SAPS   O11 8428   4.815   3.631  10.684  0.1853  0.0857  0.0334
   88SAPS    C1 8429   4.759   3.691  10.564  0.3851 -0.2388 -0.7075
   88SAPS    HA 8430   4.659   3.730  10.594  1.4165  2.1941 -0.2345
   88SAPS    HB 8431   4.812   3.784  10.535 -0.3568  0.4219  0.0017
   88SAPS    C2 8432   4.761   3.599  10.434 -0.3441 -0.0619 -0.0537
   88SAPS    HS 8433   4.680   3.524  10.446 -0.4066  0.0762  0.4095
   88SAPS   O21 8434   4.890   3.535  10.414 -0.3809  0.8498  0.1435
   88SAPS   C21 8435   4.905   3.425  10.484 -0.0248 -0.1076  0.1095
   88SAPS   O22 8436   4.829   3.370  10.561  0.8452  0.0996  0.1010
   88SAPS   C22 8437   5.030   3.359  10.445 -0.0713  0.0481  0.0632
   88SAPS   H2R 8438   5.078   3.402  10.354 -1.8660 -0.7754 -1.3357
   88SAPS   H2S 8439   5.100   3.349  10.531 -1.0606  1.1156  1.0190
   88SAPS    C3 8440   4.728   3.695  10.321  0.3624 -0.8343 -0.3290
   88SAPS    HX 8441   4.807   3.772  10.305 -1.2680  0.5011 -2.6658
   88SAPS    HY 8442   4.641   3.756  10.354 -0.7180 -1.3091 -2.1809
   88SAPS   O31 8443   4.684   3.626  10.204  0.6995  0.1999 -0.4893
   88SAPS   C31 8444   4.769   3.625  10.104 -0.0637 -0.2593  0.7068
   88SAPS   O32 8445   4.873   3.690  10.098 -0.4815 -0.8437  0.3326
   88SAPS   C32 8446   4.700   3.537   9.991 -0.0677 -0.5789  0.7784
   88SAPS   H2X 8447   4.601   3.578   9.959 -0.5764 -2.2433  0.0555
   88SAPS   H2Y 8448   4.679   3.436  10.033 -0.8111 -0.3864  0.8889
   88SAPS   C23 8449   5.010   3.212  10.405 -0.2486  0.6106  0.1850
   88SAPS   H3R 8450   4.970   3.156  10.492  2.0139 -0.4657  0.5917
   88SAPS   H3S 8451   5.110   3.167  10.390  0.1301  1.0323  1.3218
   88SAPS   C24 8452   4.916   3.193  10.281  0.1074  0.0943  0.3259
   88SAPS   H4R 8453   4.818   3.243  10.296 -0.2011 -0.5925  0.6829
   88SAPS   H4S 8454   4.891   3.085  10.293 -0.9504  0.2150 -0.5767
   88SAPS   C25 8455   4.960   3.217  10.142  0.2423 -0.5620  0.2149
   88SAPS   H5R 8456   5.046   3.285  10.143 -1.0170  1.0920  1.3770
   88SAPS   C26 8457   4.937   3.135  10.039 -0.2353 -0.2922  0.1426
   88SAPS   H6R 8458   4.993   3.163   9.948 -0.9715  2.0615  0.3424
   88SAPS   C27 8459   4.853   3.010  10.032  0.1887  0.4131 -0.2190
   88SAPS   H7R 8460   4.814   2.992   9.929 -1.3420 -0.5281  0.4947
   88SAPS   H7S 8461   4.760   3.008  10.092 -0.1720  2.9007 -0.5830
   88SAPS   C28 8462   4.941   2.892  10.076  0.0661 -0.0978  0.0563
   88SAPS   H8R 8463   4.999   2.904  10.169  0.5870  0.5476 -0.3438
   88SAPS   C29 8464   4.947   2.762  10.022 -0.5951 -0.5802  0.1600
   88SAPS   H9R 8465   5.017   2.691  10.066 -0.0023  0.7451  1.4550
   88SAPS  C210 8466   4.852   2.718   9.903  0.3419 -0.3300 -0.5906
   88SAPS  H10R 8467   4.909   2.633   9.861  2.6058  0.4242  0.7953
   88SAPS  H10S 8468   4.835   2.792   9.822  1.4298 -1.5108 -1.9429
   88SAPS  C211 8469   4.715   2.671   9.955  0.0141 -0.3793 -0.3502
   88SAPS  H11R 8470   4.683   2.717  10.049  0.8111 -1.4333  0.4667
   88SAPS  C212 8471   4.629   2.598   9.879 -0.5174 -0.5662  0.3996
   88SAPS  H12R 8472   4.533   2.563   9.918 -1.2614 -0.6942 -1.4613
   88SAPS  C213 8473   4.662   2.537   9.749  0.8567  0.1273  0.6311
   88SAPS  H13R 8474   4.705   2.438   9.773  2.0846  0.5950  0.4129
   88SAPS  H13S 8475   4.740   2.600   9.700 -0.2292  1.2991  0.3320
   88SAPS  C214 8476   4.537   2.501   9.658  0.2017 -0.0156  0.5759
   88SAPS  H14R 8477   4.449   2.560   9.685  0.1135  0.1235 -0.0118
   88SAPS  C215 8478   4.539   2.425   9.543  0.7429  0.0176  0.4563
   88SAPS  H15R 8479   4.446   2.408   9.487 -0.1992  0.1614  1.9244
   88SAPS  C216 8480   4.662   2.353   9.487  0.8427  0.0526  0.3395
   88SAPS  H16R 8481   4.641   2.245   9.495 -0.5232  0.3965  1.7666
   88SAPS  H16S 8482   4.755   2.362   9.547  1.0983 -0.5579  0.0436
   88SAPS  C217 8483   4.702   2.396   9.348 -0.2674  0.1471 -0.1587
   88SAPS  H17R 8484   4.806   2.361   9.334 -0.4845 -0.8812  0.6579
   88SAPS  H17S 8485   4.708   2.505   9.329 -2.5986  0.1624 -1.1385
   88SAPS  C218 8486   4.612   2.338   9.235 -0.0969  0.1425 -0.3344
   88SAPS  H18R 8487   4.513   2.389   9.229 -0.3163 -0.2673 -0.2772
   88SAPS  H18S 8488   4.573   2.242   9.274 -2.0061  0.7017 -0.7652
   88SAPS  C219 8489   4.680   2.334   9.095  0.2843 -1.0017 -0.6890
   88SAPS  H19R 8490   4.761   2.260   9.112  1.3785  0.1474 -0.7934
   88SAPS  H19S 8491   4.727   2.431   9.069  0.9127 -1.1193 -0.0212
   88SAPS  C220 8492   4.586   2.295   8.983  0.5379  0.7151  0.4012
   88SAPS  H20R 8493   4.647   2.298   8.890 -0.0325  2.9805  0.0227
   88SAPS  H20S 8494   4.502   2.365   8.960  0.8850  0.5653 -1.4771
   88SAPS  H20T 8495   4.543   2.193   8.993 -1.0633  1.1519 -1.4378
   88SAPS   C33 8496   4.780   3.516   9.862 -0.0229  0.3348 -0.1030
   88SAPS   H3X 8497   4.878   3.476   9.896 -1.7122 -1.7099  2.9047
   88SAPS   H3Y 8498   4.809   3.613   9.816 -1.3299  1.0676  0.5551
   88SAPS   C34 8499   4.707   3.424   9.763  0.3900  0.5362 -0.1149
   88SAPS   H4X 8500   4.603   3.449   9.732  0.0391  0.2600  0.8367
   88SAPS   H4Y 8501   4.686   3.323   9.804 -2.0252  0.1485 -2.0145
   88SAPS   C35 8502   4.781   3.406   9.630  0.2165 -0.2563  0.5992
   88SAPS   H5X 8503   4.875   3.347   9.634 -0.3164 -1.1525  0.2348
   88SAPS   H5Y 8504   4.803   3.511   9.600  0.2262 -0.9554 -1.9848
   88SAPS   C36 8505   4.693   3.347   9.525  0.1274 -0.2705 -0.2859
   88SAPS   H6X 8506   4.617   3.412   9.476 -0.2105 -1.5960 -1.6009
   88SAPS   H6Y 8507   4.628   3.266   9.565  0.5825 -0.3439  0.3240
   88SAPS   C37 8508   4.776   3.276   9.420 -0.2239  0.4349 -0.0864
   88SAPS   H7X 8509   4.827   3.190   9.470  0.6764 -0.3355 -2.2326
   88SAPS   H7Y 8510   4.845   3.354   9.382 -0.1594 -0.1713 -1.2463
   88SAPS   C38 8511   4.694   3.208   9.309  0.0824  0.1150  0.1430
   88SAPS   H8X 8512   4.605   3.161   9.357  0.4270 -0.8710 -0.1431
   88SAPS   H8Y 8513   4.752   3.133   9.250 -1.2237 -1.3340  0.6069
   88SAPS   C39 8514   4.655   3.297   9.195  0.3113 -0.2003 -0.1824
   88SAPS   H9X 8515   4.740   3.367   9.182 -2.0177  2.5758 -1.6375
   88SAPS   H9Y 8516   4.575   3.362   9.237 -0.9154 -1.3597 -0.6460
   88SAPS  C310 8517   4.599   3.226   9.068  0.2186  0.6333  0.4262
   88SAPS  H10X 8518   4.524   3.147   9.090 -1.6318  2.4076  0.8439
   88SAPS  H10Y 8519   4.685   3.177   9.017 -0.5361 -0.9630  0.6261
   88SAPS  C311 8520   4.537   3.322   8.973  0.1875 -0.3045 -0.2533
   88SAPS  H11X 8521   4.585   3.421   8.952 -2.7109  1.7473  2.0279
   88SAPS  H11Y 8522   4.438   3.346   9.017  0.5106 -1.5143  1.1930
   88SAPS  C312 8523   4.508   3.253   8.839  0.1759  0.5417 -0.0785
   88SAPS  H12X 8524   4.451   3.334   8.789  2.4504  1.7055 -0.9184
   88SAPS  H12Y 8525   4.441   3.166   8.853 -0.9092  1.0374 -1.9154
   88SAPS  C313 8526   4.638   3.232   8.754 -0.3016 -0.0269 -0.0201
   88SAPS  H13X 8527   4.714   3.182   8.817  0.3272 -0.0249 -0.7642
   88SAPS  H13Y 8528   4.688   3.329   8.735 -1.5465  0.3010 -1.9176
   88SAPS  C314 8529   4.604   3.164   8.624 -0.0012  0.2382  0.2646
   88SAPS  H14X 8530   4.524   3.223   8.575 -0.0587 -0.1275 -0.0906
   88SAPS  H14Y 8531   4.569   3.061   8.647  1.0377 -0.1817  0.0554
   88SAPS  C315 8532   4.737   3.141   8.542 -0.3761 -0.0583 -0.0807
   88SAPS  H15X 8533   4.818   3.113   8.612  0.8841  1.2090 -0.9809
   88SAPS  H15Y 8534   4.776   3.239   8.507  0.4625 -0.8736 -1.5153
   88SAPS  C316 8535   4.734   3.031   8.432  0.6567 -0.6516  0.2826
   88SAPS  H16X 8536   4.714   2.928   8.469  4.0611 -1.4303  0.2585
   88SAPS  H16Y 8537   4.834   3.028   8.384 -0.0428  0.9658 -1.3859
   88SAPS  C317 8538   4.650   3.067   8.313  0.6341 -0.2240 -0.0579
   88SAPS  H17X 8539   4.550   3.091   8.354  1.2617  0.5288  1.1089
   88SAPS  H17Y 8540   4.651   2.982   8.241 -2.1743 -0.4791  0.1141
   88SAPS  C318 8541   4.702   3.193   8.242  0.0766  0.4422 -0.1205
   88SAPS  H18X 8542   4.680   3.291   8.290  2.4481  0.5147  0.9692
   88SAPS  H18Y 8543   4.661   3.197   8.139  3.2531 -1.5898 -1.6053
   88SAPS  H18Z 8544   4.813   3.191   8.235  0.0594  0.8586 -0.5536
   89SAPS     N 8545   2.581   6.281  10.325 -0.4845  0.4060 -0.4031
   89SAPS   HN1 8546   2.622   6.288  10.229 -2.8381  3.0268 -1.3210
   89SAPS   HN2 8547   2.651   6.324  10.389 -1.7531  1.7088  0.1414
   89SAPS   HN3 8548   2.584   6.180  10.353  0.5311  0.5001 -0.1156
   89SAPS   C12 8549   2.454   6.350  10.341  0.7349 -0.0572 -0.3193
   89SAPS  H12A 8550   2.402   6.309  10.255  1.1093 -0.5603 -0.3112
   89SAPS   C13 8551   2.364   6.320  10.469 -0.0670  0.2469  0.5682
   89SAPS  O13A 8552   2.400   6.241  10.558  0.0705 -0.1809 -0.3290
   89SAPS  O13B 8553   2.246   6.365  10.462  0.1572  0.3388  0.0804
   89SAPS   C11 8554   2.468   6.505  10.336 -0.4453  0.5014  0.5948
   89SAPS  H11A 8555   2.522   6.531  10.429 -0.0520  1.0069  0.2268
   89SAPS  H11B 8556   2.371   6.561  10.337  0.6726  2.5331  2.0007
   89SAPS     P 8557   2.587   6.701  10.213 -0.1027 -0.3653 -0.0191
   89SAPS   O13 8558   2.565   6.788  10.331 -0.1781  0.1021 -0.6031
   89SAPS   O14 8559   2.723   6.698  10.163 -0.0857 -0.0152  0.2915
   89SAPS   O12 8560   2.546   6.545  10.223 -0.2190  0.3411 -0.1900
   89SAPS   O11 8561   2.499   6.763  10.098  0.1864  1.0312  0.0080
   89SAPS    C1 8562   2.372   6.707  10.062  0.2700 -0.6830  0.3574
   89SAPS    HA 8563   2.310   6.688  10.153  2.1100 -0.0525  1.8203
   89SAPS    HB 8564   2.309   6.778  10.004 -0.0799 -1.6095 -0.4109
   89SAPS    C2 8565   2.378   6.571   9.984  0.7980 -0.9707 -0.2675
   89SAPS    HS 8566   2.435   6.498  10.045  1.5559  1.0066  1.5399
   89SAPS   O21 8567   2.438   6.585   9.852 -0.1554  0.2706 -0.2143
   89SAPS   C21 8568   2.510   6.484   9.814 -0.4828 -0.0396 -0.2399
   89SAPS   O22 8569   2.520   6.376   9.872 -0.8187 -0.0702 -0.2566
   89SAPS   C22 8570   2.595   6.525   9.691  0.1560 -0.2898 -0.0470
   89SAPS   H2R 8571   2.531   6.579   9.618 -1.6386  0.1890  1.7843
   89SAPS   H2S 8572   2.681   6.586   9.726 -0.6198  1.1251 -0.5062
   89SAPS    C3 8573   2.236   6.509   9.964  0.0806 -0.2922 -0.0338
   89SAPS    HX 8574   2.176   6.572   9.896 -0.2362  0.0828  0.5796
   89SAPS    HY 8575   2.187   6.506  10.064 -0.6222 -1.5555 -0.3946
   89SAPS   O31 8576   2.251   6.375   9.915 -0.5013 -0.0730 -0.4942
   89SAPS   C31 8577   2.137   6.318   9.877 -0.0657 -0.5165  0.0849
   89SAPS   O32 8578   2.024   6.348   9.916 -0.0370 -0.4031 -0.7075
   89SAPS   C32 8579   2.180   6.193   9.798  0.3201  0.5678 -0.9987
   89SAPS   H2X 8580   2.109   6.114   9.829  1.7711 -0.5203 -0.3067
   89SAPS   H2Y 8581   2.282   6.165   9.832 -0.3390 -0.3000  0.3494
   89SAPS   C23 8582   2.653   6.399   9.617  0.1316  0.5603  0.2436
   89SAPS   H3R 8583   2.577   6.347   9.556  0.6098 -1.3727  1.2075
   89SAPS   H3S 8584   2.688   6.323   9.691  3.1628  0.4776 -1.1259
   89SAPS   C24 8585   2.771   6.428   9.522  0.4983 -0.4308 -0.6432
   89SAPS   H4R 8586   2.801   6.336   9.467  0.0808 -1.4579  0.7846
   89SAPS   H4S 8587   2.849   6.435   9.600 -0.7115 -0.2668  0.5889
   89SAPS   C25 8588   2.769   6.542   9.430  0.3134 -0.5747 -0.0261
   89SAPS   H5R 8589   2.833   6.627   9.458 -0.0240 -0.8878  1.8231
   89SAPS   C26 8590   2.711   6.543   9.303  0.5810 -0.4514  0.6929
   89SAPS   H6R 8591   2.724   6.632   9.239  2.7061 -1.4868 -0.4247
   89SAPS   C27 8592   2.634   6.429   9.241  0.0109 -1.0046 -0.4853
   89SAPS   H7R 8593   2.528   6.462   9.227  0.0457  0.7139  2.3699
   89SAPS   H7S 8594   2.614   6.357   9.323 -1.5506 -0.5672 -0.4420
   89SAPS   C28 8595   2.692   6.355   9.128 -0.5569  0.4964  0.6822
   89SAPS   H8R 8596   2.744   6.261   9.148 -3.6168 -1.0233  2.2842
   89SAPS   C29 8597   2.678   6.389   8.997 -0.4465  0.1694  0.3454
   89SAPS   H9R 8598   2.739   6.336   8.923  0.2708  0.0499  1.0044
   89SAPS  C210 8599   2.622   6.515   8.943  0.2514 -0.2363  0.5184
   89SAPS  H10R 8600   2.691   6.554   8.865 -0.1890  0.7030  0.5800
   89SAPS  H10S 8601   2.630   6.597   9.017 -2.9990 -1.2771  2.2342
   89SAPS  C211 8602   2.472   6.518   8.906 -1.0849  0.0979 -0.1179
   89SAPS  H11R 8603   2.414   6.520   8.999  1.5521 -0.2619  1.6516
   89SAPS  C212 8604   2.417   6.533   8.787 -0.2621  0.3825 -0.0639
   89SAPS  H12R 8605   2.308   6.549   8.781 -0.1628  0.7570 -1.0698
   89SAPS  C213 8606   2.486   6.534   8.657 -0.3688  0.1185 -0.5421
   89SAPS  H13R 8607   2.594   6.510   8.662 -0.3614  0.3602  0.7933
   89SAPS  H13S 8608   2.471   6.638   8.621 -4.0638 -0.5259 -1.2640
   89SAPS  C214 8609   2.425   6.445   8.560 -0.1551  0.1503  0.7825
   89SAPS  H14R 8610   2.404   6.341   8.586 -2.3077  0.6563  1.2541
   89SAPS  C215 8611   2.395   6.466   8.430  0.0812 -0.1372  0.1647
   89SAPS  H15R 8612   2.344   6.394   8.365 -1.4667  0.9781  0.0816
   89SAPS  C216 8613   2.418   6.594   8.358 -0.5756  0.1824  0.2214
   89SAPS  H16R 8614   2.505   6.579   8.291  0.2459  3.6077  0.3366
   89SAPS  H16S 8615   2.451   6.669   8.434 -1.0598 -0.6228  1.2433
   89SAPS  C217 8616   2.310   6.670   8.291  0.3392 -0.5299  0.5523
   89SAPS  H17R 8617   2.351   6.769   8.264 -2.5616 -0.1514 -3.3415
   89SAPS  H17S 8618   2.238   6.704   8.369  0.7769  3.3824 -0.5461
   89SAPS  C218 8619   2.234   6.612   8.174  0.0660 -0.9487  0.2301
   89SAPS  H18R 8620   2.192   6.513   8.199 -1.0251 -0.3856  0.6926
   89SAPS  H18S 8621   2.300   6.597   8.086  1.4380  1.0801  0.8317
   89SAPS  C219 8622   2.110   6.696   8.140 -0.1847  0.0317  0.2223
   89SAPS  H19R 8623   2.124   6.803   8.167 -0.7299  0.1108  0.2077
   89SAPS  H19S 8624   2.030   6.658   8.207  0.1003 -2.7194 -0.8768
   89SAPS  C220 8625   2.053   6.675   8.003 -0.0967 -0.0162 -0.3906
   89SAPS  H20R 8626   2.016   6.573   7.978 -1.7083  0.2149  0.8542
   89SAPS  H20S 8627   2.139   6.706   7.940  0.3105  0.0038  0.1614
   89SAPS  H20T 8628   1.971   6.750   7.998 -1.0633 -0.9232  1.1122
   89SAPS   C33 8629   2.165   6.226   9.646 -0.0487  0.0007  0.7697
   89SAPS   H3X 8630   2.060   6.256   9.630 -0.0676 -0.1946  0.5230
   89SAPS   H3Y 8631   2.181   6.135   9.584  2.2359 -0.4670  1.9308
   89SAPS   C34 8632   2.255   6.333   9.592  0.2261 -0.0358 -0.6573
   89SAPS   H4X 8633   2.346   6.331   9.656  0.1936 -0.7848 -0.6318
   89SAPS   H4Y 8634   2.209   6.432   9.615  1.2941  0.7430 -1.7228
   89SAPS   C35 8635   2.293   6.321   9.444 -1.2076  0.1830  0.2670
   89SAPS   H5X 8636   2.318   6.215   9.423  0.8979  0.5580  0.7145
   89SAPS   H5Y 8637   2.378   6.388   9.420 -0.8381 -0.2271  0.4339
   89SAPS   C36 8638   2.180   6.360   9.346 -0.5667 -0.0971 -0.3579
   89SAPS   H6X 8639   2.182   6.471   9.348  1.3176 -0.0453 -1.7899
   89SAPS   H6Y 8640   2.086   6.323   9.392 -0.6564  0.3596 -0.1618
   89SAPS   C37 8641   2.216   6.317   9.198  0.3798 -0.5779 -0.8508
   89SAPS   H7X 8642   2.221   6.206   9.192  0.2270 -0.5866 -0.8183
   89SAPS   H7Y 8643   2.311   6.363   9.162  1.6924 -0.9119  1.9126
   89SAPS   C38 8644   2.097   6.364   9.110  0.4921 -0.1980  1.1380
   89SAPS   H8X 8645   2.081   6.474   9.118  0.6562 -0.1674  1.0589
   89SAPS   H8Y 8646   2.005   6.316   9.149  0.1556  1.2465  2.2141
   89SAPS   C39 8647   2.117   6.337   8.956 -1.2707 -0.0593  0.1577
   89SAPS   H9X 8648   2.139   6.229   8.944 -1.3807 -0.2828  1.7778
   89SAPS   H9Y 8649   2.197   6.397   8.907 -0.4379 -2.2084 -1.2199
   89SAPS  C310 8650   1.986   6.364   8.880  0.2721 -0.0099  0.5483
   89SAPS  H10X 8651   1.946   6.467   8.886 -0.3319 -0.1496 -0.7435
   89SAPS  H10Y 8652   1.905   6.296   8.912 -0.5825  0.8931  0.3457
   89SAPS  C311 8653   1.999   6.331   8.723  0.1453 -0.6214 -0.2593
   89SAPS  H11X 8654   2.035   6.228   8.705 -2.5487 -1.4609 -1.2800
   89SAPS  H11Y 8655   2.083   6.398   8.693  0.1204  0.8941  2.6944
   89SAPS  C312 8656   1.878   6.375   8.643  0.2187  0.0330 -0.1648
   89SAPS  H12X 8657   1.871   6.486   8.651 -0.6578 -0.0666  0.4728
   89SAPS  H12Y 8658   1.786   6.323   8.675  0.8357 -0.1851  1.3137
   89SAPS  C313 8659   1.897   6.329   8.498  0.4421  0.4151 -0.0417
   89SAPS  H13X 8660   1.898   6.218   8.498 -0.2210  0.3680  2.1602
   89SAPS  H13Y 8661   1.982   6.379   8.447 -0.4549  2.0660 -0.0169
   89SAPS  C314 8662   1.775   6.347   8.397  0.2140  0.7573 -0.2632
   89SAPS  H14X 8663   1.770   6.454   8.366 -3.0613  0.6127 -0.6179
   89SAPS  H14Y 8664   1.685   6.310   8.452  0.3122 -0.6382 -0.9951
   89SAPS  C315 8665   1.790   6.273   8.265  0.5461  0.8110 -0.3208
   89SAPS  H15X 8666   1.701   6.291   8.201 -0.0256 -2.2030 -0.5181
   89SAPS  H15Y 8667   1.807   6.165   8.287 -2.7925 -0.1134 -1.6693
   89SAPS  C316 8668   1.914   6.314   8.182 -0.3476 -0.1379 -0.8760
   89SAPS  H16X 8669   2.003   6.263   8.223 -0.1348  1.2651  0.4842
   89SAPS  H16Y 8670   1.940   6.422   8.174  1.4653 -0.5566 -1.1154
   89SAPS  C317 8671   1.894   6.260   8.034  0.2764 -0.0911 -0.3820
   89SAPS  H17X 8672   1.960   6.290   7.949 -1.2202  0.2189 -1.4886
   89SAPS  H17Y 8673   1.793   6.295   8.002  0.7982  0.7185 -1.2294
   89SAPS  C318 8674   1.880   6.108   8.029 -0.1777  0.8534 -0.2724
   89SAPS  H18X 8675   1.793   6.079   8.092 -0.1892 -2.1549 -1.5043
   89SAPS  H18Y 8676   1.969   6.055   8.068  1.0522  2.1398 -1.2489
   89SAPS  H18Z 8677   1.847   6.075   7.928 -0.3680 -0.0646  0.0817
   90SAPS     N 8678   4.640   5.209  10.569 -0.9824  0.4736  0.4296
   90SAPS   HN1 8679   4.562   5.230  10.504 -1.9414  0.0973  1.4236
   90SAPS   HN2 8680   4.732   5.234  10.528 -0.4889 -0.0914  1.1721
   90SAPS   HN3 8681   4.657   5.107  10.580  0.1661  0.7262  1.1495
   90SAPS   C12 8682   4.635   5.303  10.680 -0.3767 -0.7822 -0.2025
   90SAPS  H12A 8683   4.551   5.276  10.742 -1.1000  0.5909 -0.5347
   90SAPS   C13 8684   4.749   5.285  10.778 -0.7840  1.0919  0.6334
   90SAPS  O13A 8685   4.831   5.186  10.764  0.2565  0.0360 -0.2081
   90SAPS  O13B 8686   4.766   5.363  10.878 -0.3580 -0.0028 -1.0118
   90SAPS   C11 8687   4.631   5.456  10.632 -0.2500  0.2071 -0.1362
   90SAPS  H11A 8688   4.729   5.477  10.583 -0.6425  2.9707  0.0729
   90SAPS  H11B 8689   4.628   5.531  10.715 -0.4335  1.0738 -0.9021
   90SAPS     P 8690   4.380   5.536  10.590 -0.2816 -0.2153  0.4769
   90SAPS   O13 8691   4.293   5.421  10.583  0.0451  0.3455 -0.8108
   90SAPS   O14 8692   4.394   5.624  10.713  0.4149  0.1533  0.7032
   90SAPS   O12 8693   4.524   5.485  10.545  0.6684  0.1585 -0.2749
   90SAPS   O11 8694   4.336   5.637  10.475  1.1346 -0.0766  0.6625
   90SAPS    C1 8695   4.360   5.606  10.337 -0.2523  0.0426 -0.0766
   90SAPS    HA 8696   4.464   5.622  10.301 -0.2543 -2.1055 -1.2049
   90SAPS    HB 8697   4.337   5.498  10.326  0.4195  0.1233 -2.7105
   90SAPS    C2 8698   4.269   5.689  10.238 -0.1320  0.0228 -0.7501
   90SAPS    HS 8699   4.165   5.687  10.277  0.2172  1.6588  0.3671
   90SAPS   O21 8700   4.284   5.636  10.103  0.1876  0.2797  0.4465
   90SAPS   C21 8701   4.171   5.592  10.050  0.4628 -0.3455 -0.4235
   90SAPS   O22 8702   4.064   5.590  10.108  0.2518  0.8680  0.6041
   90SAPS   C22 8703   4.192   5.532   9.912 -0.4645  0.0686  0.1517
   90SAPS   H2R 8704   4.230   5.606   9.839 -0.3806 -0.6137 -0.5155
   90SAPS   H2S 8705   4.280   5.467   9.932  0.1070  0.4662 -0.9721
   90SAPS    C3 8706   4.305   5.840  10.249  0.4556 -0.6245  0.5761
   90SAPS    HX 8707   4.410   5.845  10.214  0.2874  0.2215  0.1569
   90SAPS    HY 8708   4.298   5.868  10.356 -0.5872  0.8616  0.1457
   90SAPS   O31 8709   4.218   5.928  10.175 -0.2930  0.7040 -0.1354
   90SAPS   C31 8710   4.279   6.035  10.133  0.4840 -0.4138 -0.0617
   90SAPS   O32 8711   4.386   6.085  10.172  0.0453  0.3228  0.5165
   90SAPS   C32 8712   4.185   6.113  10.036  0.1247 -0.1153 -0.2256
   90SAPS   H2X 8713   4.226   6.214  10.012 -0.8948  0.3076 -0.2228
   90SAPS   H2Y 8714   4.093   6.115  10.098  0.0977 -0.4101 -0.2587
   90SAPS   C23 8715   4.081   5.447   9.849 -0.0945 -0.3640 -0.6690
   90SAPS   H3R 8716   4.000   5.515   9.818  0.2175 -0.2128 -1.1724
   90SAPS   H3S 8717   4.048   5.368   9.920  0.2184  0.0123 -0.0950
   90SAPS   C24 8718   4.125   5.376   9.716  0.3390  0.6394  0.7661
   90SAPS   H4R 8719   4.168   5.450   9.644 -0.8427 -0.2445 -0.9170
   90SAPS   H4S 8720   4.031   5.345   9.665  1.6142 -0.0149 -1.2789
   90SAPS   C25 8721   4.217   5.254   9.738  0.0843  0.0458  0.1874
   90SAPS   H5R 8722   4.191   5.199   9.829  2.0178  0.7113  1.1866
   90SAPS   C26 8723   4.310   5.202   9.655  0.2241 -0.2115  0.6263
   90SAPS   H6R 8724   4.354   5.102   9.671  2.8443  0.8110  0.2755
   90SAPS   C27 8725   4.341   5.275   9.528  0.2249 -0.3330  0.3326
   90SAPS   H7R 8726   4.387   5.374   9.551  0.2191 -0.1405 -0.4625
   90SAPS   H7S 8727   4.245   5.305   9.482  0.7322  1.2147  0.2182
   90SAPS   C28 8728   4.434   5.185   9.448  0.1598 -0.2950  0.0404
   90SAPS   H8R 8729   4.528   5.164   9.501 -0.3740  1.0187  1.5898
   90SAPS   C29 8730   4.417   5.143   9.325 -0.3522  0.2635 -0.3181
   90SAPS   H9R 8731   4.511   5.104   9.282  0.2742 -1.8639  2.6041
   90SAPS  C210 8732   4.306   5.168   9.228  0.0577  0.2031 -0.0655
   90SAPS  H10R 8733   4.257   5.258   9.270 -0.8845  0.2695 -1.2634
   90SAPS  H10S 8734   4.237   5.082   9.240  1.0717 -0.6299 -0.0709
   90SAPS  C211 8735   4.345   5.198   9.083 -0.6990 -0.2603  1.1422
   90SAPS  H11R 8736   4.425   5.271   9.065 -2.0339  1.2228  1.0485
   90SAPS  C212 8737   4.278   5.151   8.974  0.1045 -0.1569 -0.0444
   90SAPS  H12R 8738   4.307   5.178   8.871 -1.3055 -4.2757 -1.7250
   90SAPS  C213 8739   4.155   5.064   8.968 -1.1344  0.7094 -0.2193
   90SAPS  H13R 8740   4.174   4.996   9.053  3.0957  3.2266  1.1849
   90SAPS  H13S 8741   4.166   5.011   8.871  3.7481 -1.3637  1.1584
   90SAPS  C214 8742   4.022   5.126   8.987 -0.2895 -0.0823  0.3089
   90SAPS  H14R 8743   4.031   5.214   9.052  0.0876 -1.2578  1.9318
   90SAPS  C215 8744   3.906   5.077   8.938  0.1809 -0.0548  0.3155
   90SAPS  H15R 8745   3.816   5.136   8.959 -1.0474 -2.0238  0.7545
   90SAPS  C216 8746   3.882   4.953   8.847  0.4253  0.1332  0.4575
   90SAPS  H16R 8747   3.806   4.892   8.902  1.9259 -1.4304  0.8715
   90SAPS  H16S 8748   3.975   4.894   8.837  1.7543  2.3838 -1.2841
   90SAPS  C217 8749   3.821   4.993   8.714  0.2150  0.3552  0.8352
   90SAPS  H17R 8750   3.793   4.900   8.660 -0.2076  1.5204 -1.0706
   90SAPS  H17S 8751   3.900   5.035   8.648  0.9449 -1.6198  0.3915
   90SAPS  C218 8752   3.688   5.065   8.724  0.0127  0.5878 -0.2129
   90SAPS  H18R 8753   3.694   5.168   8.765  0.0662 -0.2903  2.1640
   90SAPS  H18S 8754   3.623   5.004   8.791  2.3910 -1.2969  0.5302
   90SAPS  C219 8755   3.626   5.069   8.585  0.1947  0.0207 -0.2735
   90SAPS  H19R 8756   3.516   5.082   8.597 -0.4420 -5.0407  1.6306
   90SAPS  H19S 8757   3.633   4.967   8.543 -1.1148  0.0682 -0.6542
   90SAPS  C220 8758   3.684   5.168   8.490  1.0394  0.6942  0.0212
   90SAPS  H20R 8759   3.608   5.169   8.410 -0.8341  0.2791  1.6993
   90SAPS  H20S 8760   3.779   5.144   8.438  1.0412  1.3705 -0.2829
   90SAPS  H20T 8761   3.694   5.271   8.530  0.4033  1.3325 -1.4015
   90SAPS   C33 8762   4.150   6.051   9.899 -0.2196 -0.4029 -0.4984
   90SAPS   H3X 8763   4.247   6.041   9.845  0.2700 -1.3681  0.5106
   90SAPS   H3Y 8764   4.083   6.127   9.854 -0.4544 -1.1992 -1.5242
   90SAPS   C34 8765   4.078   5.919   9.898  0.0421  0.8995 -0.3577
   90SAPS   H4X 8766   3.970   5.944   9.905  0.3922  2.2950  0.2523
   90SAPS   H4Y 8767   4.093   5.862   9.993  1.5836  2.2720  0.2567
   90SAPS   C35 8768   4.098   5.832   9.768  0.1857  0.2450 -0.1191
   90SAPS   H5X 8769   4.023   5.750   9.768  0.7783 -0.4149  2.8143
   90SAPS   H5Y 8770   4.199   5.787   9.760 -0.1645 -0.5391 -0.2205
   90SAPS   C36 8771   4.072   5.919   9.640 -0.8939 -0.0558  0.1176
   90SAPS   H6X 8772   4.134   6.011   9.650  1.1033 -1.4265  1.2803
   90SAPS   H6Y 8773   3.962   5.935   9.635 -1.3991 -2.4414  1.4581
   90SAPS   C37 8774   4.107   5.832   9.524  0.0917  0.1878  0.7319
   90SAPS   H7X 8775   4.050   5.741   9.552 -1.0297  0.1779 -1.3567
   90SAPS   H7Y 8776   4.215   5.810   9.533 -0.0135 -1.0063 -0.5291
   90SAPS   C38 8777   4.062   5.883   9.385  0.5867 -0.1452 -0.5582
   90SAPS   H8X 8778   3.955   5.856   9.370  0.9926 -1.3578 -1.5113
   90SAPS   H8Y 8779   4.121   5.837   9.302 -0.8317 -0.8720 -1.1990
   90SAPS   C39 8780   4.075   6.038   9.375 -0.2453 -0.2740  1.0849
   90SAPS   H9X 8781   4.170   6.084   9.410  0.4376 -0.3034 -0.6142
   90SAPS   H9Y 8782   3.991   6.091   9.424 -1.8518 -1.1205 -0.6316
   90SAPS  C310 8783   4.079   6.094   9.233 -0.0709 -1.1343  0.3123
   90SAPS  H10X 8784   3.990   6.056   9.180 -1.3919  1.5759  0.3845
   90SAPS  H10Y 8785   4.167   6.054   9.178 -0.1845 -2.5179  1.0859
   90SAPS  C311 8786   4.070   6.250   9.238  0.2808 -0.2623 -0.5956
   90SAPS  H11X 8787   4.134   6.290   9.320 -0.8517  0.9775 -0.2811
   90SAPS  H11Y 8788   3.971   6.288   9.272  1.0031  0.6166  0.5931
   90SAPS  C312 8789   4.112   6.322   9.109  0.0309  0.1664 -0.1816
   90SAPS  H12X 8790   4.207   6.284   9.067  0.4482  1.9414 -0.9625
   90SAPS  H12Y 8791   4.130   6.429   9.132 -1.0005  0.4909 -0.7860
   90SAPS  C313 8792   4.006   6.322   8.995 -0.3474  0.1341 -0.9013
   90SAPS  H13X 8793   3.935   6.407   9.007  1.0444  1.1618  0.6962
   90SAPS  H13Y 8794   3.948   6.228   9.007 -1.3375  0.7579 -0.6854
   90SAPS  C314 8795   4.063   6.340   8.856  0.2421  0.5241  0.0911
   90SAPS  H14X 8796   4.128   6.430   8.857 -2.1406  2.3555  0.3259
   90SAPS  H14Y 8797   3.986   6.352   8.776  0.1550  2.0914  0.3830
   90SAPS  C315 8798   4.140   6.221   8.806 -0.2911  0.1266 -0.0101
   90SAPS  H15X 8799   4.079   6.128   8.802 -0.2800  0.0486  1.2742
   90SAPS  H15Y 8800   4.217   6.193   8.881  0.2656  2.4515  0.3683
   90SAPS  C316 8801   4.215   6.251   8.673 -0.4869  0.1523  0.3812
   90SAPS  H16X 8802   4.293   6.326   8.696  0.8038 -1.3970  1.2956
   90SAPS  H16Y 8803   4.147   6.280   8.590 -2.8787 -3.2325  0.9130
   90SAPS  C317 8804   4.272   6.119   8.617  0.8358 -0.1607  0.0331
   90SAPS  H17X 8805   4.185   6.051   8.618  0.8586 -0.3048  3.5654
   90SAPS  H17Y 8806   4.334   6.083   8.702 -0.1360 -1.1025  0.3568
   90SAPS  C318 8807   4.349   6.117   8.488  0.0461 -0.1432  0.2053
   90SAPS  H18X 8808   4.278   6.131   8.403 -0.1266 -2.0031 -0.0107
   90SAPS  H18Y 8809   4.398   6.019   8.472 -1.0402 -0.2059 -3.8636
   90SAPS  H18Z 8810   4.428   6.194   8.489 -0.7193  0.6586  0.7509
   91SAPS     N 8811   2.326   4.217   5.892  0.6630  0.3980  0.5009
   91SAPS   HN1 8812   2.304   4.134   5.951  0.6897 -1.0706 -1.4425
   91SAPS   HN2 8813   2.389   4.284   5.941  1.4393 -0.1107  0.2196
   91SAPS   HN3 8814   2.233   4.262   5.880  0.1184 -0.5311  1.1084
   91SAPS   C12 8815   2.384   4.170   5.769  0.4544  0.1684 -0.3756
   91SAPS  H12A 8816   2.336   4.083   5.726  0.3322  0.5822 -1.1076
   91SAPS   C13 8817   2.369   4.271   5.651  0.7222  0.7210 -0.0566
   91SAPS  O13A 8818   2.322   4.383   5.673 -0.2448 -0.3948  0.5333
   91SAPS  O13B 8819   2.398   4.230   5.536 -0.0334 -0.9192 -0.0843
   91SAPS   C11 8820   2.531   4.120   5.785  0.0793  0.1751 -0.1189
   91SAPS  H11A 8821   2.585   4.184   5.857 -0.1342  0.5128 -0.2568
   91SAPS  H11B 8822   2.589   4.128   5.690 -0.2929  1.1119 -0.2738
   91SAPS     P 8823   2.645   3.922   5.902  0.0253  0.2373 -0.3614
   91SAPS   O13 8824   2.615   3.786   5.962 -0.2755 -0.1322  0.1919
   91SAPS   O14 8825   2.771   3.941   5.826  0.5061  0.4259 -0.2569
   91SAPS   O12 8826   2.526   3.978   5.818  0.2472  0.5386  0.1794
   91SAPS   O11 8827   2.645   4.032   6.024 -0.3854 -0.6930 -0.3351
   91SAPS    C1 8828   2.535   4.042   6.111 -0.6110  0.2135  0.2657
   91SAPS    HA 8829   2.495   4.145   6.119 -1.0872  0.2807 -2.1677
   91SAPS    HB 8830   2.452   3.980   6.070 -0.5549 -0.3453  0.9615
   91SAPS    C2 8831   2.563   3.996   6.263 -0.9995  0.1467  0.0828
   91SAPS    HS 8832   2.559   3.885   6.268 -2.6163  0.1327 -0.7823
   91SAPS   O21 8833   2.485   4.059   6.372 -0.0782 -0.0352  0.5119
   91SAPS   C21 8834   2.355   4.058   6.365 -0.8685 -0.5424  0.3900
   91SAPS   O22 8835   2.282   4.015   6.277 -0.3316 -0.4714  0.1386
   91SAPS   C22 8836   2.311   4.106   6.502  0.2575 -0.3584 -0.9503
   91SAPS   H2R 8837   2.396   4.115   6.573  0.2882 -0.3781 -0.9844
   91SAPS   H2S 8838   2.251   4.197   6.481  0.8593  0.0967 -0.7148
   91SAPS    C3 8839   2.713   4.008   6.290  0.4521 -0.6237 -0.0261
   91SAPS    HX 8840   2.733   4.117   6.281 -0.6861 -0.3473  0.5161
   91SAPS    HY 8841   2.782   3.956   6.222 -0.5353 -1.6311 -0.2900
   91SAPS   O31 8842   2.731   3.960   6.429  0.0731  0.3397  0.2602
   91SAPS   C31 8843   2.846   3.986   6.474 -0.2034  0.8232 -0.3223
   91SAPS   O32 8844   2.938   4.025   6.404 -0.0475  0.9621  0.3640
   91SAPS   C32 8845   2.854   3.954   6.630  0.3244  0.5071  0.2648
   91SAPS   H2X 8846   2.750   3.966   6.668 -0.9811  0.9299 -3.1697
   91SAPS   H2Y 8847   2.911   4.031   6.686 -1.1896  1.0542  1.1432
   91SAPS   C23 8848   2.210   4.019   6.579  0.5316  0.1765  0.1401
   91SAPS   H3R 8849   2.115   4.023   6.521  0.1069 -0.9429  0.7338
   91SAPS   H3S 8850   2.176   4.065   6.674 -0.2975  0.4544 -0.2861
   91SAPS   C24 8851   2.254   3.871   6.595 -0.7966  0.0744 -0.6545
   91SAPS   H4R 8852   2.283   3.830   6.496 -0.5400  0.5446 -0.7796
   91SAPS   H4S 8853   2.172   3.807   6.633 -1.0419 -0.0310 -1.3484
   91SAPS   C25 8854   2.372   3.848   6.678 -0.3741  0.1765 -0.7144
   91SAPS   H5R 8855   2.465   3.824   6.626 -0.6589  1.7439 -2.0214
   91SAPS   C26 8856   2.366   3.844   6.815 -0.0876 -0.4937  0.4590
   91SAPS   H6R 8857   2.461   3.811   6.859 -0.2661  1.1782  2.2199
   91SAPS   C27 8858   2.244   3.871   6.902 -0.1977 -0.8098  0.3317
   91SAPS   H7R 8859   2.151   3.896   6.848 -0.9892 -1.7357  1.2180
   91SAPS   H7S 8860   2.274   3.963   6.956 -2.6000  0.3480 -0.1784
   91SAPS   C28 8861   2.220   3.764   7.000  0.0323  0.1956  0.8977
   91SAPS   H8R 8862   2.172   3.672   6.967  1.1612 -1.5267  3.6983
   91SAPS   C29 8863   2.231   3.779   7.140 -0.0436 -0.2313 -0.4514
   91SAPS   H9R 8864   2.212   3.693   7.206 -0.3598 -0.3689 -0.7215
   91SAPS  C210 8865   2.282   3.904   7.217  0.6127 -0.5093 -0.6446
   91SAPS  H10R 8866   2.327   3.982   7.153  3.7033 -1.8787 -0.2851
   91SAPS  H10S 8867   2.369   3.878   7.280  1.2085  2.2148 -0.2323
   91SAPS  C211 8868   2.182   3.966   7.308  0.2128 -0.1882  0.0399
   91SAPS  H11R 8869   2.080   3.964   7.266  0.6788 -1.6707 -1.1135
   91SAPS  C212 8870   2.214   4.041   7.414 -0.0494  0.2223  0.0838
   91SAPS  H12R 8871   2.133   4.086   7.474 -0.9290  0.4891 -1.2530
   91SAPS  C213 8872   2.348   4.062   7.480 -0.3542  0.5505 -0.5252
   91SAPS  H13R 8873   2.431   4.023   7.418 -0.1490  3.4466 -2.2830
   91SAPS  H13S 8874   2.362   4.004   7.574  2.3332  0.6489 -0.7946
   91SAPS  C214 8875   2.367   4.208   7.525 -0.0691  0.6789 -0.5721
   91SAPS  H14R 8876   2.328   4.283   7.455  1.5197  0.8820 -1.2588
   91SAPS  C215 8877   2.422   4.254   7.643  0.2010  0.1083 -0.2383
   91SAPS  H15R 8878   2.452   4.359   7.660 -1.1099  0.1208  2.7251
   91SAPS  C216 8879   2.483   4.161   7.755  0.6216 -0.3998  0.2678
   91SAPS  H16R 8880   2.483   4.052   7.733  1.6155 -0.3203 -0.1930
   91SAPS  H16S 8881   2.425   4.177   7.849  0.7460  0.5690  0.1872
   91SAPS  C217 8882   2.626   4.208   7.777 -0.1902 -0.2203 -0.5202
   91SAPS  H17R 8883   2.652   4.176   7.880  0.6668 -0.4695 -0.8086
   91SAPS  H17S 8884   2.645   4.317   7.780  0.7019 -0.3789 -0.0804
   91SAPS  C218 8885   2.725   4.150   7.679  0.2805  0.2462  0.0387
   91SAPS  H18R 8886   2.749   4.222   7.597 -0.1772  3.3324  2.4236
   91SAPS  H18S 8887   2.686   4.062   7.624  0.6759  0.0949 -0.0024
   91SAPS  C219 8888   2.864   4.108   7.730  0.6731 -0.3531 -0.1468
   91SAPS  H19R 8889   2.927   4.072   7.646  0.9536 -0.8137  0.2633
   91SAPS  H19S 8890   2.847   4.032   7.809 -0.3027  1.7684  1.7991
   91SAPS  C220 8891   2.933   4.229   7.802 -0.1806  0.7268  0.1256
   91SAPS  H20R 8892   2.894   4.260   7.902  1.4695 -2.8433  2.1144
   91SAPS  H20S 8893   2.949   4.316   7.736 -0.2743  0.2294 -0.5668
   91SAPS  H20T 8894   3.036   4.195   7.830 -0.2598 -0.8930 -1.3445
   91SAPS   C33 8895   2.887   3.799   6.663  0.8456 -0.4741  0.4365
   91SAPS   H3X 8896   2.984   3.783   6.611  0.7523  2.1672 -0.6973
   91SAPS   H3Y 8897   2.824   3.728   6.605 -0.1216  0.8819 -0.2241
   91SAPS   C34 8898   2.921   3.771   6.806  0.4895  0.6271 -0.4065
   91SAPS   H4X 8899   2.982   3.857   6.842  0.3825  1.0054 -1.1179
   91SAPS   H4Y 8900   2.979   3.677   6.816 -0.7155  0.0902  2.7076
   91SAPS   C35 8901   2.795   3.761   6.894 -0.2629  0.2102 -0.1893
   91SAPS   H5X 8902   2.757   3.660   6.868  1.2471  0.2089 -2.8542
   91SAPS   H5Y 8903   2.719   3.839   6.871 -0.3712  0.1578 -0.0095
   91SAPS   C36 8904   2.833   3.759   7.042  0.7194 -0.3774  0.0538
   91SAPS   H6X 8905   2.879   3.858   7.063 -2.6055  1.6139 -1.3157
   91SAPS   H6Y 8906   2.897   3.669   7.059  0.5253 -0.5332 -0.0290
   91SAPS   C37 8907   2.712   3.732   7.135 -0.4154  0.2792  0.0293
   91SAPS   H7X 8908   2.643   3.650   7.106 -1.5840  0.9497  0.8509
   91SAPS   H7Y 8909   2.644   3.819   7.120 -1.7211 -0.7703 -0.3722
   91SAPS   C38 8910   2.767   3.716   7.277 -0.3226  0.1425 -0.0106
   91SAPS   H8X 8911   2.847   3.792   7.286 -0.2389  0.0659 -0.1011
   91SAPS   H8Y 8912   2.820   3.619   7.285 -0.1686  0.2541  0.3441
   91SAPS   C39 8913   2.659   3.727   7.389  0.2775 -0.5921  0.7689
   91SAPS   H9X 8914   2.581   3.656   7.353 -0.2831  0.6014 -0.4764
   91SAPS   H9Y 8915   2.626   3.832   7.381  2.0847 -0.0828 -1.1971
   91SAPS  C310 8916   2.704   3.697   7.530  0.1113 -0.1278 -0.3013
   91SAPS  H10X 8917   2.802   3.750   7.537 -0.4501  1.0168 -0.8651
   91SAPS  H10Y 8918   2.710   3.587   7.545  2.2438 -0.2276 -1.4788
   91SAPS  C311 8919   2.601   3.758   7.631 -0.7229 -0.2931 -0.0431
   91SAPS  H11X 8920   2.519   3.684   7.639 -2.2208  1.4872  2.2878
   91SAPS  H11Y 8921   2.566   3.857   7.596 -0.2955  1.0726  3.1061
   91SAPS  C312 8922   2.666   3.771   7.765 -0.0145  0.1824 -0.1660
   91SAPS  H12X 8923   2.728   3.864   7.762 -0.4772  0.4599 -1.5564
   91SAPS  H12Y 8924   2.732   3.685   7.788 -0.8099 -0.4011 -0.0357
   91SAPS  C313 8925   2.566   3.783   7.878  0.1154  0.6373 -0.2362
   91SAPS  H13X 8926   2.512   3.686   7.876  2.1388 -0.5585  0.7221
   91SAPS  H13Y 8927   2.494   3.865   7.855 -1.1892 -0.6681 -1.0003
   91SAPS  C314 8928   2.621   3.793   8.018 -0.0527  0.2085 -0.9473
   91SAPS  H14X 8929   2.709   3.727   8.036 -0.4681 -0.5165 -1.5449
   91SAPS  H14Y 8930   2.545   3.763   8.094 -0.0974 -0.1031 -1.1156
   91SAPS  C315 8931   2.666   3.938   8.055  0.2144  0.4456 -0.2095
   91SAPS  H15X 8932   2.563   3.974   8.074 -0.0335 -0.2238 -0.2502
   91SAPS  H15Y 8933   2.714   3.993   7.972 -1.1191  2.0685  0.0407
   91SAPS  C316 8934   2.742   3.941   8.191  0.3914  0.3126 -0.1704
   91SAPS  H16X 8935   2.850   3.916   8.180  0.2275  0.0457 -1.3340
   91SAPS  H16Y 8936   2.693   3.857   8.245 -1.8886  3.0822  2.3634
   91SAPS  C317 8937   2.732   4.079   8.267  1.4556  0.2345  0.1038
   91SAPS  H17X 8938   2.622   4.078   8.278  1.5622 -0.5982  1.2569
   91SAPS  H17Y 8939   2.759   4.163   8.199  2.3206  0.6810  0.9684
   91SAPS  C318 8940   2.821   4.089   8.393  0.6172  0.0156 -0.6366
   91SAPS  H18X 8941   2.814   4.192   8.432  0.9164 -0.3187  0.3166
   91SAPS  H18Y 8942   2.928   4.069   8.373  0.1983 -1.3126 -1.7062
   91SAPS  H18Z 8943   2.790   4.023   8.477 -0.1447  1.7011  0.4622
   92SAPS     N 8944   1.135   6.474   5.396  0.8296  0.7068  0.2283
   92SAPS   HN1 8945   1.209   6.404   5.414 -1.9608 -3.2816 -2.0855
   92SAPS   HN2 8946   1.047   6.442   5.442  2.5771 -3.5025  1.1661
   92SAPS   HN3 8947   1.117   6.482   5.294 -0.5045 -2.2037  0.1298
   92SAPS   C12 8948   1.171   6.603   5.460  0.1035 -0.2081  0.3732
   92SAPS  H12A 8949   1.182   6.577   5.564 -2.4661 -0.1595  0.7080
   92SAPS   C13 8950   1.298   6.664   5.399  0.6343 -0.7603 -0.4542
   92SAPS  O13A 8951   1.352   6.600   5.303 -0.1572 -0.2831 -0.0347
   92SAPS  O13B 8952   1.349   6.772   5.441  0.9025 -0.1640 -0.0600
   92SAPS   C11 8953   1.052   6.706   5.463  0.6173 -0.4639  0.4245
   92SAPS  H11A 8954   0.957   6.656   5.490  0.4605 -1.1414 -1.2623
   92SAPS  H11B 8955   1.030   6.746   5.362  1.6686 -1.2254 -0.1261
   92SAPS     P 8956   0.997   6.878   5.649  0.1126  0.5263 -0.1430
   92SAPS   O13 8957   1.072   6.947   5.749 -0.2616 -0.6515  0.3628
   92SAPS   O14 8958   0.902   6.956   5.568  0.1156 -0.7747 -0.3264
   92SAPS   O12 8959   1.093   6.813   5.549  0.4285  0.0989  0.4636
   92SAPS   O11 8960   0.917   6.762   5.718 -0.5969  0.7061 -0.3016
   92SAPS    C1 8961   0.984   6.654   5.792 -0.4430 -0.4060  0.5719
   92SAPS    HA 8962   0.937   6.561   5.753 -2.6686  0.9885 -0.2858
   92SAPS    HB 8963   1.094   6.647   5.776 -0.3545 -1.2800  1.4878
   92SAPS    C2 8964   0.956   6.657   5.941 -0.1097  0.8053 -0.0824
   92SAPS    HS 8965   1.006   6.570   5.987  0.3179  2.0933  2.0522
   92SAPS   O21 8966   0.818   6.665   5.974  0.7228  0.2295  0.1696
   92SAPS   C21 8967   0.757   6.536   5.964 -0.0572  0.0288 -0.3012
   92SAPS   O22 8968   0.817   6.436   5.933 -0.0366  0.4460  0.6759
   92SAPS   C22 8969   0.609   6.542   6.002  0.5289 -0.1426  0.7230
   92SAPS   H2R 8970   0.575   6.647   5.989 -0.1449 -0.5048 -0.5794
   92SAPS   H2S 8971   0.555   6.475   5.932  0.2391 -0.5976  1.3644
   92SAPS    C3 8972   1.025   6.779   6.009 -0.6534 -0.1071 -0.2452
   92SAPS    HX 8973   0.965   6.870   5.986 -0.9722  0.3698  2.2230
   92SAPS    HY 8974   1.126   6.783   5.961 -0.2635 -1.3279  0.4281
   92SAPS   O31 8975   1.034   6.762   6.152 -0.5441  0.1553  0.1007
   92SAPS   C31 8976   1.101   6.864   6.212 -0.1692 -0.8345 -0.0162
   92SAPS   O32 8977   1.166   6.946   6.150 -0.2915  0.2629 -0.9711
   92SAPS   C32 8978   1.083   6.852   6.368 -0.2022 -0.0239 -0.2519
   92SAPS   H2X 8979   1.111   6.745   6.377  1.7245  0.5268  1.0352
   92SAPS   H2Y 8980   0.978   6.879   6.392 -0.1453  0.3687 -0.4387
   92SAPS   C23 8981   0.578   6.493   6.140 -0.4395  0.1942  0.2680
   92SAPS   H3R 8982   0.638   6.401   6.157 -0.7151  0.3328  2.1908
   92SAPS   H3S 8983   0.470   6.468   6.146 -0.3001 -0.4339  0.1705
   92SAPS   C24 8984   0.632   6.591   6.246 -0.5230  0.1637  0.3472
   92SAPS   H4R 8985   0.574   6.685   6.236 -3.3517 -1.0975  3.1133
   92SAPS   H4S 8986   0.736   6.613   6.217 -0.6699  0.9291  0.3992
   92SAPS   C25 8987   0.605   6.530   6.380  0.5628 -0.5023  0.3345
   92SAPS   H5R 8988   0.504   6.489   6.388 -0.7022  2.0187 -1.1687
   92SAPS   C26 8989   0.687   6.525   6.482  0.0117 -0.3689  0.3683
   92SAPS   H6R 8990   0.631   6.500   6.573 -2.0666  0.8606 -0.4917
   92SAPS   C27 8991   0.830   6.567   6.497  0.1499 -0.4906  0.4649
   92SAPS   H7R 8992   0.834   6.585   6.607 -1.1193  1.3685  0.2412
   92SAPS   H7S 8993   0.850   6.659   6.439 -1.1672 -1.0331 -0.9063
   92SAPS   C28 8994   0.916   6.455   6.449  0.3008 -0.2885 -0.9924
   92SAPS   H8R 8995   0.878   6.403   6.360 -0.9024  1.1994 -1.3984
   92SAPS   C29 8996   1.036   6.422   6.495 -0.1236  0.5299  0.2391
   92SAPS   H9R 8997   1.079   6.341   6.435 -1.8320  0.3671 -0.8473
   92SAPS  C210 8998   1.114   6.471   6.607 -0.1648  0.1469 -0.0719
   92SAPS  H10R 8999   1.106   6.581   6.616  2.0942  0.3921 -0.5464
   92SAPS  H10S 9000   1.220   6.440   6.595 -0.3180 -0.5832  0.4151
   92SAPS  C211 9001   1.071   6.395   6.734 -1.1567 -0.1072 -0.0959
   92SAPS  H11R 9002   1.036   6.294   6.706 -1.6154  1.2042 -5.3348
   92SAPS  C212 9003   1.034   6.445   6.856  0.2488 -0.3796 -1.1427
   92SAPS  H12R 9004   1.007   6.371   6.933  0.7040 -0.9409 -1.5184
   92SAPS  C213 9005   1.076   6.581   6.906 -0.0504 -0.5845  0.1619
   92SAPS  H13R 9006   1.005   6.628   6.978  1.4523  1.4294  0.4133
   92SAPS  H13S 9007   1.071   6.650   6.819  1.2137  1.0424  1.3122
   92SAPS  C214 9008   1.220   6.590   6.957  0.3733 -0.4308 -0.1154
   92SAPS  H14R 9009   1.295   6.571   6.879 -0.2996  0.3576 -0.9742
   92SAPS  C215 9010   1.260   6.603   7.087 -0.1938  1.0434 -0.0500
   92SAPS  H15R 9011   1.367   6.603   7.110 -0.3863 -0.1845  0.9786
   92SAPS  C216 9012   1.170   6.622   7.212  0.2733 -0.5778 -0.2808
   92SAPS  H16R 9013   1.097   6.700   7.182  0.8511 -0.9477 -2.8382
   92SAPS  H16S 9014   1.213   6.678   7.298  0.0766 -1.9533  0.7612
   92SAPS  C217 9015   1.101   6.497   7.243  0.4157  0.2215  0.2786
   92SAPS  H17R 9016   1.053   6.443   7.158  0.8180  3.1134 -1.9345
   92SAPS  H17S 9017   1.016   6.512   7.313  0.5123 -0.0139  0.4474
   92SAPS  C218 9018   1.191   6.400   7.316 -0.2222  0.2171 -0.1935
   92SAPS  H18R 9019   1.290   6.392   7.265 -0.6137  0.6769 -1.0413
   92SAPS  H18S 9020   1.152   6.297   7.331 -0.2029  0.3474  0.8185
   92SAPS  C219 9021   1.220   6.448   7.457  0.2433  0.7590 -0.0946
   92SAPS  H19R 9022   1.131   6.490   7.508  0.7542  2.3719 -0.4691
   92SAPS  H19S 9023   1.287   6.535   7.438  2.1002 -0.7912 -1.0564
   92SAPS  C220 9024   1.310   6.359   7.542 -0.1386 -0.0840 -0.5230
   92SAPS  H20R 9025   1.360   6.408   7.628  2.5021  1.4211 -2.7743
   92SAPS  H20S 9026   1.392   6.317   7.480  0.9888 -0.2353  1.0219
   92SAPS  H20T 9027   1.258   6.275   7.593  1.8708 -0.7397  0.5452
   92SAPS   C33 9028   1.191   6.938   6.441 -0.2633  0.2525 -0.1357
   92SAPS   H3X 9029   1.189   7.049   6.441  1.4814  0.4327  3.5084
   92SAPS   H3Y 9030   1.280   6.905   6.382 -1.3588  1.1917 -2.4677
   92SAPS   C34 9031   1.196   6.908   6.592 -0.1957  0.4829 -0.3875
   92SAPS   H4X 9032   1.197   6.799   6.610 -0.7813  0.3959 -0.8347
   92SAPS   H4Y 9033   1.108   6.953   6.643 -0.0046  0.0237  0.3610
   92SAPS   C35 9034   1.326   6.967   6.660  0.2753 -0.1980 -0.7321
   92SAPS   H5X 9035   1.316   7.075   6.633  0.6210 -0.1965 -0.8653
   92SAPS   H5Y 9036   1.426   6.933   6.625  2.2557  1.6765  2.5560
   92SAPS   C36 9037   1.324   6.951   6.815  0.0160 -0.2683 -0.4106
   92SAPS   H6X 9038   1.344   6.845   6.840  4.3378  0.5562  0.3535
   92SAPS   H6Y 9039   1.228   6.991   6.853  1.0483  0.1456  1.9556
   92SAPS   C37 9040   1.445   7.023   6.862  0.2264 -0.0801  0.6279
   92SAPS   H7X 9041   1.443   7.130   6.834  0.1574  0.2453  1.7902
   92SAPS   H7Y 9042   1.534   6.993   6.802 -0.6953 -0.0046 -0.8170
   92SAPS   C38 9043   1.478   7.006   7.007 -0.4374  0.5515 -0.3246
   92SAPS   H8X 9044   1.473   6.896   7.019  1.0880  0.2208 -2.2605
   92SAPS   H8Y 9045   1.396   7.047   7.071  1.4789  1.5336  1.6279
   92SAPS   C39 9046   1.621   7.051   7.040 -0.3928  0.2436  0.1647
   92SAPS   H9X 9047   1.615   7.160   7.059 -0.4617  0.2688  0.0043
   92SAPS   H9Y 9048   1.687   7.027   6.954  0.0530  1.5495  0.1316
   92SAPS  C310 9049   1.656   6.984   7.176 -0.4162 -0.0379  0.0428
   92SAPS  H10X 9050   1.722   6.896   7.155 -1.0197 -0.3686 -0.5074
   92SAPS  H10Y 9051   1.565   6.951   7.230 -0.5229 -0.2603 -0.2639
   92SAPS  C311 9052   1.745   7.080   7.262  0.0794  0.1351  0.9112
   92SAPS  H11X 9053   1.694   7.177   7.277  2.1419  1.2759  0.9917
   92SAPS  H11Y 9054   1.835   7.107   7.202  0.7959 -0.7274  1.5549
   92SAPS  C312 9055   1.784   7.024   7.406 -0.4100 -0.1989 -0.1916
   92SAPS  H12X 9056   1.702   6.960   7.446 -2.6481  1.5527 -1.6993
   92SAPS  H12Y 9057   1.807   7.107   7.476  1.3474 -0.4004 -0.4926
   92SAPS  C313 9058   1.916   6.943   7.406  0.1897  0.3323 -0.2069
   92SAPS  H13X 9059   2.000   7.011   7.385  1.1211 -0.3703  1.0981
   92SAPS  H13Y 9060   1.888   6.871   7.326  1.4798 -1.2385  0.7015
   92SAPS  C314 9061   1.962   6.871   7.540  0.0710  0.3896 -0.2929
   92SAPS  H14X 9062   2.056   6.816   7.516  0.5049  1.5511 -1.3854
   92SAPS  H14Y 9063   1.879   6.802   7.566 -1.0267  1.2579 -1.3687
   92SAPS  C315 9064   2.004   6.975   7.637  0.1392  0.7750 -0.8368
   92SAPS  H15X 9065   1.914   7.007   7.694 -0.4621 -1.2749 -0.5474
   92SAPS  H15Y 9066   2.051   7.062   7.588 -0.4552  0.9007 -1.1920
   92SAPS  C316 9067   2.107   6.914   7.743  0.2103  0.5207  0.1157
   92SAPS  H16X 9068   2.185   6.860   7.685 -1.5567 -0.0730 -1.8759
   92SAPS  H16Y 9069   2.040   6.833   7.778 -0.7854  0.3632 -2.0096
   92SAPS  C317 9070   2.144   6.992   7.863 -0.0198 -0.0811 -0.6844
   92SAPS  H17X 9071   2.186   6.928   7.944 -2.3736 -1.6432 -0.5945
   92SAPS  H17Y 9072   2.057   7.033   7.919  0.0926 -0.4861 -0.2038
   92SAPS  C318 9073   2.249   7.095   7.834 -0.6608 -0.0567  0.1508
   92SAPS  H18X 9074   2.239   7.140   7.733  1.3145 -1.1948 -0.6110
   92SAPS  H18Y 9075   2.347   7.041   7.835  0.0418  1.0869  2.7119
   92SAPS  H18Z 9076   2.258   7.176   7.910 -0.4687  1.3763 -1.3622
   93SAPS     N 9077   2.743   0.627   5.588  0.2459  0.0282 -0.0270
   93SAPS   HN1 9078   2.746   0.606   5.690  1.3941  1.9452  0.3683
   93SAPS   HN2 9079   2.645   0.615   5.554  1.2102 -1.0631 -2.7803
   93SAPS   HN3 9080   2.816   0.563   5.549 -2.0729 -1.2999 -2.5443
   93SAPS   C12 9081   2.799   0.762   5.575 -0.7400  0.6217  0.2914
   93SAPS  H12A 9082   2.902   0.766   5.607 -1.0296  1.6492  1.1540
   93SAPS   C13 9083   2.807   0.800   5.425 -0.6813  0.0603 -1.0602
   93SAPS  O13A 9084   2.790   0.713   5.337  0.1659 -0.7534  0.3113
   93SAPS  O13B 9085   2.871   0.911   5.398  0.3949 -0.2370 -0.4779
   93SAPS   C11 9086   2.706   0.865   5.631 -0.7928 -0.5103  0.1889
   93SAPS  H11A 9087   2.605   0.857   5.585 -1.5039  2.3249  1.0770
   93SAPS  H11B 9088   2.739   0.970   5.619  1.0552 -1.2668 -2.2083
   93SAPS     P 9089   2.757   0.908   5.881 -0.0922  0.0016  0.1165
   93SAPS   O13 9090   2.891   0.848   5.909 -0.2191 -0.0098  0.2458
   93SAPS   O14 9091   2.749   1.049   5.852  0.2092  0.1305  0.0109
   93SAPS   O12 9092   2.683   0.828   5.769  0.2078  0.2510 -0.1157
   93SAPS   O11 9093   2.679   0.887   6.009  0.2387  0.0671 -0.0207
   93SAPS    C1 9094   2.640   0.756   6.065 -0.2418  0.1121 -0.0880
   93SAPS    HA 9095   2.530   0.751   6.083 -0.6079  3.2595 -0.7998
   93SAPS    HB 9096   2.671   0.668   6.004 -0.1952 -0.1278  0.2833
   93SAPS    C2 9097   2.692   0.737   6.205  0.1967 -0.7047  1.0124
   93SAPS    HS 9098   2.655   0.638   6.241  2.6973 -1.3811  1.9461
   93SAPS   O21 9099   2.635   0.843   6.288 -0.5690  0.6662  0.8546
   93SAPS   C21 9100   2.605   0.812   6.412 -0.4305  0.1249 -0.3924
   93SAPS   O22 9101   2.610   0.699   6.466 -0.1631 -0.1117  0.1074
   93SAPS   C22 9102   2.557   0.940   6.490 -0.2295 -0.2171 -0.0420
   93SAPS   H2R 9103   2.488   1.000   6.426  0.9167  1.5057  0.2692
   93SAPS   H2S 9104   2.503   0.907   6.581 -0.5641  2.4255  0.7948
   93SAPS    C3 9105   2.850   0.738   6.201  0.8667  0.3320  0.0994
   93SAPS    HX 9106   2.870   0.844   6.177  0.6033  0.8421  1.9514
   93SAPS    HY 9107   2.884   0.663   6.126 -0.9927  0.1930 -0.6530
   93SAPS   O31 9108   2.896   0.695   6.335  0.0624  0.5575  0.1549
   93SAPS   C31 9109   2.959   0.773   6.410  0.1300 -0.7101 -0.1380
   93SAPS   O32 9110   2.984   0.890   6.385  0.2015 -0.0145 -0.6192
   93SAPS   C32 9111   3.007   0.708   6.539 -0.1810  0.0531  0.5615
   93SAPS   H2X 9112   3.028   0.606   6.500 -1.0082  0.8650 -2.2225
   93SAPS   H2Y 9113   2.924   0.692   6.611  1.8735  0.6057  3.2319
   93SAPS   C23 9114   2.679   1.028   6.527  0.0703 -0.0099 -0.2696
   93SAPS   H3R 9115   2.713   1.076   6.433  0.1165 -1.8937 -1.2621
   93SAPS   H3S 9116   2.761   0.963   6.565 -1.4786 -1.5550  0.6149
   93SAPS   C24 9117   2.633   1.124   6.637  0.1305  0.3324  0.0824
   93SAPS   H4R 9118   2.632   1.062   6.729  1.8763  0.0180 -0.0885
   93SAPS   H4S 9119   2.527   1.149   6.612  0.6436  0.7153 -1.8254
   93SAPS   C25 9120   2.721   1.246   6.648  0.0002  0.0340 -0.3372
   93SAPS   H5R 9121   2.711   1.308   6.557 -0.4951  1.1585  0.4477
   93SAPS   C26 9122   2.789   1.290   6.755  0.0722  0.2439  0.0003
   93SAPS   H6R 9123   2.848   1.383   6.751 -0.7655  0.8459  0.9728
   93SAPS   C27 9124   2.809   1.203   6.877 -0.1279 -0.5860 -0.6811
   93SAPS   H7R 9125   2.711   1.165   6.913 -2.2505  3.2294 -1.8527
   93SAPS   H7S 9126   2.846   1.268   6.959  2.9138 -3.1407  0.1333
   93SAPS   C28 9127   2.903   1.085   6.864 -0.5373 -0.1072 -0.6299
   93SAPS   H8R 9128   2.952   1.087   6.765  1.1721  1.0999  0.1815
   93SAPS   C29 9129   2.955   1.017   6.963 -0.1203 -0.1111  0.3925
   93SAPS   H9R 9130   3.024   0.935   6.938 -0.2002  0.1944 -0.8850
   93SAPS  C210 9131   2.911   1.029   7.105 -0.0620  0.2727 -0.2093
   93SAPS  H10R 9132   2.804   1.001   7.099  0.0937 -0.5403  0.5766
   93SAPS  H10S 9133   2.928   1.132   7.142 -2.3869  0.2291  1.1513
   93SAPS  C211 9134   2.984   0.933   7.196 -0.1769  0.5518 -0.3138
   93SAPS  H11R 9135   3.055   0.859   7.157  1.3503  0.8933  1.6737
   93SAPS  C212 9136   2.969   0.937   7.329 -0.4513 -0.2372 -0.2621
   93SAPS  H12R 9137   3.036   0.873   7.390  1.6192 -0.8868 -2.9947
   93SAPS  C213 9138   2.878   1.037   7.405  0.1482  0.2113 -0.5481
   93SAPS  H13R 9139   2.809   0.996   7.482  1.0868  0.2073  0.3109
   93SAPS  H13S 9140   2.804   1.065   7.327  1.7810  1.0558 -1.8493
   93SAPS  C214 9141   2.939   1.162   7.457  0.2460 -0.1643 -0.0455
   93SAPS  H14R 9142   2.998   1.218   7.383  1.6101  0.8267  1.7303
   93SAPS  C215 9143   2.920   1.218   7.578  0.8202  0.4310  0.1098
   93SAPS  H15R 9144   2.957   1.320   7.596 -1.6235  1.4950 -0.5227
   93SAPS  C216 9145   2.826   1.168   7.684 -0.4082 -0.5871 -0.0681
   93SAPS  H16R 9146   2.729   1.138   7.639 -2.1402  0.5813  2.5825
   93SAPS  H16S 9147   2.809   1.258   7.748 -1.8570 -1.8069  1.3503
   93SAPS  C217 9148   2.881   1.064   7.779 -0.3658  0.2714  0.1430
   93SAPS  H17R 9149   2.976   1.103   7.820  0.5691  0.8282 -2.3684
   93SAPS  H17S 9150   2.904   0.973   7.720 -0.3846  1.6212 -2.0741
   93SAPS  C218 9151   2.784   1.046   7.893 -0.3584  0.5082  0.1009
   93SAPS  H18R 9152   2.680   1.069   7.863 -0.6525  0.9822  1.4187
   93SAPS  H18S 9153   2.801   1.121   7.973 -1.1684  2.4783 -1.4956
   93SAPS  C219 9154   2.794   0.904   7.959 -0.3867 -0.1507 -0.2186
   93SAPS  H19R 9155   2.899   0.871   7.949  0.1544  0.1158  3.4509
   93SAPS  H19S 9156   2.730   0.843   7.891 -1.4733  1.2218 -0.4882
   93SAPS  C220 9157   2.735   0.923   8.102 -0.3276  0.3178 -0.1082
   93SAPS  H20R 9158   2.805   0.984   8.164 -0.0884  0.2774 -0.3403
   93SAPS  H20S 9159   2.729   0.823   8.150  0.8427  0.0397 -0.4954
   93SAPS  H20T 9160   2.631   0.962   8.101 -0.3660  0.2342  0.3292
   93SAPS   C33 9161   3.126   0.786   6.602  0.5058  0.2661 -0.8775
   93SAPS   H3X 9162   3.084   0.871   6.658 -0.6797 -1.2738  0.6627
   93SAPS   H3Y 9163   3.210   0.817   6.535  2.1203 -0.4524  0.7185
   93SAPS   C34 9164   3.197   0.707   6.718  0.1374  0.3561  0.3411
   93SAPS   H4X 9165   3.274   0.645   6.669 -1.2378 -0.5111 -0.8082
   93SAPS   H4Y 9166   3.132   0.643   6.782 -0.1853  0.1698 -0.1674
   93SAPS   C35 9167   3.280   0.803   6.810 -0.1571 -0.3431  0.1124
   93SAPS   H5X 9168   3.204   0.876   6.847  0.6719  1.8692 -2.2182
   93SAPS   H5Y 9169   3.341   0.859   6.736  2.1630 -1.2351  1.2613
   93SAPS   C36 9170   3.368   0.740   6.916  0.0110 -0.2394 -0.1635
   93SAPS   H6X 9171   3.439   0.676   6.860 -1.8009 -1.1255 -1.5579
   93SAPS   H6Y 9172   3.308   0.672   6.982  0.7994  0.3135  1.1655
   93SAPS   C37 9173   3.450   0.827   7.011  0.0959  0.0694  0.2678
   93SAPS   H7X 9174   3.508   0.900   6.950  0.2118  1.4751  2.0002
   93SAPS   H7Y 9175   3.534   0.775   7.062  2.3328  1.8074 -1.4146
   93SAPS   C38 9176   3.368   0.914   7.113 -0.7517 -0.1233  0.1807
   93SAPS   H8X 9177   3.291   0.844   7.151  0.2831 -2.0911 -1.1604
   93SAPS   H8Y 9178   3.305   0.992   7.067 -0.6813 -0.5995 -0.7352
   93SAPS   C39 9179   3.441   0.992   7.227  0.4364  0.1250 -0.8837
   93SAPS   H9X 9180   3.491   1.086   7.195  0.6787  0.0834 -0.6294
   93SAPS   H9Y 9181   3.524   0.932   7.269 -0.5182  1.3410  3.1437
   93SAPS  C310 9182   3.342   1.041   7.341 -0.5436  0.0274  0.5847
   93SAPS  H10X 9183   3.304   0.944   7.378  1.8625 -0.7490  1.2438
   93SAPS  H10Y 9184   3.265   1.108   7.297 -1.7526 -2.2100 -0.8565
   93SAPS  C311 9185   3.418   1.110   7.453  0.1458 -0.3140 -0.0724
   93SAPS  H11X 9186   3.431   1.219   7.434  1.3263 -0.2175  1.0948
   93SAPS  H11Y 9187   3.522   1.071   7.464  0.5217  0.6326 -0.1094
   93SAPS  C312 9188   3.330   1.092   7.579 -0.0031 -0.4054 -0.3328
   93SAPS  H12X 9189   3.356   0.996   7.627  2.1363 -0.5529 -1.6319
   93SAPS  H12Y 9190   3.224   1.101   7.548 -1.0371 -1.0577  2.7236
   93SAPS  C313 9191   3.371   1.205   7.676  0.1919 -0.4426 -0.3326
   93SAPS  H13X 9192   3.357   1.297   7.615  2.7399 -0.6393 -1.3473
   93SAPS  H13Y 9193   3.476   1.212   7.712  0.0717  0.4637 -0.1188
   93SAPS  C314 9194   3.281   1.205   7.801 -0.0464 -0.0761  0.0226
   93SAPS  H14X 9195   3.303   1.106   7.847  0.0949 -0.8343 -1.5872
   93SAPS  H14Y 9196   3.176   1.209   7.763 -0.0509  1.9450  0.1320
   93SAPS  C315 9197   3.311   1.311   7.901  0.0590 -0.5981  0.1337
   93SAPS  H15X 9198   3.278   1.406   7.855  2.5397 -0.1259 -0.8160
   93SAPS  H15Y 9199   3.421   1.307   7.914  0.3748  0.1200 -1.9471
   93SAPS  C316 9200   3.216   1.300   8.024  0.5610  0.1179  0.2207
   93SAPS  H16X 9201   3.219   1.199   8.070 -0.9079 -1.3726 -2.6569
   93SAPS  H16Y 9202   3.110   1.305   7.992  0.4472 -0.3146  0.5162
   93SAPS  C317 9203   3.247   1.413   8.115  0.4292 -0.8303  0.0634
   93SAPS  H17X 9204   3.256   1.508   8.057  1.4885 -0.9645 -0.0191
   93SAPS  H17Y 9205   3.342   1.383   8.164 -0.3046 -1.5868  1.0570
   93SAPS  C318 9206   3.138   1.421   8.229 -0.1543 -0.4511 -0.0227
   93SAPS  H18X 9207   3.129   1.323   8.280  1.4726 -1.1635 -1.0151
   93SAPS  H18Y 9208   3.041   1.449   8.184 -0.6410 -1.6456  0.2555
   93SAPS  H18Z 9209   3.181   1.500   8.294 -0.3324  0.7064 -1.2778
   94SAPS     N 9210   4.055   3.769   6.119 -0.2573 -0.1509  0.1705
   94SAPS   HN1 9211   3.985   3.698   6.147  0.5414 -1.1918 -0.3945
   94SAPS   HN2 9212   4.054   3.775   6.016 -1.8105 -0.9149  0.1184
   94SAPS   HN3 9213   4.149   3.748   6.159  0.9304 -1.0039 -2.8265
   94SAPS   C12 9214   4.008   3.896   6.180  0.3810  0.2884  0.2624
   94SAPS  H12A 9215   4.049   3.893   6.280  1.1235 -1.6901 -0.0634
   94SAPS   C13 9216   4.072   4.020   6.115 -0.1383 -0.0195 -0.5421
   94SAPS  O13A 9217   4.149   4.013   6.019  0.2968  0.0934  0.0028
   94SAPS  O13B 9218   4.046   4.131   6.164  0.0959 -0.1836  0.2268
   94SAPS   C11 9219   3.850   3.902   6.159 -0.0254 -0.3623 -0.1825
   94SAPS  H11A 9220   3.822   3.879   6.054 -1.9434  1.2270 -0.0769
   94SAPS  H11B 9221   3.811   4.000   6.193  1.8597 -0.0608  1.2553
   94SAPS     P 9222   3.637   3.784   6.248  0.4176  0.3550  0.1851
   94SAPS   O13 9223   3.576   3.811   6.111  0.2869 -0.7735 -0.6882
   94SAPS   O14 9224   3.605   3.651   6.319 -0.1149 -0.1559  0.4329
   94SAPS   O12 9225   3.796   3.805   6.244 -0.0797 -0.6486 -0.4832
   94SAPS   O11 9226   3.607   3.902   6.344 -0.2490  0.2264  0.1657
   94SAPS    C1 9227   3.663   3.910   6.473  0.1254  0.1002  0.2532
   94SAPS    HA 9228   3.747   3.840   6.489  1.7963  0.9371 -3.6562
   94SAPS    HB 9229   3.698   4.014   6.491 -1.1817  0.6270 -0.1216
   94SAPS    C2 9230   3.558   3.908   6.587 -0.2727 -0.2503 -0.9769
   94SAPS    HS 9231   3.609   3.925   6.684  0.6595  0.0637 -1.5053
   94SAPS   O21 9232   3.502   3.778   6.593  0.5527 -0.1666 -0.2653
   94SAPS   C21 9233   3.574   3.684   6.649  0.5635 -0.2486  0.3228
   94SAPS   O22 9234   3.686   3.699   6.696 -0.3488 -0.1117 -0.2612
   94SAPS   C22 9235   3.501   3.544   6.648 -1.0241  0.5209  0.6804
   94SAPS   H2R 9236   3.462   3.535   6.544  1.2476 -0.3595 -0.1575
   94SAPS   H2S 9237   3.580   3.466   6.652 -0.3143  1.1767 -0.0371
   94SAPS    C3 9238   3.454   4.021   6.574 -0.0729  0.4646 -1.1451
   94SAPS    HX 9239   3.384   3.999   6.490 -1.1524 -1.8407  0.2808
   94SAPS    HY 9240   3.503   4.118   6.550 -2.7822  2.0221 -0.9095
   94SAPS   O31 9241   3.395   4.045   6.698 -0.3766  0.1717 -0.4981
   94SAPS   C31 9242   3.281   3.986   6.711 -0.6647  0.1887 -0.4806
   94SAPS   O32 9243   3.213   3.935   6.620 -0.2122  0.6568 -0.0279
   94SAPS   C32 9244   3.236   3.988   6.858  0.9278  0.5207  0.1885
   94SAPS   H2X 9245   3.329   3.973   6.916  1.1243  0.4483 -0.1414
   94SAPS   H2Y 9246   3.176   3.895   6.865  2.0336 -0.3261 -1.1326
   94SAPS   C23 9247   3.397   3.519   6.746  0.7049 -0.3022 -0.2615
   94SAPS   H3R 9248   3.350   3.425   6.710 -0.4977  0.5162 -0.8686
   94SAPS   H3S 9249   3.319   3.598   6.735  1.2185  0.7735  2.7292
   94SAPS   C24 9250   3.452   3.515   6.896 -0.0307  0.0323 -0.2181
   94SAPS   H4R 9251   3.531   3.437   6.887  0.6231  0.7323 -0.6662
   94SAPS   H4S 9252   3.371   3.473   6.960  1.5203 -0.9773  1.1643
   94SAPS   C25 9253   3.501   3.648   6.951  0.0157 -0.2209  0.8755
   94SAPS   H5R 9254   3.607   3.658   6.926  0.6166 -3.8592  1.3746
   94SAPS   C26 9255   3.440   3.729   7.037  0.4481 -0.5991 -0.4535
   94SAPS   H6R 9256   3.492   3.823   7.062 -0.0832 -0.5019  0.3358
   94SAPS   C27 9257   3.300   3.711   7.090  0.4778 -0.6483  0.6863
   94SAPS   H7R 9258   3.240   3.676   7.003  1.8990 -3.0529  0.5768
   94SAPS   H7S 9259   3.260   3.812   7.112  0.2090 -0.6406  0.1792
   94SAPS   C28 9260   3.288   3.611   7.209 -0.7355 -0.3687 -0.2291
   94SAPS   H8R 9261   3.319   3.507   7.196 -1.5466 -1.0149  2.4318
   94SAPS   C29 9262   3.227   3.641   7.327 -0.4038 -0.3336  0.2144
   94SAPS   H9R 9263   3.239   3.568   7.409  1.5028  0.1771  0.4259
   94SAPS  C210 9264   3.168   3.775   7.374 -0.2630 -0.2187  0.9167
   94SAPS  H10R 9265   3.122   3.832   7.290  1.3900 -0.4506 -0.2149
   94SAPS  H10S 9266   3.251   3.848   7.384  0.0821 -0.4512 -0.1001
   94SAPS  C211 9267   3.085   3.766   7.499 -0.1481  0.0711  0.5739
   94SAPS  H11R 9268   3.010   3.685   7.491  0.2912 -0.2260 -0.7881
   94SAPS  C212 9269   3.109   3.819   7.621 -0.0975  0.5345 -0.1876
   94SAPS  H12R 9270   3.024   3.805   7.690 -1.1542 -2.3937 -1.9040
   94SAPS  C213 9271   3.227   3.918   7.648  0.1272 -0.1560  0.7893
   94SAPS  H13R 9272   3.201   3.983   7.734 -0.3893  0.2785  0.3203
   94SAPS  H13S 9273   3.233   3.991   7.564 -1.0389  1.2404  1.8607
   94SAPS  C214 9274   3.360   3.838   7.657  0.1371  0.2865  0.1871
   94SAPS  H14R 9275   3.383   3.785   7.564  1.7404  2.2146 -0.5777
   94SAPS  C215 9276   3.444   3.828   7.767 -0.2980 -0.3954 -0.4693
   94SAPS  H15R 9277   3.520   3.748   7.768  0.5921  0.4468 -0.1461
   94SAPS  C216 9278   3.414   3.888   7.900 -0.0428  0.0304 -0.1170
   94SAPS  H16R 9279   3.308   3.863   7.920 -0.5451 -0.5267 -3.0043
   94SAPS  H16S 9280   3.428   3.999   7.899  0.9306 -0.0768  0.1658
   94SAPS  C217 9281   3.507   3.836   8.013  0.9008  0.5542 -0.3623
   94SAPS  H17R 9282   3.612   3.839   7.977  0.0257 -1.8345 -3.6197
   94SAPS  H17S 9283   3.483   3.731   8.042 -0.7398  1.4357  1.6880
   94SAPS  C218 9284   3.494   3.906   8.146 -0.1169  0.1088 -0.0858
   94SAPS  H18R 9285   3.395   3.881   8.189 -0.4618 -1.5745 -1.7310
   94SAPS  H18S 9286   3.495   4.017   8.134 -0.7768  0.0258 -0.9984
   94SAPS  C219 9287   3.593   3.859   8.255 -0.8297 -0.6005 -0.0260
   94SAPS  H19R 9288   3.697   3.881   8.223 -0.1790 -0.9016  1.7744
   94SAPS  H19S 9289   3.579   3.749   8.264  0.2907 -0.8247 -0.8774
   94SAPS  C220 9290   3.577   3.919   8.394 -0.9101  0.0213 -0.2175
   94SAPS  H20R 9291   3.653   3.874   8.461 -1.0319 -2.1743 -1.4498
   94SAPS  H20S 9292   3.477   3.897   8.438 -0.2199 -0.4700  1.1548
   94SAPS  H20T 9293   3.600   4.027   8.382  0.2436 -0.4838 -3.7843
   94SAPS   C33 9294   3.153   4.110   6.904 -0.4768 -0.3385 -1.2703
   94SAPS   H3X 9295   3.057   4.101   6.849 -1.3572 -0.7364  0.2740
   94SAPS   H3Y 9296   3.208   4.200   6.868 -0.6673  0.1874 -0.2966
   94SAPS   C34 9297   3.112   4.108   7.048 -0.3733  0.0966 -0.1314
   94SAPS   H4X 9298   3.196   4.132   7.116 -1.3565  0.2388  1.0692
   94SAPS   H4Y 9299   3.080   4.003   7.065 -1.8432  0.5076 -0.2273
   94SAPS   C35 9300   2.993   4.193   7.082  0.5795 -0.3448  0.1603
   94SAPS   H5X 9301   2.907   4.136   7.042  0.0405 -0.0594  0.8971
   94SAPS   H5Y 9302   2.990   4.294   7.035  0.5524 -0.7270 -0.6787
   94SAPS   C36 9303   2.963   4.191   7.239 -0.3274 -0.3759  0.4581
   94SAPS   H6X 9304   2.976   4.086   7.274  2.4061  0.0913  1.0894
   94SAPS   H6Y 9305   2.859   4.226   7.255 -0.2257 -0.1514  0.6434
   94SAPS   C37 9306   3.057   4.290   7.310 -0.6266 -0.1342 -0.1935
   94SAPS   H7X 9307   3.057   4.393   7.269  0.9217  1.7906  4.0307
   94SAPS   H7Y 9308   3.162   4.252   7.312 -1.4633 -2.8929 -2.3071
   94SAPS   C38 9309   3.021   4.317   7.459  0.0472 -0.1309 -0.8098
   94SAPS   H8X 9310   3.047   4.233   7.528  1.4684  0.1396 -0.9913
   94SAPS   H8Y 9311   2.911   4.324   7.450 -0.1778 -2.7397 -1.0716
   94SAPS   C39 9312   3.090   4.435   7.519  0.7775 -1.1702 -0.0765
   94SAPS   H9X 9313   3.032   4.475   7.605  1.8424  0.2971 -0.0084
   94SAPS   H9Y 9314   3.078   4.507   7.436  1.4789  0.3152  1.0713
   94SAPS  C310 9315   3.239   4.415   7.548  0.1449  0.2144 -0.3023
   94SAPS  H10X 9316   3.287   4.381   7.453  0.5093 -1.9240  0.6020
   94SAPS  H10Y 9317   3.255   4.331   7.619  1.8997  0.9844  0.2675
   94SAPS  C311 9318   3.303   4.538   7.601  0.2564  0.3057 -0.6367
   94SAPS  H11X 9319   3.297   4.625   7.532 -2.9873 -0.5403 -1.5589
   94SAPS  H11Y 9320   3.409   4.504   7.607  0.2232 -0.0080 -1.6268
   94SAPS  C312 9321   3.247   4.581   7.744 -0.1230 -0.4753  0.3983
   94SAPS  H12X 9322   3.136   4.585   7.739 -0.2119 -0.7608  1.8070
   94SAPS  H12Y 9323   3.287   4.683   7.763  1.1645 -0.3882 -2.2840
   94SAPS  C313 9324   3.288   4.489   7.861  0.0294  0.0329 -0.8645
   94SAPS  H13X 9325   3.396   4.496   7.886 -0.9034 -0.6620  4.5166
   94SAPS  H13Y 9326   3.277   4.381   7.838 -1.3664  0.3008 -1.6409
   94SAPS  C314 9327   3.232   4.526   7.998  0.2341 -0.3162  0.1399
   94SAPS  H14X 9328   3.122   4.524   8.006  0.1142  2.4921  0.2357
   94SAPS  H14Y 9329   3.268   4.628   8.026 -0.7386 -0.2399  1.1830
   94SAPS  C315 9330   3.282   4.452   8.123 -0.2887  0.2830 -0.0010
   94SAPS  H15X 9331   3.240   4.509   8.209  0.9330  4.5501 -1.9672
   94SAPS  H15Y 9332   3.393   4.454   8.119 -0.2638 -1.3123 -1.6203
   94SAPS  C316 9333   3.243   4.302   8.132  0.0151  0.9238 -0.0086
   94SAPS  H16X 9334   3.312   4.254   8.204 -0.4113 -0.2493 -0.3598
   94SAPS  H16Y 9335   3.269   4.266   8.030 -2.6495 -2.1047  0.2006
   94SAPS  C317 9336   3.099   4.264   8.147 -0.8736  0.2533  0.3174
   94SAPS  H17X 9337   3.031   4.317   8.076 -1.2054 -0.4289  0.1235
   94SAPS  H17Y 9338   3.058   4.304   8.242  0.2303  1.5271  0.2927
   94SAPS  C318 9339   3.080   4.117   8.123  0.2195 -0.0409  0.4127
   94SAPS  H18X 9340   3.093   4.089   8.017 -0.9504 -0.9766  0.5012
   94SAPS  H18Y 9341   2.979   4.077   8.146 -0.1360 -0.0889 -1.1258
   94SAPS  H18Z 9342   3.156   4.062   8.183  2.3226  2.1894 -0.0508
   95SAPS     N 9343   0.363   0.694   6.058 -0.5674  0.0081  0.1454
   95SAPS   HN1 9344   0.445   0.661   6.003 -0.3778 -1.7642  1.3856
   95SAPS   HN2 9345   0.398   0.760   6.131 -1.5440 -1.1528  1.7519
   95SAPS   HN3 9346   0.339   0.603   6.104  1.9662  0.0619  1.8297
   95SAPS   C12 9347   0.246   0.747   5.985  0.1826  1.0785 -0.6417
   95SAPS  H12A 9348   0.192   0.804   6.059 -1.0388 -0.9104  0.0836
   95SAPS   C13 9349   0.274   0.838   5.869 -0.2270  0.2197 -0.3765
   95SAPS  O13A 9350   0.395   0.873   5.850  0.1155 -0.0135 -0.3748
   95SAPS  O13B 9351   0.182   0.891   5.805  0.3148 -0.5098 -0.3447
   95SAPS   C11 9352   0.158   0.629   5.946  0.4809 -0.5640 -0.0898
   95SAPS  H11A 9353   0.200   0.581   5.855 -1.5204 -0.7968 -0.9548
   95SAPS  H11B 9354   0.065   0.683   5.916  1.6418  0.2007 -2.6014
   95SAPS     P 9355   0.003   0.459   6.070 -0.6158  0.0237 -0.0587
   95SAPS   O13 9356  -0.114   0.544   6.076  0.3754  0.6205  0.5523
   95SAPS   O14 9357  -0.002   0.357   5.967 -0.2913  0.0877 -0.2743
   95SAPS   O12 9358   0.141   0.529   6.052  0.3864 -0.1171  0.2034
   95SAPS   O11 9359   0.011   0.378   6.208 -0.4383  0.0036 -0.2868
   95SAPS    C1 9360   0.079   0.419   6.329  0.3009 -0.4688  0.5583
   95SAPS    HA 9361   0.097   0.328   6.389  1.0148  0.4560  1.8042
   95SAPS    HB 9362   0.187   0.441   6.314  0.9422 -2.3089  2.1263
   95SAPS    C2 9363   0.004   0.528   6.411 -0.2133 -0.4981  0.2448
   95SAPS    HS 9364  -0.038   0.604   6.341  0.4401 -1.5728 -1.3746
   95SAPS   O21 9365   0.105   0.582   6.501  0.0564  0.6619 -0.0247
   95SAPS   C21 9366   0.146   0.699   6.481  0.3507  0.4875  0.2040
   95SAPS   O22 9367   0.119   0.782   6.395  0.0954 -0.1907 -0.7842
   95SAPS   C22 9368   0.255   0.729   6.585 -0.1861 -0.1888 -0.1675
   95SAPS   H2R 9369   0.302   0.638   6.627  1.8776  1.9213  2.4907
   95SAPS   H2S 9370   0.333   0.781   6.524  0.6478  0.5634  1.4636
   95SAPS    C3 9371  -0.118   0.462   6.493 -0.5863 -0.4941  0.1175
   95SAPS    HX 9372  -0.082   0.368   6.540  2.0333  0.3152 -0.1198
   95SAPS    HY 9373  -0.186   0.439   6.408  1.7208  2.2316 -2.7393
   95SAPS   O31 9374  -0.178   0.553   6.586 -0.0031  0.1097 -0.2262
   95SAPS   C31 9375  -0.254   0.658   6.538  0.0792 -0.3116  0.1583
   95SAPS   O32 9376  -0.275   0.679   6.421 -0.1938  0.0557 -0.3034
   95SAPS   C32 9377  -0.293   0.752   6.660 -0.1356  0.2601  0.1496
   95SAPS   H2X 9378  -0.396   0.791   6.647 -0.0202 -0.0180 -1.9223
   95SAPS   H2Y 9379  -0.218   0.834   6.658  2.5338 -1.9601  1.5451
   95SAPS   C23 9380   0.222   0.818   6.706 -0.4510 -0.8550  0.3681
   95SAPS   H3R 9381   0.322   0.829   6.753 -0.0755 -0.0208 -0.6003
   95SAPS   H3S 9382   0.153   0.765   6.775 -2.0918 -0.6505 -1.0732
   95SAPS   C24 9383   0.153   0.945   6.680  0.3018 -0.2394  0.4680
   95SAPS   H4R 9384   0.130   0.996   6.776 -0.6716 -1.4111  0.8803
   95SAPS   H4S 9385   0.050   0.935   6.640  0.7260 -1.4366 -0.3895
   95SAPS   C25 9386   0.244   1.036   6.590  0.1247  0.0404  0.0842
   95SAPS   H5R 9387   0.326   0.983   6.540  1.4040  1.2883  0.8148
   95SAPS   C26 9388   0.249   1.171   6.593 -0.5656 -0.2470  0.0356
   95SAPS   H6R 9389   0.322   1.223   6.528 -1.2519  0.4211 -0.2213
   95SAPS   C27 9390   0.157   1.261   6.669 -0.3368  0.7016 -0.5359
   95SAPS   H7R 9391   0.206   1.291   6.764 -0.0949  3.0544 -1.3449
   95SAPS   H7S 9392   0.065   1.213   6.707 -0.2805  1.9279  1.2260
   95SAPS   C28 9393   0.121   1.395   6.608 -0.7432 -0.2555 -0.0783
   95SAPS   H8R 9394   0.025   1.387   6.554  0.9845 -3.9855 -3.0836
   95SAPS   C29 9395   0.200   1.501   6.602  0.7164  0.0027  0.5198
   95SAPS   H9R 9396   0.166   1.589   6.545  3.7476  0.6090 -0.5408
   95SAPS  C210 9397   0.342   1.512   6.647  0.6390 -0.2458  0.3398
   95SAPS  H10R 9398   0.411   1.508   6.560 -0.8648  0.0902 -0.9125
   95SAPS  H10S 9399   0.363   1.436   6.726  3.5294  1.1768  1.1163
   95SAPS  C211 9400   0.375   1.642   6.720  0.1315 -0.1376  0.2367
   95SAPS  H11R 9401   0.370   1.730   6.654 -0.1336  1.5604  2.3996
   95SAPS  C212 9402   0.377   1.663   6.853 -0.3910 -0.3222 -0.1739
   95SAPS  H12R 9403   0.398   1.764   6.890 -0.9278 -0.4466  0.4936
   95SAPS  C213 9404   0.379   1.552   6.955 -0.0357 -0.1158 -0.5110
   95SAPS  H13R 9405   0.429   1.585   7.048  0.6497 -1.4646 -0.3830
   95SAPS  H13S 9406   0.436   1.464   6.918  0.0158 -0.2375 -0.1509
   95SAPS  C214 9407   0.237   1.509   6.992  0.3881  0.0460  0.8022
   95SAPS  H14R 9408   0.168   1.490   6.909  2.5895  0.2324 -1.1788
   95SAPS  C215 9409   0.190   1.507   7.127  0.0806  0.1964  0.0785
   95SAPS  H15R 9410   0.084   1.478   7.134 -0.1577  0.8893 -0.4824
   95SAPS  C216 9411   0.251   1.560   7.250  0.3446  1.0992  0.5652
   95SAPS  H16R 9412   0.359   1.532   7.246  0.3119  0.8411 -4.6912
   95SAPS  H16S 9413   0.199   1.519   7.339  2.1373 -0.1384  1.0904
   95SAPS  C217 9414   0.248   1.714   7.261  0.2785  0.3323  0.4741
   95SAPS  H17R 9415   0.146   1.756   7.258  0.1664  0.0249 -0.3617
   95SAPS  H17S 9416   0.284   1.758   7.165 -1.4146  0.2947 -0.2035
   95SAPS  C218 9417   0.323   1.779   7.374 -0.2704 -0.3276 -0.7038
   95SAPS  H18R 9418   0.433   1.758   7.376 -0.1935  0.1292  0.8485
   95SAPS  H18S 9419   0.280   1.738   7.467 -1.6487  3.4863  0.5097
   95SAPS  C219 9420   0.323   1.932   7.383  0.9612 -0.2836 -0.3859
   95SAPS  H19R 9421   0.410   1.967   7.442  0.1587  4.1859 -1.4687
   95SAPS  H19S 9422   0.231   1.959   7.440  0.3953 -1.1790 -0.8549
   95SAPS  C220 9423   0.326   2.018   7.259 -0.1451  0.5159  0.0609
   95SAPS  H20R 9424   0.303   2.122   7.291  0.9676 -0.3997  4.5523
   95SAPS  H20S 9425   0.240   1.997   7.192  0.0250  1.2527 -0.4013
   95SAPS  H20T 9426   0.419   2.000   7.202 -1.2369 -2.3887 -1.0050
   95SAPS   C33 9427  -0.287   0.669   6.791 -0.5354 -0.4074  0.1280
   95SAPS   H3X 9428  -0.304   0.562   6.768  1.7883 -0.2199 -3.0942
   95SAPS   H3Y 9429  -0.360   0.713   6.862  0.7252  2.1352  0.0039
   95SAPS   C34 9430  -0.153   0.682   6.863 -0.5937 -0.4856  0.4466
   95SAPS   H4X 9431  -0.143   0.790   6.883 -3.1357 -0.2997  1.1550
   95SAPS   H4Y 9432  -0.067   0.651   6.800 -2.1567 -2.4189 -0.8838
   95SAPS   C35 9433  -0.153   0.603   6.988 -0.3107  1.0149  0.1883
   95SAPS   H5X 9434  -0.187   0.500   6.965 -0.7446  1.4193 -1.0769
   95SAPS   H5Y 9435  -0.228   0.653   7.053 -2.3103  0.6872 -1.7456
   95SAPS   C36 9436  -0.004   0.590   7.041  0.1509  0.3480  0.6223
   95SAPS   H6X 9437   0.067   0.568   6.959 -0.6718 -0.9100  0.2287
   95SAPS   H6Y 9438  -0.001   0.501   7.108 -3.7602  1.4740  2.5949
   95SAPS   C37 9439   0.042   0.703   7.127  1.1212  0.3654  0.4036
   95SAPS   H7X 9440  -0.003   0.695   7.228 -0.6394  1.8942 -0.2055
   95SAPS   H7Y 9441   0.003   0.794   7.077  0.5201 -0.1548 -0.0857
   95SAPS   C38 9442   0.194   0.730   7.136  0.3474 -0.2688 -1.0297
   95SAPS   H8X 9443   0.246   0.644   7.088  2.4679  0.4032 -0.0563
   95SAPS   H8Y 9444   0.218   0.733   7.244 -1.9306 -0.7370 -0.4535
   95SAPS   C39 9445   0.250   0.850   7.059  0.3101 -0.3950  0.0525
   95SAPS   H9X 9446   0.175   0.889   6.987 -1.9498 -2.5743  1.0802
   95SAPS   H9Y 9447   0.342   0.811   7.012  1.3000 -0.2746  1.8157
   95SAPS  C310 9448   0.284   0.966   7.146 -0.3286 -1.0388 -0.4388
   95SAPS  H10X 9449   0.347   1.043   7.096  0.9357 -0.6784  1.5680
   95SAPS  H10Y 9450   0.341   0.928   7.234 -0.6541 -1.5986 -0.4636
   95SAPS  C311 9451   0.155   1.027   7.212 -1.0006  0.1001  0.4178
   95SAPS  H11X 9452   0.119   0.950   7.284 -0.3474 -1.4334 -0.8424
   95SAPS  H11Y 9453   0.081   1.045   7.131  0.8055 -2.2308 -1.8985
   95SAPS  C312 9454   0.192   1.161   7.283  0.8594  0.0799 -0.0409
   95SAPS  H12X 9455   0.096   1.207   7.316  0.3656  0.2099 -1.5886
   95SAPS  H12Y 9456   0.238   1.229   7.209 -0.3824  1.3657  0.3105
   95SAPS  C313 9457   0.275   1.153   7.409  0.5076 -0.1342  0.2270
   95SAPS  H13X 9458   0.299   1.257   7.442 -1.5376  0.3873  0.1899
   95SAPS  H13Y 9459   0.378   1.112   7.401  0.6840  0.0927  1.2231
   95SAPS  C314 9460   0.200   1.078   7.514  0.2914  0.8231 -0.7069
   95SAPS  H14X 9461   0.185   0.971   7.488 -0.4632  0.3696  1.3985
   95SAPS  H14Y 9462   0.096   1.112   7.534 -0.3227 -0.9449 -0.7513
   95SAPS  C315 9463   0.271   1.092   7.645 -0.5489  1.0076  0.3728
   95SAPS  H15X 9464   0.270   1.198   7.677 -1.3025  1.5142 -1.2133
   95SAPS  H15Y 9465   0.369   1.045   7.624 -1.2491 -0.3475  0.0121
   95SAPS  C316 9466   0.202   1.010   7.756  0.5283 -0.3428  0.1761
   95SAPS  H16X 9467   0.172   0.915   7.708 -2.1811  0.0717  0.8544
   95SAPS  H16Y 9468   0.103   1.057   7.774  0.6463  0.1925 -0.5131
   95SAPS  C317 9469   0.287   0.976   7.881 -0.0016  0.3281  0.0473
   95SAPS  H17X 9470   0.320   1.067   7.935  1.7054 -0.7744  0.9711
   95SAPS  H17Y 9471   0.375   0.918   7.845 -1.1537 -0.1182 -2.2967
   95SAPS  C318 9472   0.215   0.875   7.977  0.1499 -0.3992  0.3468
   95SAPS  H18X 9473   0.279   0.837   8.059  0.2135 -0.8197  0.1048
   95SAPS  H18Y 9474   0.188   0.792   7.908  1.2038  0.3941 -1.0707
   95SAPS  H18Z 9475   0.121   0.914   8.023 -1.4852 -1.0794 -2.2153
   96SAPS     N 9476   5.856   1.761   5.763  0.3569 -0.4667 -0.5973
   96SAPS   HN1 9477   5.858   1.685   5.693 -1.5061 -0.0444 -1.1716
   96SAPS   HN2 9478   5.899   1.725   5.850 -0.6401  1.9838  1.0411
   96SAPS   HN3 9479   5.757   1.791   5.779  0.6629  1.8229 -2.5340
   96SAPS   C12 9480   5.947   1.869   5.720  1.0556  0.6685 -0.2654
   96SAPS  H12A 9481   6.041   1.825   5.690  0.9008  1.1912 -1.5945
   96SAPS   C13 9482   5.905   1.956   5.598  0.7441 -0.4652  0.0896
   96SAPS  O13A 9483   5.797   1.921   5.534 -0.1381  0.1192  0.5795
   96SAPS  O13B 9484   5.983   2.038   5.551 -0.7510  0.2082 -0.8896
   96SAPS   C11 9485   5.973   1.961   5.837  0.1555 -0.2050  0.2214
   96SAPS  H11A 9486   5.875   2.002   5.866 -0.4681 -1.7256  0.3750
   96SAPS  H11B 9487   6.044   2.040   5.804 -2.7499  2.0962 -0.9394
   96SAPS     P 9488   6.160   1.916   6.018  0.1262 -0.4416 -0.0919
   96SAPS   O13 9489   6.168   1.833   6.139  0.2146  0.1228  0.1100
   96SAPS   O14 9490   6.266   1.876   5.921 -0.2049  0.0342  0.3086
   96SAPS   O12 9491   6.020   1.897   5.952 -0.1313  0.4178 -0.0113
   96SAPS   O11 9492   6.157   2.067   6.067  0.4026 -0.3852 -0.5310
   96SAPS    C1 9493   6.262   2.120   6.142  0.2863  0.3605 -0.3383
   96SAPS    HA 9494   6.350   2.053   6.151 -0.1890 -0.3170 -0.6908
   96SAPS    HB 9495   6.298   2.218   6.103  1.0448  0.9985  1.7997
   96SAPS    C2 9496   6.222   2.138   6.293 -0.7836 -0.1251 -0.2229
   96SAPS    HS 9497   6.304   2.187   6.349  0.8601 -2.2824 -0.6246
   96SAPS   O21 9498   6.185   2.014   6.366 -0.5097  0.3523 -0.0402
   96SAPS   C21 9499   6.275   1.932   6.402 -0.2981 -0.1819  0.5446
   96SAPS   O22 9500   6.393   1.938   6.372  0.1572 -0.2015  0.0753
   96SAPS   C22 9501   6.217   1.820   6.481 -0.0987  0.8855  0.1840
   96SAPS   H2R 9502   6.120   1.859   6.518  0.5191  0.9189  1.8802
   96SAPS   H2S 9503   6.198   1.730   6.419 -1.7478  1.3416 -0.0239
   96SAPS    C3 9504   6.096   2.233   6.306 -0.0491 -0.0991  0.3390
   96SAPS    HX 9505   6.016   2.218   6.230  0.6017 -2.0479 -0.0038
   96SAPS    HY 9506   6.143   2.331   6.281  1.6574  0.1278  3.8633
   96SAPS   O31 9507   6.042   2.225   6.434 -0.5629 -0.1148  0.0538
   96SAPS   C31 9508   6.046   2.341   6.506  0.9259  0.2433  0.3868
   96SAPS   O32 9509   6.110   2.443   6.484  0.2302  1.4721  0.1371
   96SAPS   C32 9510   5.960   2.330   6.627 -0.0541  0.4831 -0.6163
   96SAPS   H2X 9511   5.948   2.226   6.664 -2.0111  0.7235 -0.4952
   96SAPS   H2Y 9512   5.856   2.366   6.616  0.0451  1.1312  0.4387
   96SAPS   C23 9513   6.304   1.771   6.599 -1.1514 -0.2284  0.2837
   96SAPS   H3R 9514   6.298   1.852   6.675 -0.2052  0.9818 -0.9000
   96SAPS   H3S 9515   6.413   1.763   6.580 -1.1649 -0.7795  0.4145
   96SAPS   C24 9516   6.258   1.640   6.665  0.1187  0.1526 -0.2725
   96SAPS   H4R 9517   6.253   1.568   6.581  0.1832  1.1144 -1.1174
   96SAPS   H4S 9518   6.152   1.650   6.699 -0.1550 -0.9976 -0.7469
   96SAPS   C25 9519   6.358   1.597   6.772 -0.3208 -0.1756 -0.6325
   96SAPS   H5R 9520   6.459   1.564   6.742  0.6885  1.3633  0.8921
   96SAPS   C26 9521   6.327   1.574   6.902 -0.9772  0.4943  0.0024
   96SAPS   H6R 9522   6.410   1.564   6.973 -1.2902 -4.0900  0.0146
   96SAPS   C27 9523   6.202   1.593   6.976  0.6333  0.1139 -0.7467
   96SAPS   H7R 9524   6.134   1.645   6.905 -1.0516 -1.3873 -0.3200
   96SAPS   H7S 9525   6.214   1.667   7.058 -0.5426  1.9494 -2.1535
   96SAPS   C28 9526   6.142   1.457   7.015  0.3587 -0.7244  0.2669
   96SAPS   H8R 9527   6.115   1.393   6.930  2.4690 -0.6513 -0.5124
   96SAPS   C29 9528   6.131   1.403   7.136 -0.4487  1.1924  0.0699
   96SAPS   H9R 9529   6.091   1.301   7.140 -0.0794  1.0454 -0.0356
   96SAPS  C210 9530   6.178   1.472   7.263  1.1624 -0.0205  0.0128
   96SAPS  H10R 9531   6.135   1.574   7.262  0.1993 -0.4046 -1.2326
   96SAPS  H10S 9532   6.286   1.496   7.259  0.7284  2.7457  2.1699
   96SAPS  C211 9533   6.146   1.395   7.388  0.2914 -0.1715  0.0409
   96SAPS  H11R 9534   6.050   1.340   7.385 -0.0531  0.4651 -0.8890
   96SAPS  C212 9535   6.228   1.380   7.494  0.3651 -0.1569  0.1357
   96SAPS  H12R 9536   6.194   1.335   7.588 -2.5339  2.3559  0.4350
   96SAPS  C213 9537   6.362   1.452   7.500 -0.1434  0.5728 -1.3201
   96SAPS  H13R 9538   6.384   1.479   7.605  0.2265 -1.2036 -0.9021
   96SAPS  H13S 9539   6.357   1.548   7.444 -2.1731  0.8922 -0.6791
   96SAPS  C214 9540   6.465   1.369   7.437 -0.1711  0.4901  0.2353
   96SAPS  H14R 9541   6.423   1.314   7.351 -0.9548 -0.8088  1.4015
   96SAPS  C215 9542   6.593   1.357   7.477 -0.4954 -0.1784 -0.3903
   96SAPS  H15R 9543   6.666   1.298   7.421  1.9201  0.0825  2.2098
   96SAPS  C216 9544   6.655   1.435   7.599  0.8095  0.2080  0.6073
   96SAPS  H16R 9545   6.580   1.490   7.660 -1.0382 -1.4617 -0.0363
   96SAPS  H16S 9546   6.723   1.510   7.554 -0.1676  0.6067 -0.2695
   96SAPS  C217 9547   6.745   1.340   7.683  0.1958 -0.7216  0.2763
   96SAPS  H17R 9548   6.804   1.384   7.765  1.6628 -2.9074  0.4879
   96SAPS  H17S 9549   6.826   1.303   7.617 -0.0334  0.1328 -0.5104
   96SAPS  C218 9550   6.670   1.225   7.748  0.6400  0.2624  0.7176
   96SAPS  H18R 9551   6.739   1.143   7.778 -0.3518 -1.1943 -0.8152
   96SAPS  H18S 9552   6.598   1.177   7.678  1.2815  2.2722 -1.4416
   96SAPS  C219 9553   6.588   1.263   7.870 -0.7025 -0.1318  0.0753
   96SAPS  H19R 9554   6.527   1.173   7.894 -1.8965  0.3507 -1.1107
   96SAPS  H19S 9555   6.518   1.343   7.841  1.0199  1.1585 -0.7412
   96SAPS  C220 9556   6.668   1.296   7.988  0.0548  0.0483 -0.3874
   96SAPS  H20R 9557   6.732   1.212   8.023  1.6370  1.8259  1.2484
   96SAPS  H20S 9558   6.603   1.316   8.076  3.1491  2.8825  1.4646
   96SAPS  H20T 9559   6.733   1.381   7.960  1.4594 -1.2062 -1.0932
   96SAPS   C33 9560   6.024   2.400   6.754 -0.0170 -0.2047  0.4825
   96SAPS   H3X 9561   6.071   2.495   6.723  0.3540  0.3093  2.5295
   96SAPS   H3Y 9562   6.100   2.323   6.781  0.9862  0.1693 -1.1442
   96SAPS   C34 9563   5.916   2.425   6.859  0.0266  0.2843  0.1847
   96SAPS   H4X 9564   5.846   2.505   6.827  2.4650  1.4904 -2.4841
   96SAPS   H4Y 9565   5.967   2.460   6.951 -1.1329  0.9549  0.5946
   96SAPS   C35 9566   5.843   2.294   6.900 -0.1195  0.2088 -0.4348
   96SAPS   H5X 9567   5.906   2.221   6.956 -0.4091 -1.3161 -2.0180
   96SAPS   H5Y 9568   5.791   2.246   6.814 -1.4835  0.7582  0.0621
   96SAPS   C36 9569   5.731   2.328   7.010  0.5187  0.1989  0.9770
   96SAPS   H6X 9570   5.672   2.234   7.014 -1.2302  1.1187 -1.1222
   96SAPS   H6Y 9571   5.661   2.406   6.971 -0.1302  0.3843  2.4448
   96SAPS   C37 9572   5.788   2.353   7.149 -0.5222 -0.2782  0.2734
   96SAPS   H7X 9573   5.878   2.418   7.153  1.9796 -3.4190 -0.3709
   96SAPS   H7Y 9574   5.813   2.259   7.203  1.6975  0.1277  0.0611
   96SAPS   C38 9575   5.687   2.414   7.253  0.3746 -0.1904  0.1285
   96SAPS   H8X 9576   5.587   2.372   7.229  0.5745 -0.3322 -0.4865
   96SAPS   H8Y 9577   5.673   2.523   7.235  0.4949 -0.2613 -0.4162
   96SAPS   C39 9578   5.725   2.372   7.395 -0.5819  0.7830 -0.4666
   96SAPS   H9X 9579   5.830   2.383   7.429 -0.1669  2.7738 -2.2033
   96SAPS   H9Y 9580   5.707   2.262   7.393 -4.1671  1.2508 -0.4475
   96SAPS  C310 9581   5.631   2.434   7.491 -0.5595  0.3697  0.7574
   96SAPS  H10X 9582   5.524   2.417   7.467 -0.3760  1.6175 -1.1449
   96SAPS  H10Y 9583   5.654   2.540   7.469  0.7346 -0.3276 -1.5194
   96SAPS  C311 9584   5.658   2.390   7.637  0.2463 -1.0295  0.6178
   96SAPS  H11X 9585   5.675   2.280   7.631  2.9052 -0.6072 -1.2554
   96SAPS  H11Y 9586   5.566   2.407   7.696  0.2506  0.8888  0.1336
   96SAPS  C312 9587   5.769   2.468   7.697  0.3710  0.6916 -0.4683
   96SAPS  H12X 9588   5.749   2.576   7.679  3.0941  1.1696 -1.1204
   96SAPS  H12Y 9589   5.867   2.450   7.648  1.0855 -0.0859  1.1749
   96SAPS  C313 9590   5.795   2.447   7.849 -0.1564 -0.8362 -0.2832
   96SAPS  H13X 9591   5.872   2.514   7.894 -1.8276 -1.2465  3.6545
   96SAPS  H13Y 9592   5.830   2.343   7.861  2.0659 -0.1798 -0.6163
   96SAPS  C314 9593   5.668   2.468   7.936  0.2501 -0.1455  0.0773
   96SAPS  H14X 9594   5.601   2.378   7.938  1.2812 -0.9531  3.0831
   96SAPS  H14Y 9595   5.607   2.556   7.908  0.3421 -0.0936  0.0410
   96SAPS  C315 9596   5.695   2.505   8.078  0.4934  0.1915  0.0836
   96SAPS  H15X 9597   5.758   2.596   8.093  0.7471 -0.2412  1.7912
   96SAPS  H15Y 9598   5.743   2.423   8.136  0.0303 -1.1540 -1.3760
   96SAPS  C316 9599   5.555   2.509   8.148 -0.2436 -0.5222 -0.1327
   96SAPS  H16X 9600   5.507   2.410   8.163 -1.2009  0.0272  0.5155
   96SAPS  H16Y 9601   5.478   2.561   8.087 -2.1222 -0.7616  1.9060
   96SAPS  C317 9602   5.576   2.561   8.295 -0.0211  0.1989  0.2947
   96SAPS  H17X 9603   5.638   2.654   8.290  2.3405 -1.2691  0.6525
   96SAPS  H17Y 9604   5.640   2.483   8.340 -0.1905 -1.2843 -1.8707
   96SAPS  C318 9605   5.445   2.580   8.373  0.7373  0.0319  0.1924
   96SAPS  H18X 9606   5.364   2.511   8.342  1.7461 -0.2081 -2.1345
   96SAPS  H18Y 9607   5.407   2.683   8.357  1.9576  1.2434  4.0417
   96SAPS  H18Z 9608   5.451   2.553   8.480  0.0006 -1.9445 -0.2254
   97SAPS     N 9609   0.992   0.832   5.480 -0.4927 -0.1313 -0.0642
   97SAPS   HN1 9610   1.050   0.747   5.467 -0.4193 -0.4079  1.9010
   97SAPS   HN2 9611   0.976   0.878   5.388 -0.1537 -0.0343 -0.0763
   97SAPS   HN3 9612   1.041   0.900   5.541 -1.0678 -0.4139  0.7222
   97SAPS   C12 9613   0.860   0.779   5.540  0.4398  0.0111  0.5374
   97SAPS  H12A 9614   0.782   0.849   5.513  1.5389  2.2543  2.8655
   97SAPS   C13 9615   0.830   0.645   5.479 -0.7506 -0.0115  0.4818
   97SAPS  O13A 9616   0.909   0.582   5.400  0.6373  0.1020  0.4474
   97SAPS  O13B 9617   0.710   0.605   5.495 -0.3782  0.6943 -0.3049
   97SAPS   C11 9618   0.863   0.766   5.699 -0.4830 -0.3551 -0.1797
   97SAPS  H11A 9619   0.922   0.854   5.730 -1.2566 -0.7122  2.5209
   97SAPS  H11B 9620   0.912   0.669   5.723 -1.6121 -0.1775  3.2749
   97SAPS     P 9621   0.696   0.728   5.895  0.2925 -0.2106 -0.0835
   97SAPS   O13 9622   0.661   0.846   5.979  0.0579 -0.4985  0.3900
   97SAPS   O14 9623   0.587   0.628   5.895 -0.0816  0.3992  0.2426
   97SAPS   O12 9624   0.732   0.769   5.749 -0.0546 -0.1306 -0.5053
   97SAPS   O11 9625   0.815   0.660   5.960  0.0578 -0.5076  0.5022
   97SAPS    C1 9626   0.809   0.563   6.064 -0.1333  0.4858 -0.0545
   97SAPS    HA 9627   0.727   0.488   6.054 -1.1143  1.2746  1.5687
   97SAPS    HB 9628   0.905   0.508   6.069 -0.2888  0.2550  0.4297
   97SAPS    C2 9629   0.799   0.642   6.200  0.6572  0.5460  0.5431
   97SAPS    HS 9630   0.704   0.699   6.192 -0.0342 -0.8144 -2.6288
   97SAPS   O21 9631   0.917   0.723   6.213 -0.0078  0.7541  0.4092
   97SAPS   C21 9632   0.903   0.847   6.257 -0.1637 -0.7098 -0.1301
   97SAPS   O22 9633   0.812   0.891   6.326  0.3321 -0.3249  0.3672
   97SAPS   C22 9634   1.032   0.922   6.218  0.6185 -0.7564  0.2724
   97SAPS   H2R 9635   1.114   0.847   6.209  0.9794 -0.5719  1.8288
   97SAPS   H2S 9636   1.015   0.957   6.114 -1.1621  2.3219  1.4746
   97SAPS    C3 9637   0.794   0.540   6.317  0.3384 -0.4023  0.1750
   97SAPS    HX 9638   0.877   0.469   6.298 -0.5432 -0.9708 -1.8373
   97SAPS    HY 9639   0.711   0.467   6.316  0.1664 -0.2096 -0.5842
   97SAPS   O31 9640   0.817   0.594   6.451 -0.5100 -0.4512 -0.0074
   97SAPS   C31 9641   0.714   0.655   6.510 -0.2135  0.3123  0.3475
   97SAPS   O32 9642   0.598   0.656   6.472 -0.2008  0.3867 -0.0989
   97SAPS   C32 9643   0.756   0.705   6.649  0.2751 -0.3111  0.5264
   97SAPS   H2X 9644   0.841   0.777   6.641  0.0163 -0.0194  0.3727
   97SAPS   H2Y 9645   0.785   0.616   6.709 -0.9552  0.3918  2.2413
   97SAPS   C23 9646   1.070   1.022   6.321  0.2768  0.5829  0.2898
   97SAPS   H3R 9647   0.982   1.089   6.326 -0.1016  0.0123  1.7420
   97SAPS   H3S 9648   1.155   1.082   6.282  0.8205 -1.0998 -1.2776
   97SAPS   C24 9649   1.099   0.971   6.464  0.5177 -0.3273 -0.0354
   97SAPS   H4R 9650   1.201   1.008   6.486  0.0835 -0.9085  3.4773
   97SAPS   H4S 9651   1.103   0.860   6.470  0.4186 -0.3367 -0.1306
   97SAPS   C25 9652   1.001   1.021   6.557 -0.5302  0.3155 -0.0976
   97SAPS   H5R 9653   0.901   1.034   6.513 -1.2268 -0.1602  1.2840
   97SAPS   C26 9654   1.028   1.036   6.687 -0.7241 -0.3226  0.7083
   97SAPS   H6R 9655   0.971   1.106   6.749 -0.4009  1.4357 -0.8798
   97SAPS   C27 9656   1.163   1.013   6.751 -0.6243  0.8949 -0.5342
   97SAPS   H7R 9657   1.204   1.104   6.800  0.8777 -0.7131  1.3548
   97SAPS   H7S 9658   1.242   0.980   6.680  1.3369  1.1791  1.4292
   97SAPS   C28 9659   1.144   0.914   6.855  0.1395  0.1915 -0.0847
   97SAPS   H8R 9660   1.104   0.818   6.820 -0.3188  0.4411 -0.2531
   97SAPS   C29 9661   1.159   0.924   6.992 -0.1638  0.1665 -0.1156
   97SAPS   H9R 9662   1.145   0.836   7.056 -2.2479  2.7204  3.2514
   97SAPS  C210 9663   1.209   1.041   7.078 -0.6593 -0.2839 -0.2271
   97SAPS  H10R 9664   1.243   1.134   7.026  1.6648 -0.9466  0.0184
   97SAPS  H10S 9665   1.293   1.019   7.146 -2.0005 -1.6001  1.0573
   97SAPS  C211 9666   1.104   1.087   7.175 -0.5229 -0.1024 -0.2455
   97SAPS  H11R 9667   1.025   1.137   7.118 -0.8128 -1.7340 -1.3706
   97SAPS  C212 9668   1.094   1.081   7.309 -0.4856  0.8191  0.0835
   97SAPS  H12R 9669   1.007   1.129   7.356  0.9920  2.8430  0.8924
   97SAPS  C213 9670   1.198   1.018   7.400  0.2806 -0.1625  0.6705
   97SAPS  H13R 9671   1.301   1.028   7.361 -0.2026  1.5390 -0.2752
   97SAPS  H13S 9672   1.156   0.917   7.417 -1.3808  0.4562  0.4142
   97SAPS  C214 9673   1.204   1.101   7.522  0.0451  0.2113 -0.0966
   97SAPS  H14R 9674   1.196   1.210   7.510  0.4016  0.3609  0.9122
   97SAPS  C215 9675   1.226   1.049   7.642  0.1225 -0.6629  0.1070
   97SAPS  H15R 9676   1.236   1.115   7.730  0.0485  1.6077 -1.5139
   97SAPS  C216 9677   1.258   0.907   7.677  0.3993 -0.0865 -0.4229
   97SAPS  H16R 9678   1.264   0.857   7.578 -0.0234  0.6474 -0.8321
   97SAPS  H16S 9679   1.178   0.867   7.742  1.5092  0.7248  1.5479
   97SAPS  C217 9680   1.387   0.892   7.753 -0.0614  0.9656 -0.1707
   97SAPS  H17R 9681   1.379   0.947   7.849 -0.4087  1.1560 -0.3076
   97SAPS  H17S 9682   1.474   0.942   7.704  2.8738 -2.6747  0.8571
   97SAPS  C218 9683   1.413   0.748   7.788  0.2368 -0.7637 -0.4903
   97SAPS  H18R 9684   1.361   0.680   7.718  1.5137 -1.9796 -0.3022
   97SAPS  H18S 9685   1.365   0.734   7.887  1.5692  0.1662  0.3312
   97SAPS  C219 9686   1.559   0.708   7.801 -0.4124  0.1315 -1.0200
   97SAPS  H19R 9687   1.616   0.774   7.731  1.1206 -0.2324 -0.1532
   97SAPS  H19S 9688   1.581   0.607   7.760 -0.4615 -0.0783 -0.5290
   97SAPS  C220 9689   1.607   0.728   7.943  0.9374 -0.0853 -0.6728
   97SAPS  H20R 9690   1.713   0.762   7.943  0.0620  3.0295 -2.7114
   97SAPS  H20S 9691   1.582   0.642   8.009 -1.8082  1.2182  0.1406
   97SAPS  H20T 9692   1.545   0.808   7.988  1.6766  0.3978 -0.5046
   97SAPS   C33 9693   0.636   0.768   6.731 -0.6680 -0.2141 -0.0566
   97SAPS   H3X 9694   0.542   0.710   6.714 -1.1615  0.7071 -0.5009
   97SAPS   H3Y 9695   0.611   0.871   6.698 -2.1694  0.0533  1.7293
   97SAPS   C34 9696   0.666   0.763   6.879  0.4967 -0.2439  0.6157
   97SAPS   H4X 9697   0.694   0.657   6.901 -1.1640 -1.0210 -0.7368
   97SAPS   H4Y 9698   0.575   0.789   6.937 -0.0095  0.6866 -0.5684
   97SAPS   C35 9699   0.786   0.855   6.910  0.2399 -0.2787 -0.6484
   97SAPS   H5X 9700   0.763   0.959   6.877  2.5551  0.8500  1.0180
   97SAPS   H5Y 9701   0.883   0.838   6.860 -0.4297  1.0219 -2.4952
   97SAPS   C36 9702   0.808   0.861   7.064 -0.0228  0.0802 -0.0150
   97SAPS   H6X 9703   0.726   0.900   7.128  1.6533  3.0819  0.4721
   97SAPS   H6Y 9704   0.880   0.944   7.079 -0.4582  0.9050 -2.1189
   97SAPS   C37 9705   0.860   0.733   7.129  0.1337  0.0824 -0.5707
   97SAPS   H7X 9706   0.927   0.690   7.052 -1.0340 -3.8547  0.3913
   97SAPS   H7Y 9707   0.780   0.656   7.131  1.4355 -1.4948 -3.2306
   97SAPS   C38 9708   0.925   0.748   7.263 -0.6255 -0.1258 -0.2266
   97SAPS   H8X 9709   0.863   0.818   7.323 -0.8763 -1.2443  0.8564
   97SAPS   H8Y 9710   1.026   0.791   7.244 -0.3240 -2.0814 -3.9773
   97SAPS   C39 9711   0.941   0.612   7.342 -0.3528 -0.1527 -0.3452
   97SAPS   H9X 9712   1.002   0.535   7.290  2.0430  0.6999  1.0138
   97SAPS   H9Y 9713   0.840   0.569   7.357 -0.9587  1.4133  0.2741
   97SAPS  C310 9714   1.001   0.632   7.479 -0.3778  0.0710  0.0531
   97SAPS  H10X 9715   0.947   0.699   7.549  0.9700  0.4125  0.7894
   97SAPS  H10Y 9716   1.100   0.678   7.458 -0.8925  0.7302 -1.0282
   97SAPS  C311 9717   1.036   0.500   7.546 -0.0325  0.1687 -0.0940
   97SAPS  H11X 9718   1.140   0.469   7.523 -0.5673 -0.4190 -1.8117
   97SAPS  H11Y 9719   0.972   0.422   7.500  0.6285 -1.2624  1.2850
   97SAPS  C312 9720   1.016   0.516   7.703  0.7964  0.3427 -0.3179
   97SAPS  H12X 9721   0.905   0.508   7.708  0.8449 -1.2732 -1.1619
   97SAPS  H12Y 9722   1.056   0.614   7.736 -1.1938 -0.2987  5.2159
   97SAPS  C313 9723   1.093   0.415   7.787  0.5106  0.1015  0.3228
   97SAPS  H13X 9724   1.198   0.435   7.757  0.6310 -2.3327 -1.1594
   97SAPS  H13Y 9725   1.063   0.319   7.740  0.8209  0.3840 -0.4559
   97SAPS  C314 9726   1.074   0.431   7.937 -0.3706  0.1169  0.1059
   97SAPS  H14X 9727   0.965   0.424   7.960 -0.5303 -0.1060 -0.6917
   97SAPS  H14Y 9728   1.123   0.527   7.962 -0.0720  0.2261 -0.8708
   97SAPS  C315 9729   1.155   0.325   8.009 -1.3075 -0.1465  0.1104
   97SAPS  H15X 9730   1.262   0.345   7.985 -0.4984 -0.3283  3.0724
   97SAPS  H15Y 9731   1.127   0.223   7.977  1.5574 -0.9272 -0.2043
   97SAPS  C316 9732   1.141   0.320   8.156 -0.1790 -0.7815 -0.1404
   97SAPS  H16X 9733   1.165   0.425   8.183 -1.3642  0.2448 -2.6948
   97SAPS  H16Y 9734   1.215   0.248   8.198 -0.1715 -2.4111 -2.6739
   97SAPS  C317 9735   0.997   0.274   8.198 -0.1746 -0.2374 -0.2625
   97SAPS  H17X 9736   0.980   0.170   8.164 -0.3050 -0.3441  0.1218
   97SAPS  H17Y 9737   0.923   0.340   8.149 -0.5225  2.4535  3.4245
   97SAPS  C318 9738   0.975   0.296   8.351  0.0222 -0.2371  0.0507
   97SAPS  H18X 9739   1.063   0.252   8.402  0.1148  0.2284  0.3011
   97SAPS  H18Y 9740   0.885   0.247   8.396  1.1890 -0.5395  2.1916
   97SAPS  H18Z 9741   0.969   0.404   8.378 -2.0097  0.3454 -2.3192
   98SAPS     N 9742   4.842   1.832   5.882  0.3533 -0.0040 -0.3105
   98SAPS   HN1 9743   4.847   1.924   5.931  3.2731 -1.2055  1.9342
   98SAPS   HN2 9744   4.867   1.752   5.943  0.8530  0.2623 -0.1560
   98SAPS   HN3 9745   4.928   1.820   5.826 -0.9687 -2.9243 -1.9147
   98SAPS   C12 9746   4.718   1.807   5.804 -0.3597 -0.3027  0.2147
   98SAPS  H12A 9747   4.695   1.894   5.744  1.7554 -0.3344 -0.7095
   98SAPS   C13 9748   4.743   1.692   5.698 -0.0423 -0.4148  0.2666
   98SAPS  O13A 9749   4.856   1.637   5.695  0.1339 -0.0554 -0.1931
   98SAPS  O13B 9750   4.654   1.647   5.628  0.7688  0.2084  0.0374
   98SAPS   C11 9751   4.608   1.780   5.897 -0.0166 -0.3135  0.0570
   98SAPS  H11A 9752   4.643   1.695   5.959  0.1539 -0.2433  0.0564
   98SAPS  H11B 9753   4.520   1.747   5.837  0.5395  0.0640 -0.9815
   98SAPS     P 9754   4.434   1.927   6.044 -0.1391  0.5516  0.1596
   98SAPS   O13 9755   4.357   2.027   5.975 -0.2632 -0.6681 -0.0034
   98SAPS   O14 9756   4.363   1.797   6.054  0.6982  0.5000  0.2907
   98SAPS   O12 9757   4.576   1.898   5.977  0.6996 -0.0282  0.5669
   98SAPS   O11 9758   4.471   1.986   6.186 -0.3446 -0.0347  0.1979
   98SAPS    C1 9759   4.599   1.996   6.242  0.0910 -0.5435  0.0217
   98SAPS    HA 9760   4.669   2.035   6.165  0.0272  1.1323  0.7746
   98SAPS    HB 9761   4.599   2.083   6.312  0.6315 -0.2315 -0.3587
   98SAPS    C2 9762   4.651   1.866   6.310 -0.0342 -0.2444  0.5157
   98SAPS    HS 9763   4.668   1.792   6.228 -1.1262  1.1565 -1.0343
   98SAPS   O21 9764   4.553   1.823   6.401 -0.2165 -0.2137  0.2131
   98SAPS   C21 9765   4.555   1.701   6.444 -0.4097 -1.0162  0.4832
   98SAPS   O22 9766   4.633   1.614   6.409 -0.0216  0.6752  0.6842
   98SAPS   C22 9767   4.461   1.695   6.557  0.0124  0.1038 -0.1855
   98SAPS   H2R 9768   4.412   1.792   6.578  2.2037  1.6106 -1.5928
   98SAPS   H2S 9769   4.387   1.614   6.539  0.3950 -0.1539 -0.6408
   98SAPS    C3 9770   4.787   1.892   6.379 -0.2023  0.3649  0.2120
   98SAPS    HX 9771   4.861   1.881   6.296  0.2098 -0.0812  0.6299
   98SAPS    HY 9772   4.810   1.802   6.440 -0.9435 -0.9642 -1.3733
   98SAPS   O31 9773   4.792   2.021   6.448 -0.6142  0.3322  0.3595
   98SAPS   C31 9774   4.906   2.032   6.512  0.0715  0.5719 -0.0876
   98SAPS   O32 9775   4.997   1.950   6.512 -0.0178  0.1559  0.1345
   98SAPS   C32 9776   4.907   2.164   6.593 -0.0603 -0.2328  0.6134
   98SAPS   H2X 9777   4.802   2.179   6.628 -0.0290 -0.1747  0.6842
   98SAPS   H2Y 9778   4.927   2.243   6.517 -3.4507 -1.4653 -1.8336
   98SAPS   C23 9779   4.553   1.665   6.683 -0.0000  1.0419 -0.4968
   98SAPS   H3R 9780   4.608   1.569   6.676  1.7290  1.7956  1.4799
   98SAPS   H3S 9781   4.491   1.668   6.775  1.5383  1.2376  0.5696
   98SAPS   C24 9782   4.660   1.767   6.729 -0.0629 -0.3634 -0.4688
   98SAPS   H4R 9783   4.751   1.764   6.665  0.5872  0.0923  0.4253
   98SAPS   H4S 9784   4.704   1.744   6.828 -2.3845 -0.0958  0.6694
   98SAPS   C25 9785   4.616   1.913   6.723  0.0319 -0.3216  0.0775
   98SAPS   H5R 9786   4.623   1.961   6.624 -1.4131  0.2732  0.2419
   98SAPS   C26 9787   4.600   1.997   6.832  0.6779  0.1208  0.1236
   98SAPS   H6R 9788   4.541   2.087   6.810  0.7735  0.1539 -0.0044
   98SAPS   C27 9789   4.603   1.963   6.980  0.1958 -0.1514 -0.1385
   98SAPS   H7R 9790   4.704   1.948   7.023 -0.5883 -0.2390  1.7804
   98SAPS   H7S 9791   4.535   1.876   6.997  0.3131  0.1641  2.4457
   98SAPS   C28 9792   4.531   2.066   7.068 -0.4373  0.6043 -0.0924
   98SAPS   H8R 9793   4.506   2.162   7.020  0.3816  0.8592 -0.0354
   98SAPS   C29 9794   4.474   2.041   7.188 -0.5510  0.1438  0.3814
   98SAPS   H9R 9795   4.424   2.124   7.240 -0.8473 -0.4807  1.0971
   98SAPS  C210 9796   4.482   1.914   7.272 -0.7459 -0.6060 -0.0061
   98SAPS  H10R 9797   4.435   1.829   7.219  0.9480 -2.1239  0.7829
   98SAPS  H10S 9798   4.411   1.926   7.357  0.5441  0.4871  0.9738
   98SAPS  C211 9799   4.626   1.862   7.303 -0.1004 -0.2199 -0.7201
   98SAPS  H11R 9800   4.690   1.848   7.214 -0.6041 -0.0280 -1.1190
   98SAPS  C212 9801   4.674   1.827   7.425  0.2764  0.1614 -0.4581
   98SAPS  H12R 9802   4.780   1.796   7.428  0.2539 -0.0838 -1.4830
   98SAPS  C213 9803   4.604   1.844   7.558  1.0255 -0.5029  0.3290
   98SAPS  H13R 9804   4.556   1.747   7.584 -0.8323  0.3100  0.0511
   98SAPS  H13S 9805   4.516   1.907   7.533  1.1358 -0.3985  0.2077
   98SAPS  C214 9806   4.691   1.897   7.668  0.5671 -0.7020 -0.1557
   98SAPS  H14R 9807   4.756   1.984   7.651  0.7460 -0.3528  1.9979
   98SAPS  C215 9808   4.693   1.855   7.798  0.3536  0.8624  0.7249
   98SAPS  H15R 9809   4.754   1.910   7.871  0.3315  0.8302  0.7674
   98SAPS  C216 9810   4.601   1.746   7.859  0.1656  0.1322 -0.6129
   98SAPS  H16R 9811   4.659   1.678   7.926  0.4266  0.2530 -0.7162
   98SAPS  H16S 9812   4.552   1.680   7.784  0.8324 -0.2576 -0.7168
   98SAPS  C217 9813   4.492   1.815   7.948 -0.0687 -0.2705 -0.3046
   98SAPS  H17R 9814   4.416   1.735   7.963 -0.6786  0.5602  1.2753
   98SAPS  H17S 9815   4.450   1.902   7.893  0.8596  0.4938  0.1658
   98SAPS  C218 9816   4.536   1.865   8.081  0.1491 -0.0960 -0.4612
   98SAPS  H18R 9817   4.621   1.934   8.059  0.8555 -1.1292 -1.1153
   98SAPS  H18S 9818   4.583   1.781   8.137 -1.1549 -1.2076 -0.9911
   98SAPS  C219 9819   4.438   1.935   8.170  0.1539 -0.6216 -0.4229
   98SAPS  H19R 9820   4.355   1.866   8.197  0.5820 -0.8921  0.2230
   98SAPS  H19S 9821   4.380   2.009   8.112  0.3906 -0.3809 -0.3536
   98SAPS  C220 9822   4.486   1.999   8.296  0.0031  0.4061 -1.0145
   98SAPS  H20R 9823   4.511   1.930   8.380  2.1394  0.8137 -1.2393
   98SAPS  H20S 9824   4.416   2.080   8.322  0.5230  1.1257 -1.8125
   98SAPS  H20T 9825   4.582   2.053   8.277  2.4716 -1.9376  3.1302
   98SAPS   C33 9826   5.006   2.165   6.709  0.9112 -0.2376 -0.2449
   98SAPS   H3X 9827   5.110   2.180   6.672  0.3757 -0.7905 -2.0860
   98SAPS   H3Y 9828   5.003   2.065   6.757 -0.2509  0.2036  0.6380
   98SAPS   C34 9829   4.980   2.270   6.815  0.6415 -0.5692 -0.8632
   98SAPS   H4X 9830   4.878   2.248   6.852  0.7254 -0.9125 -0.8312
   98SAPS   H4Y 9831   4.977   2.367   6.760  1.8791 -0.6185 -1.0603
   98SAPS   C35 9832   5.078   2.270   6.939  0.7374 -0.2350  0.2671
   98SAPS   H5X 9833   5.074   2.365   6.995 -0.7714 -0.6695  0.9392
   98SAPS   H5Y 9834   5.180   2.249   6.900  0.3378  0.4310 -1.1748
   98SAPS   C36 9835   5.041   2.160   7.040  0.6011 -0.3889 -0.0843
   98SAPS   H6X 9836   5.039   2.060   6.992 -0.2531  0.1765 -1.2888
   98SAPS   H6Y 9837   4.948   2.176   7.099  2.2809  0.9976  2.3663
   98SAPS   C37 9838   5.158   2.149   7.141  0.2139 -0.9461 -1.1035
   98SAPS   H7X 9839   5.249   2.143   7.078  0.0858 -1.1250 -1.2698
   98SAPS   H7Y 9840   5.145   2.052   7.194 -2.4221  0.6124  1.4718
   98SAPS   C38 9841   5.170   2.269   7.242 -0.0362 -0.5891  0.2076
   98SAPS   H8X 9842   5.067   2.287   7.279 -0.2919 -2.5191  0.5584
   98SAPS   H8Y 9843   5.209   2.365   7.201 -0.7843 -0.3716 -0.0014
   98SAPS   C39 9844   5.266   2.236   7.361  0.3927  0.4954  0.2854
   98SAPS   H9X 9845   5.364   2.276   7.326  0.4621  0.4017  0.3747
   98SAPS   H9Y 9846   5.260   2.126   7.369  2.7602  0.3099  0.0072
   98SAPS  C310 9847   5.243   2.302   7.496  0.8475  0.3620 -0.2482
   98SAPS  H10X 9848   5.199   2.403   7.483 -0.0856 -0.0105 -0.0990
   98SAPS  H10Y 9849   5.337   2.317   7.554 -1.2907  2.5665  3.0532
   98SAPS  C311 9850   5.148   2.234   7.596  0.0758 -0.2482 -0.4343
   98SAPS  H11X 9851   5.204   2.140   7.616 -1.0255 -0.8571 -0.0732
   98SAPS  H11Y 9852   5.054   2.198   7.548 -0.0398  0.2032 -0.5503
   98SAPS  C312 9853   5.122   2.329   7.713 -0.7065 -0.0120 -0.5593
   98SAPS  H12X 9854   5.051   2.280   7.782 -0.0288  0.7975  0.7616
   98SAPS  H12Y 9855   5.077   2.426   7.684  0.3234  0.1359 -1.7519
   98SAPS  C313 9856   5.249   2.359   7.795 -0.8849  0.5950  0.2638
   98SAPS  H13X 9857   5.306   2.446   7.755 -2.4247  1.9638  0.9685
   98SAPS  H13Y 9858   5.326   2.278   7.796 -0.8368  0.5658 -1.5073
   98SAPS  C314 9859   5.234   2.401   7.940  0.7227  0.4597 -0.9880
   98SAPS  H14X 9860   5.140   2.452   7.970 -0.4012 -1.7669 -0.4499
   98SAPS  H14Y 9861   5.317   2.466   7.975 -0.4482  1.4513  0.0468
   98SAPS  C315 9862   5.242   2.274   8.032  0.3375  0.7340  1.0992
   98SAPS  H15X 9863   5.341   2.225   8.021 -1.3189 -2.6193 -0.0614
   98SAPS  H15Y 9864   5.183   2.185   8.003 -1.8470  1.9787  1.4953
   98SAPS  C316 9865   5.210   2.288   8.181 -0.1944 -0.0010 -0.8133
   98SAPS  H16X 9866   5.107   2.323   8.200  0.1150  1.0331 -0.9746
   98SAPS  H16Y 9867   5.271   2.370   8.225  1.1938 -2.3814  2.0536
   98SAPS  C317 9868   5.243   2.166   8.266  0.6313  0.3491  0.2803
   98SAPS  H17X 9869   5.230   2.207   8.368 -1.8737  0.6871 -0.1236
   98SAPS  H17Y 9870   5.349   2.141   8.244  0.6214  0.8589 -0.3788
   98SAPS  C318 9871   5.151   2.043   8.246  0.9521 -0.1335 -0.0288
   98SAPS  H18X 9872   5.052   2.060   8.292  0.7065 -0.0996 -0.5643
   98SAPS  H18Y 9873   5.209   1.954   8.277  0.6099 -0.0841  0.7815
   98SAPS  H18Z 9874   5.135   2.023   8.138  1.5750 -2.1012  0.2111
   99SAPS     N 9875   4.315   6.104   5.788  0.8480  0.0563  0.2816
   99SAPS   HN1 9876   4.255   6.117   5.704  1.4629 -0.0418 -0.1777
   99SAPS   HN2 9877   4.259   6.137   5.870 -0.4329 -1.2887 -0.0009
   99SAPS   HN3 9878   4.396   6.168   5.777  0.0410  0.6960 -2.9175
   99SAPS   C12 9879   4.350   5.971   5.809  0.1366 -0.5461 -0.0889
   99SAPS  H12A 9880   4.262   5.909   5.802  1.5950 -2.9021  1.2334
   99SAPS   C13 9881   4.445   5.910   5.705 -0.6069  0.1641  0.7649
   99SAPS  O13A 9882   4.479   5.981   5.610  0.5798  0.0368  0.7781
   99SAPS  O13B 9883   4.476   5.789   5.718 -0.4717  0.1910  0.2915
   99SAPS   C11 9884   4.417   5.962   5.950 -0.2394  0.1914  0.2329
   99SAPS  H11A 9885   4.468   5.866   5.976  1.5467  0.2359 -2.7164
   99SAPS  H11B 9886   4.337   5.978   6.025  1.5899 -0.6996  2.5244
   99SAPS     P 9887   4.526   6.166   6.087 -0.3465 -0.3955  0.2895
   99SAPS   O13 9888   4.648   6.246   6.083 -0.0088  0.2700 -0.0727
   99SAPS   O14 9889   4.395   6.236   6.088  0.3047 -0.6086 -0.6102
   99SAPS   O12 9890   4.520   6.064   5.966 -0.0902 -0.3362 -0.1821
   99SAPS   O11 9891   4.533   6.061   6.207 -0.3948 -0.1863 -0.4592
   99SAPS    C1 9892   4.641   5.956   6.207  0.9048 -1.0460 -0.8461
   99SAPS    HA 9893   4.602   5.864   6.158  0.2600 -0.8962 -0.6221
   99SAPS    HB 9894   4.735   5.996   6.163  1.2271  1.8776  2.0779
   99SAPS    C2 9895   4.680   5.912   6.356  0.1193  0.4134  0.3609
   99SAPS    HS 9896   4.749   5.825   6.349  0.3833  0.7401 -2.1063
   99SAPS   O21 9897   4.564   5.891   6.438 -0.1654  0.1924  0.4372
   99SAPS   C21 9898   4.523   5.766   6.441  0.0708  0.3301  0.2818
   99SAPS   O22 9899   4.566   5.677   6.372 -0.5910 -0.2901 -0.0194
   99SAPS   C22 9900   4.429   5.743   6.557 -0.0417  0.4484  0.1443
   99SAPS   H2R 9901   4.472   5.793   6.646  0.1729  0.8057 -0.1555
   99SAPS   H2S 9902   4.332   5.790   6.528 -0.2863  0.3892  0.8479
   99SAPS    C3 9903   4.763   6.028   6.423 -0.1686 -0.3461 -1.0451
   99SAPS    HX 9904   4.698   6.118   6.426  0.9422  0.4509 -0.2489
   99SAPS    HY 9905   4.858   6.042   6.367  0.3566  2.2472  0.3433
   99SAPS   O31 9906   4.791   5.991   6.558  0.0398  0.2274  0.1427
   99SAPS   C31 9907   4.826   6.089   6.646 -0.5447 -0.6404  0.6672
   99SAPS   O32 9908   4.842   6.208   6.615 -0.1059  0.6182  0.1731
   99SAPS   C32 9909   4.840   6.032   6.790 -0.3431  0.0643  0.1703
   99SAPS   H2X 9910   4.893   6.110   6.848 -0.9399  0.9804 -0.5060
   99SAPS   H2Y 9911   4.904   5.941   6.778 -0.7124 -0.3265  1.1023
   99SAPS   C23 9912   4.413   5.601   6.594  0.3258  0.8802 -0.5698
   99SAPS   H3R 9913   4.392   5.531   6.511  2.5446 -1.7634  0.9283
   99SAPS   H3S 9914   4.311   5.596   6.639  0.2253  0.5593 -0.8257
   99SAPS   C24 9915   4.515   5.554   6.691 -0.1046 -0.7126 -0.9370
   99SAPS   H4R 9916   4.524   5.635   6.767  1.8560 -1.0929 -0.7109
   99SAPS   H4S 9917   4.617   5.559   6.648  0.1607  0.8806 -0.1800
   99SAPS   C25 9918   4.497   5.411   6.744  0.1473  0.0793  0.2161
   99SAPS   H5R 9919   4.524   5.329   6.676  0.8190  1.5735 -1.4004
   99SAPS   C26 9920   4.445   5.382   6.862  0.3192  0.2001 -0.4622
   99SAPS   H6R 9921   4.445   5.279   6.900 -0.8793 -0.1982 -1.4773
   99SAPS   C27 9922   4.391   5.478   6.977  0.1105  0.4932  1.1951
   99SAPS   H7R 9923   4.301   5.426   7.016 -0.7626  1.4429  0.4894
   99SAPS   H7S 9924   4.361   5.572   6.925 -0.8722  0.1008  1.0362
   99SAPS   C28 9925   4.505   5.517   7.071 -0.0051 -0.1051 -0.2477
   99SAPS   H8R 9926   4.595   5.561   7.025 -1.0430  0.3529 -1.9206
   99SAPS   C29 9927   4.503   5.518   7.207  0.2741 -1.2530  0.1584
   99SAPS   H9R 9928   4.601   5.540   7.251  1.2703 -4.0424 -0.4631
   99SAPS  C210 9929   4.383   5.474   7.287  0.0484 -0.1062  0.3684
   99SAPS  H10R 9930   4.295   5.464   7.219 -0.6764 -1.4184  1.4544
   99SAPS  H10S 9931   4.363   5.559   7.357  3.5239 -0.2944  1.7589
   99SAPS  C211 9932   4.401   5.345   7.365 -0.1087  0.2232  0.3047
   99SAPS  H11R 9933   4.400   5.255   7.302 -0.6239 -0.3779  1.1485
   99SAPS  C212 9934   4.397   5.333   7.500  0.0910  0.0267  0.4177
   99SAPS  H12R 9935   4.414   5.233   7.543 -0.9451 -0.6201 -0.6056
   99SAPS  C213 9936   4.375   5.439   7.602 -0.7460  0.2715  0.3867
   99SAPS  H13R 9937   4.303   5.517   7.569  1.4986  1.3911 -2.2777
   99SAPS  H13S 9938   4.476   5.485   7.598 -0.1926 -0.6038  2.9433
   99SAPS  C214 9939   4.362   5.386   7.741  0.6965 -0.7341 -0.2302
   99SAPS  H14R 9940   4.266   5.400   7.792  0.3421 -1.4718 -0.6737
   99SAPS  C215 9941   4.459   5.325   7.812 -0.3671 -0.3342 -0.3357
   99SAPS  H15R 9942   4.443   5.291   7.915  2.4638 -0.9462 -0.0154
   99SAPS  C216 9943   4.597   5.297   7.770 -0.9897 -0.4989 -0.2952
   99SAPS  H16R 9944   4.623   5.351   7.677  0.6441  1.6208  1.2718
   99SAPS  H16S 9945   4.600   5.186   7.764 -1.4951 -0.4739 -0.9912
   99SAPS  C217 9946   4.704   5.335   7.872  0.5397 -0.3135  0.0653
   99SAPS  H17R 9947   4.672   5.297   7.971  0.4351 -1.5167 -0.4135
   99SAPS  H17S 9948   4.727   5.442   7.891  0.3114 -0.6420  2.5889
   99SAPS  C218 9949   4.841   5.261   7.843 -0.3875 -0.3525  0.3405
   99SAPS  H18R 9950   4.894   5.321   7.767  2.1240 -0.6577  1.7342
   99SAPS  H18S 9951   4.829   5.155   7.813  0.2855 -0.7517  1.4120
   99SAPS  C219 9952   4.927   5.273   7.956 -0.1224 -0.5171 -0.3531
   99SAPS  H19R 9953   4.869   5.231   8.041  0.0022 -0.5230 -0.2707
   99SAPS  H19S 9954   4.943   5.380   7.978  0.6398 -1.1718  2.8715
   99SAPS  C220 9955   5.061   5.203   7.959 -0.0631 -0.2047  0.7547
   99SAPS  H20R 9956   5.133   5.256   7.893 -0.1378 -0.1372  0.7271
   99SAPS  H20S 9957   5.048   5.103   7.912  1.9037 -1.1761  2.1530
   99SAPS  H20T 9958   5.099   5.189   8.063  1.6258 -1.9362 -0.0397
   99SAPS   C33 9959   4.705   6.003   6.866 -0.0635  0.0529 -0.8072
   99SAPS   H3X 9960   4.634   5.937   6.812  0.2417  0.7833 -2.1452
   99SAPS   H3Y 9961   4.645   6.097   6.872 -0.7557 -0.1310 -3.7580
   99SAPS   C34 9962   4.735   5.954   7.008 -0.2923  0.0974  0.0117
   99SAPS   H4X 9963   4.805   6.022   7.061  0.5198 -1.5632  1.1521
   99SAPS   H4Y 9964   4.791   5.858   6.999 -0.8620 -0.1865 -0.5437
   99SAPS   C35 9965   4.602   5.952   7.092 -0.0063  0.0038 -0.3906
   99SAPS   H5X 9966   4.527   5.892   7.037 -0.0992 -1.6203  1.4024
   99SAPS   H5Y 9967   4.560   6.054   7.093 -1.2169 -0.4854 -0.1826
   99SAPS   C36 9968   4.630   5.902   7.233 -0.3432  0.1287 -0.4211
   99SAPS   H6X 9969   4.722   5.952   7.270  1.4025 -2.5804 -0.8228
   99SAPS   H6Y 9970   4.651   5.793   7.237 -0.5538  0.0340 -1.5518
   99SAPS   C37 9971   4.518   5.932   7.334 -0.3688 -0.0520  0.3912
   99SAPS   H7X 9972   4.429   5.910   7.270  2.2562 -2.2055 -2.8969
   99SAPS   H7Y 9973   4.520   6.040   7.360 -0.4120  0.4647 -1.5432
   99SAPS   C38 9974   4.521   5.843   7.456  0.8327 -0.8929  0.5794
   99SAPS   H8X 9975   4.555   5.741   7.426  2.0753 -0.6233  1.0162
   99SAPS   H8Y 9976   4.426   5.835   7.513  1.6117  0.9414  2.2359
   99SAPS   C39 9977   4.629   5.887   7.557 -0.1789 -0.1628  0.9318
   99SAPS   H9X 9978   4.626   5.995   7.586  2.0583 -0.5044  2.7271
   99SAPS   H9Y 9979   4.725   5.884   7.503  1.0185 -0.2083  2.9600
   99SAPS  C310 9980   4.618   5.803   7.681  0.8295 -0.8519  0.8176
   99SAPS  H10X 9981   4.644   5.696   7.669  1.3039 -0.8011  1.3643
   99SAPS  H10Y 9982   4.512   5.813   7.713  0.7023  0.9722 -0.0517
   99SAPS  C311 9983   4.693   5.878   7.794 -0.4292 -0.1622  0.5937
   99SAPS  H11X 9984   4.675   5.987   7.789 -2.6940 -0.5268 -1.0192
   99SAPS  H11Y 9985   4.801   5.857   7.783 -0.4357  0.2001 -0.2598
   99SAPS  C312 9986   4.642   5.850   7.941 -0.2328  0.2738 -0.3971
   99SAPS  H12X 9987   4.540   5.893   7.949 -0.2420  0.4144 -1.1888
   99SAPS  H12Y 9988   4.718   5.892   8.010 -0.5325  0.5545 -0.2323
   99SAPS  C313 9989   4.642   5.699   7.976 -0.6788  0.4170 -0.2275
   99SAPS  H13X 9990   4.737   5.661   7.933 -0.4939 -0.8846  1.2234
   99SAPS  H13Y 9991   4.556   5.653   7.924 -2.4104  1.2517  1.7482
   99SAPS  C314 9992   4.627   5.668   8.124  0.0405  0.2835 -0.4713
   99SAPS  H14X 9993   4.535   5.714   8.166 -2.2045 -0.6173 -4.0240
   99SAPS  H14Y 9994   4.714   5.706   8.182  1.1350 -1.5296 -0.8332
   99SAPS  C315 9995   4.621   5.522   8.172 -0.2291 -0.0378  0.6359
   99SAPS  H15X 9996   4.707   5.474   8.120  0.4077  1.4346  0.2972
   99SAPS  H15Y 9997   4.530   5.464   8.145  0.0366  0.6496 -1.9910
   99SAPS  C316 9998   4.621   5.512   8.330 -0.3645 -0.2702 -0.7609
   99SAPS  H16X 9999   4.530   5.563   8.369 -0.4805 -0.7489 -0.3883
   99SAPS  H16Y10000   4.703   5.571   8.376  0.6992 -2.0393 -0.3151
   99SAPS  C31710001   4.631   5.364   8.368  0.0044 -0.3395 -0.2531
   99SAPS  H17X10002   4.728   5.333   8.324 -0.5894 -1.4086 -0.8687
   99SAPS  H17Y10003   4.551   5.310   8.313  0.8040 -1.5424 -0.2718
   99SAPS  C31810004   4.617   5.339   8.525 -0.4384 -0.8522 -0.1031
   99SAPS  H18X10005   4.516   5.365   8.561 -0.3254  2.1306 -1.6064
   99SAPS  H18Y10006   4.689   5.409   8.572  1.7418 -3.3396  0.4782
   99SAPS  H18Z10007   4.635   5.232   8.546  0.1406 -0.9806 -1.1336
  100SAPS     N10008   2.620   1.268   5.814 -0.2952  0.5117  0.1276
  100SAPS   HN110009   2.540   1.250   5.749  0.5129  1.3436 -1.1250
  100SAPS   HN210010   2.703   1.279   5.753  1.7034 -0.7991  2.4434
  100SAPS   HN310011   2.629   1.179   5.867  1.0248  0.1569 -0.6711
  100SAPS   C1210012   2.584   1.387   5.901  0.0103 -0.1960 -0.4453
  100SAPS  H12A10013   2.658   1.409   5.977 -2.6397  0.5540  2.1032
  100SAPS   C1310014   2.574   1.517   5.810  0.8630 -0.2904  0.5314
  100SAPS  O13A10015   2.560   1.507   5.685  0.1871  0.3516 -0.5273
  100SAPS  O13B10016   2.543   1.620   5.875 -0.3166 -0.0544 -0.0757
  100SAPS   C1110017   2.452   1.362   5.974  0.0613  0.2980  0.3720
  100SAPS  H11A10018   2.418   1.441   6.043 -1.5548 -0.8634  0.9715
  100SAPS  H11B10019   2.477   1.271   6.034 -1.5363 -0.5846 -0.2340
  100SAPS     P10020   2.230   1.248   5.903  0.1070  0.0238 -0.0559
  100SAPS   O1310021   2.116   1.298   5.823 -0.0307  0.4499  0.0573
  100SAPS   O1410022   2.281   1.112   5.869 -0.0265 -0.1898 -0.2250
  100SAPS   O1210023   2.346   1.348   5.883 -0.5308  0.1571 -0.0067
  100SAPS   O1110024   2.215   1.257   6.061 -0.1462 -0.2525  0.3188
  100SAPS    C110025   2.094   1.309   6.116  0.0688  0.6415  0.3573
  100SAPS    HA10026   2.014   1.325   6.041 -0.3790  2.3971  1.1717
  100SAPS    HB10027   2.055   1.229   6.183  0.1382  0.6046  0.3540
  100SAPS    C210028   2.125   1.426   6.206 -0.4118  1.0117  0.4582
  100SAPS    HS10029   2.177   1.498   6.139  0.1406  0.4428  0.2561
  100SAPS   O2110030   2.214   1.386   6.310 -0.0036  0.3763 -1.1641
  100SAPS   C2110031   2.306   1.479   6.352 -0.2731  0.6539  0.3166
  100SAPS   O2210032   2.325   1.580   6.281 -0.0247 -0.1655 -0.4660
  100SAPS   C2210033   2.360   1.441   6.492  0.4887  0.0724 -0.7546
  100SAPS   H2R10034   2.318   1.344   6.527 -2.6222  1.7162  0.4239
  100SAPS   H2S10035   2.470   1.433   6.476  0.5724  0.1392 -0.2456
  100SAPS    C310036   2.000   1.491   6.256  0.5545 -0.6857  0.0131
  100SAPS    HX10037   1.942   1.537   6.173 -1.2105  0.0313  1.5706
  100SAPS    HY10038   2.025   1.577   6.322 -2.7394  1.1982 -0.9446
  100SAPS   O3110039   1.928   1.393   6.342  0.1190 -0.1484 -0.2575
  100SAPS   C3110040   1.831   1.448   6.422  0.3238  1.4475 -0.1027
  100SAPS   O3210041   1.798   1.567   6.412 -0.6136 -0.3244 -0.2377
  100SAPS   C3210042   1.783   1.350   6.525 -0.0711  0.2279 -0.0956
  100SAPS   H2X10043   1.877   1.304   6.563 -0.7137 -0.2537  0.9662
  100SAPS   H2Y10044   1.729   1.270   6.470  1.2562  0.7605 -2.2645
  100SAPS   C2310045   2.337   1.543   6.607  0.2722 -0.6037  0.1397
  100SAPS   H3R10046   2.360   1.648   6.578  0.3625 -0.7567 -0.3448
  100SAPS   H3S10047   2.400   1.515   6.694 -0.2072 -0.6937  0.4640
  100SAPS   C2410048   2.185   1.547   6.648 -0.3962  0.0968  0.3165
  100SAPS   H4R10049   2.119   1.578   6.564  3.6807  0.7917 -2.9628
  100SAPS   H4S10050   2.174   1.628   6.723 -1.5727 -1.3824  1.8215
  100SAPS   C2510051   2.136   1.418   6.723 -0.0599 -0.5645 -0.2610
  100SAPS   H5R10052   2.087   1.348   6.654  0.8608 -0.9890 -0.5014
  100SAPS   C2610053   2.110   1.400   6.856  0.1712 -0.0745  0.4199
  100SAPS   H6R10054   2.053   1.309   6.879  0.2822  0.2143  1.9588
  100SAPS   C2710055   2.141   1.495   6.971  0.0230 -0.1445 -0.1215
  100SAPS   H7R10056   2.169   1.595   6.930  0.5128 -0.5349 -0.7574
  100SAPS   H7S10057   2.236   1.464   7.021  0.0404 -3.3029 -1.8385
  100SAPS   C2810058   2.020   1.515   7.059 -0.4560  0.4692 -0.7123
  100SAPS   H8R10059   1.949   1.589   7.020  1.2910  1.3318 -2.4179
  100SAPS   C2910060   1.993   1.457   7.179 -0.0675  0.2612  0.0454
  100SAPS   H9R10061   1.899   1.479   7.231 -0.2609  1.8382 -0.9082
  100SAPS  C21010062   2.093   1.370   7.251  0.9068 -0.1384 -0.0330
  100SAPS  H10R10063   2.200   1.392   7.229  0.4900  0.5212 -1.5103
  100SAPS  H10S10064   2.088   1.272   7.200  2.0031  1.3659 -3.2758
  100SAPS  C21110065   2.068   1.327   7.397  0.2341  0.0303  0.7146
  100SAPS  H11R10066   2.120   1.377   7.479  0.0214  0.2453  0.7181
  100SAPS  C21210067   1.976   1.237   7.442  0.3976  1.1720  0.7327
  100SAPS  H12R10068   1.959   1.218   7.549  2.4319 -0.8387  0.7754
  100SAPS  C21310069   1.893   1.145   7.354 -0.1880 -1.1434 -0.1732
  100SAPS  H13R10070   1.870   1.198   7.260  0.2494  2.1139  1.4313
  100SAPS  H13S10071   1.793   1.136   7.401 -0.9295 -1.0168 -1.6977
  100SAPS  C21410072   1.955   1.011   7.321 -0.5494  0.0828  0.1166
  100SAPS  H14R10073   2.063   0.998   7.330 -0.7301 -1.3978  0.4866
  100SAPS  C21510074   1.881   0.903   7.287 -0.7809 -0.0290 -0.1838
  100SAPS  H15R10075   1.941   0.811   7.287 -2.2414 -1.1150  2.4627
  100SAPS  C21610076   1.728   0.892   7.273 -0.5474 -0.3003  0.3092
  100SAPS  H16R10077   1.685   0.987   7.309  0.5787  1.0958 -1.8129
  100SAPS  H16S10078   1.690   0.819   7.348 -0.1246 -0.0515  0.7696
  100SAPS  C21710079   1.688   0.864   7.125  0.0627  0.2260  0.2184
  100SAPS  H17R10080   1.721   0.942   7.053  1.5750  0.3264  0.9695
  100SAPS  H17S10081   1.577   0.865   7.129  0.0344 -0.9448 -0.0707
  100SAPS  C21810082   1.730   0.738   7.053 -0.1459  0.1944 -0.5004
  100SAPS  H18R10083   1.681   0.656   7.110  0.6402  0.5427  0.7405
  100SAPS  H18S10084   1.837   0.709   7.059 -0.3384 -1.1090 -2.4779
  100SAPS  C21910085   1.691   0.747   6.905  0.2773  0.2049 -0.2727
  100SAPS  H19R10086   1.731   0.842   6.866 -0.2443 -0.3731 -2.3675
  100SAPS  H19S10087   1.580   0.755   6.905  0.0268 -2.3658  0.3669
  100SAPS  C22010088   1.737   0.630   6.816 -0.1581  0.4749 -0.1035
  100SAPS  H20R10089   1.687   0.533   6.833 -0.4084  0.6086 -0.0764
  100SAPS  H20S10090   1.846   0.612   6.834 -0.3399  1.1170  1.8712
  100SAPS  H20T10091   1.718   0.664   6.712  1.2856  0.6635 -0.3345
  100SAPS   C3310092   1.692   1.408   6.631 -0.0014  0.3526 -0.8922
  100SAPS   H3X10093   1.606   1.468   6.594  0.2946  2.8709  2.0527
  100SAPS   H3Y10094   1.757   1.473   6.694  0.3159 -1.4829  0.7796
  100SAPS   C3410095   1.629   1.298   6.716  0.0088 -0.1767  0.2031
  100SAPS   H4X10096   1.707   1.226   6.750 -0.7040 -0.2202  1.8222
  100SAPS   H4Y10097   1.563   1.240   6.647 -0.9334 -1.4578  2.0995
  100SAPS   C3510098   1.557   1.348   6.843 -1.0998  0.4749 -0.0076
  100SAPS   H5X10099   1.464   1.400   6.812 -3.5935 -2.8102  1.3384
  100SAPS   H5Y10100   1.624   1.424   6.890 -0.6307 -1.2956  2.3478
  100SAPS   C3610101   1.527   1.246   6.941  0.1244  0.0321 -0.2568
  100SAPS   H6X10102   1.554   1.143   6.910  1.1951 -0.4267  2.0491
  100SAPS   H6Y10103   1.417   1.256   6.953 -0.1248 -2.6469  0.3470
  100SAPS   C3710104   1.587   1.256   7.083  0.7719 -0.7365 -0.2365
  100SAPS   H7X10105   1.697   1.266   7.099  0.4260  4.5572  0.2745
  100SAPS   H7Y10106   1.546   1.170   7.140  2.1358 -0.3639  1.3782
  100SAPS   C3810107   1.513   1.375   7.151 -0.0787 -0.8342  0.5207
  100SAPS   H8X10108   1.406   1.347   7.167 -0.6396  0.7673 -0.1781
  100SAPS   H8Y10109   1.512   1.468   7.089  1.3238 -1.6107 -0.7347
  100SAPS   C3910110   1.559   1.412   7.292 -0.1023 -0.0868 -0.0348
  100SAPS   H9X10111   1.506   1.505   7.323  1.0859  0.8099 -0.6479
  100SAPS   H9Y10112   1.668   1.424   7.281 -0.1648  0.2679 -0.2714
  100SAPS  C31010113   1.545   1.300   7.390 -0.1751 -0.5444 -0.2376
  100SAPS  H10X10114   1.601   1.210   7.357  1.3638  1.3814 -3.3924
  100SAPS  H10Y10115   1.437   1.274   7.394 -0.8891  1.6239 -2.9127
  100SAPS  C31110116   1.599   1.346   7.528  0.2018 -0.0513 -0.5800
  100SAPS  H11X10117   1.560   1.448   7.545  0.7719  0.1545 -0.4869
  100SAPS  H11Y10118   1.710   1.355   7.530  0.3994 -1.9476  1.6458
  100SAPS  C31210119   1.550   1.247   7.633  0.0391  0.6299 -0.1755
  100SAPS  H12X10120   1.573   1.144   7.598  0.0038  1.0595 -1.4954
  100SAPS  H12Y10121   1.441   1.258   7.652  0.1575  0.8433  0.4275
  100SAPS  C31310122   1.619   1.253   7.766 -1.0734  0.2774 -0.2463
  100SAPS  H13X10123   1.545   1.223   7.842  1.7310 -1.3039  2.0619
  100SAPS  H13Y10124   1.658   1.354   7.792  2.4343 -1.5827  2.7163
  100SAPS  C31410125   1.743   1.154   7.772 -0.0165 -0.2861 -0.2064
  100SAPS  H14X10126   1.811   1.173   7.686  0.1472 -0.2667 -0.0716
  100SAPS  H14Y10127   1.694   1.057   7.753  0.1910 -0.2488 -0.9943
  100SAPS  C31510128   1.822   1.153   7.907  0.2538 -0.2612 -0.4355
  100SAPS  H15X10129   1.876   1.056   7.903  0.7023 -0.0336 -4.2453
  100SAPS  H15Y10130   1.746   1.153   7.988 -1.0127 -0.9778 -1.5855
  100SAPS  C31610131   1.908   1.273   7.926 -0.1175 -0.3160  0.3485
  100SAPS  H16X10132   1.839   1.355   7.895 -0.7173 -1.3317 -1.1468
  100SAPS  H16Y10133   1.988   1.266   7.849  0.3765 -1.5199  0.9565
  100SAPS  C31710134   1.980   1.298   8.059 -0.7109 -0.6091  0.7257
  100SAPS  H17X10135   2.052   1.214   8.068  0.3224  0.0165 -1.0471
  100SAPS  H17Y10136   1.908   1.300   8.143  1.4508  3.7222  2.7960
  100SAPS  C31810137   2.058   1.429   8.068 -0.2211 -0.4110 -0.7108
  100SAPS  H18X10138   2.129   1.429   8.154  0.3873 -0.1124 -1.2040
  100SAPS  H18Y10139   1.999   1.523   8.071 -1.5181 -1.2248 -0.0198
  100SAPS  H18Z10140   2.124   1.438   7.979  1.3836  1.8744  0.6040
  101OSM      N10141   5.676   1.179  10.683 -0.1962 -0.3535 -0.1583
  101OSM    C1510142   5.644   1.325  10.678 -0.0007 -0.1533  0.9549
  101OSM   H15A10143   5.703   1.384  10.610 -0.4807 -0.8412 -0.0915
  101OSM   H15B10144   5.658   1.362  10.779  0.8102 -0.1612  0.8513
  101OSM   H15C10145   5.545   1.332  10.635  1.1877  1.1849 -1.8667
  101OSM    C1410146   5.810   1.158  10.741  0.2968  0.3995 -0.7838
  101OSM   H14A10147   5.880   1.218  10.684 -0.3316  1.6399 -0.2850
  101OSM   H14B10148   5.833   1.053  10.732 -1.8908 -0.0508 -1.9123
  101OSM   H14C10149   5.811   1.186  10.845  1.4398 -2.5757  0.0723
  101OSM    C1310150   5.578   1.109  10.777  0.1457  0.2089  0.5075
  101OSM   H13A10151   5.582   1.001  10.771  1.5479  0.2337  0.7979
  101OSM   H13B10152   5.481   1.142  10.742  0.2877  0.0197 -0.0825
  101OSM   H13C10153   5.594   1.138  10.880 -0.0916  1.5857  0.1758
  101OSM    C1210154   5.656   1.116  10.542 -0.2470 -0.1200  0.6695
  101OSM   H12A10155   5.553   1.140  10.522  0.4999  0.5717 -3.2414
  101OSM   H12B10156   5.661   1.009  10.534  0.0507  0.0237 -1.8277
  101OSM    C1110157   5.762   1.157  10.426 -0.5766 -0.6468 -0.7091
  101OSM   H11A10158   5.725   1.260  10.406 -2.4529 -1.1326  0.0361
  101OSM   H11B10159   5.742   1.100  10.333 -0.4833 -2.0398  0.1091
  101OSM      P10160   5.970   1.001  10.451 -0.1605 -0.2173 -0.0439
  101OSM    O1310161   6.113   1.024  10.485  0.1697  0.2246  0.0001
  101OSM    O1410162   5.900   0.898  10.527 -0.7140  0.8936  0.2473
  101OSM    O1110163   5.960   0.961  10.298  0.3782 -0.6370  0.2158
  101OSM    O1210164   5.898   1.142  10.466 -0.4178 -0.0784  0.4369
  101OSM    C1S10165   6.015   1.053  10.203  0.5052 -0.2825  0.1440
  101OSM    H1S10166   6.124   1.034  10.194  0.6448  0.5752 -0.0903
  101OSM    H1T10167   5.999   1.161  10.222  2.3362  0.0304  0.1225
  101OSM     NF10168   6.024   1.112   9.950  0.0647 -0.2061  0.0376
  101OSM    HNF10169   5.978   1.193   9.915  0.7022 -0.4683 -1.4498
  101OSM    C2S10170   5.956   1.036  10.051 -0.1781  0.3909  0.6759
  101OSM    H2S10171   5.979   0.933  10.015  0.6083  0.4027  1.1202
  101OSM    C3S10172   5.807   1.052  10.051  0.0411  0.4515 -0.7370
  101OSM    H3S10173   5.767   1.146  10.096 -0.5340 -0.2873  0.3495
  101OSM     O310174   5.742   0.949  10.130 -0.5993 -0.0976 -0.0901
  101OSM    HO310175   5.815   0.919  10.185  1.4433  3.1722 -0.7717
  101OSM    C4S10176   5.740   1.040   9.918  0.0970 -0.2324 -0.0962
  101OSM    H4S10177   5.759   0.944   9.868 -0.3742 -1.1978  1.4810
  101OSM    C5S10178   5.672   1.132   9.851  0.3684 -0.0888 -0.1603
  101OSM    H5S10179   5.653   1.227   9.903 -2.7560  0.1348 -1.4987
  101OSM    C6S10180   5.616   1.127   9.715  0.7167 -0.3967 -0.9712
  101OSM    H6S10181   5.525   1.188   9.699  1.6957  1.3028 -0.2517
  101OSM    H6T10182   5.593   1.023   9.682 -0.4015  0.0984 -1.8219
  101OSM    C7S10183   5.721   1.197   9.625 -0.0509  0.0867 -0.0801
  101OSM    H7S10184   5.828   1.172   9.642 -0.3121 -0.3438  1.0296
  101OSM    H7T10185   5.714   1.307   9.641  1.2420  0.1527  0.1594
  101OSM    C8S10186   5.690   1.177   9.478 -0.7313 -0.0842 -0.1905
  101OSM    H8S10187   5.579   1.179   9.471 -0.7128 -0.0855 -0.5093
  101OSM    H8T10188   5.723   1.080   9.435 -2.1490 -0.6893  0.0241
  101OSM    C9S10189   5.737   1.286   9.384  0.0638  0.3554  0.4795
  101OSM    H9S10190   5.848   1.299   9.384  0.0498  0.6265 -0.7255
  101OSM    H9T10191   5.709   1.389   9.413  2.0847  0.6260  1.6861
  101OSM   C10S10192   5.710   1.265   9.234 -0.3068  0.1286 -0.7919
  101OSM   H10S10193   5.611   1.308   9.208 -1.0739 -0.5497  0.8854
  101OSM   H10T10194   5.723   1.161   9.198 -1.5742  0.0692 -1.1083
  101OSM   C11S10195   5.813   1.344   9.156 -0.6569 -0.5708 -0.2254
  101OSM   H11S10196   5.919   1.325   9.182  0.1679  0.3115 -2.6115
  101OSM   H11T10197   5.800   1.454   9.159  0.4621 -0.3198 -2.5339
  101OSM   C12S10198   5.816   1.308   9.000 -0.7341  1.1926 -1.0550
  101OSM   H12S10199   5.809   1.197   9.002  0.2974  1.1006  2.1827
  101OSM   H12T10200   5.912   1.339   8.953 -1.7529  2.8918 -2.1384
  101OSM   C13S10201   5.701   1.375   8.917  0.6389  0.6226  0.4163
  101OSM   H13S10202   5.725   1.483   8.908  1.3916  0.3714 -0.6551
  101OSM   H13T10203   5.599   1.366   8.960 -0.0253 -0.7197 -1.3168
  101OSM   C14S10204   5.695   1.331   8.770 -0.3994 -0.1089 -0.2344
  101OSM   H14S10205   5.619   1.385   8.709 -1.2560 -0.0458  0.8560
  101OSM   H14T10206   5.673   1.223   8.766  1.0112 -0.3748 -1.9180
  101OSM   C15S10207   5.830   1.362   8.702  0.3493 -0.0079 -0.2647
  101OSM   H15S10208   5.916   1.319   8.757  1.0351  1.9485  0.2579
  101OSM   H15T10209   5.841   1.473   8.707  1.9316 -0.0744 -1.6945
  101OSM   C16S10210   5.838   1.322   8.553  0.2435 -0.2402  0.5888
  101OSM   H16S10211   5.735   1.310   8.513  0.8752  1.2151 -1.6543
  101OSM   H16T10212   5.886   1.222   8.556 -1.3131 -1.0881 -0.7885
  101OSM   C17S10213   5.924   1.409   8.455  0.8369  0.1673  0.5132
  101OSM   H17S10214   5.888   1.514   8.453  1.2655  0.3582  1.6982
  101OSM   H17T10215   5.897   1.360   8.359 -2.0557  1.3987  0.6078
  101OSM   C18S10216   6.073   1.411   8.477  0.1613  0.3703 -0.1015
  101OSM   H18S10217   6.115   1.486   8.407  1.8534 -0.4278  0.0152
  101OSM   H18T10218   6.115   1.309   8.465 -1.2206  0.0162 -2.5704
  101OSM   H18U10219   6.107   1.439   8.579  0.6875 -1.7776  0.3660
  101OSM    C1F10220   6.150   1.077   9.909 -0.4484  0.1667  0.1153
  101OSM     OF10221   6.198   0.970   9.950 -0.6077 -0.0588  0.3715
  101OSM    C2F10222   6.214   1.173   9.818 -0.1921 -0.5307  0.5754
  101OSM    H2F10223   6.199   1.273   9.863  2.8490 -0.1692  1.0221
  101OSM    H2G10224   6.164   1.173   9.719  1.7850 -0.2857 -0.4838
  101OSM    C3F10225   6.360   1.153   9.791  0.1446  0.0320  0.7120
  101OSM    H3F10226   6.372   1.056   9.738 -1.6987 -0.4030  1.0535
  101OSM    H3G10227   6.415   1.157   9.888  1.9931 -1.9469 -0.1611
  101OSM    C4F10228   6.416   1.265   9.702 -0.2515 -0.4656  0.0053
  101OSM    H4F10229   6.377   1.363   9.734 -2.5684 -0.6859 -1.9070
  101OSM    H4G10230   6.392   1.259   9.594 -1.5267  0.6213  0.2044
  101OSM    C5F10231   6.574   1.265   9.709 -1.1492  0.3438  0.6765
  101OSM    H5F10232   6.595   1.276   9.817 -0.6884 -0.1040  0.6323
  101OSM    H5G10233   6.606   1.356   9.654 -3.1160  0.2275 -0.7796
  101OSM    C6F10234   6.627   1.137   9.655  0.3521  0.3038  0.2801
  101OSM    H6F10235   6.572   1.049   9.695 -3.5917  1.4118 -2.1567
  101OSM    H6G10236   6.735   1.130   9.680  0.4849 -0.0714 -0.3736
  101OSM    C7F10237   6.602   1.112   9.505  0.0211 -0.6463 -0.3496
  101OSM    H7F10238   6.494   1.086   9.500 -0.1816  0.1488 -0.1469
  101OSM    H7G10239   6.652   1.016   9.480 -1.8816 -2.0995  1.0465
  101OSM    C8F10240   6.622   1.227   9.403 -0.9428 -0.4400  0.2276
  101OSM    H8F10241   6.604   1.326   9.450  4.4400  1.5884 -1.2008
  101OSM    H8G10242   6.550   1.216   9.320  0.4940 -1.2507 -0.9732
  101OSM    C9F10243   6.760   1.226   9.341  0.9945 -0.7587 -0.3179
  101OSM    H9F10244   6.836   1.246   9.418 -0.2078 -1.8042  1.1926
  101OSM   C10F10245   6.796   1.202   9.211 -0.5657  0.8609 -0.0358
  101OSM   H10F10246   6.902   1.221   9.188 -1.0247  1.3631 -1.8944
  101OSM   C11F10247   6.710   1.171   9.090  0.3702 -0.0676  0.1074
  101OSM   H11F10248   6.612   1.138   9.131  1.0411 -2.5075 -0.0766
  101OSM   H11G10249   6.746   1.083   9.032 -0.7105 -0.8696  0.5931
  101OSM   C12F10250   6.672   1.294   8.999 -0.0582 -0.4960  0.3790
  101OSM   H12F10251   6.631   1.364   9.075  0.1262 -1.1418  1.0838
  101OSM   H12G10252   6.586   1.276   8.931  0.3319  1.9887 -0.8901
  101OSM   C13F10253   6.789   1.362   8.918 -0.3201  0.4198 -0.3299
  101OSM   H13F10254   6.889   1.324   8.945 -0.6804  0.1347  0.6284
  101OSM   H13G10255   6.787   1.466   8.957 -2.3191  0.5586 -0.6873
  101OSM   C14F10256   6.761   1.350   8.767 -0.0089  0.8755 -0.1833
  101OSM   H14F10257   6.656   1.378   8.742 -0.7732 -1.3177  0.2712
  101OSM   H14G10258   6.751   1.241   8.744 -1.1271  0.4343  2.0735
  101OSM   C15F10259   6.872   1.401   8.676  0.3597 -0.9480 -0.3599
  101OSM   H15F10260   6.963   1.345   8.703 -0.3990 -2.7773 -1.4006
  101OSM   H15G10261   6.884   1.510   8.696  0.1274 -1.0998  0.6647
  101OSM   C16F10262   6.834   1.385   8.525 -0.7875 -0.8469 -0.2580
  101OSM   H16F10263   6.738   1.429   8.489  0.1406  0.7616 -0.8908
  101OSM   H16G10264   6.803   1.280   8.507 -0.8416 -0.7128 -1.0057
  101OSM   C17F10265   6.958   1.430   8.434 -0.8661 -0.6110 -0.2085
  101OSM   H17F10266   7.047   1.369   8.463 -2.0300 -1.9208  0.7359
  101OSM   H17G10267   6.964   1.540   8.444  0.4810 -0.0176 -4.9207
  101OSM   C18F10268   6.933   1.412   8.283  0.3684 -0.1884 -0.8920
  101OSM   H18F10269   7.021   1.446   8.223  1.4866  2.7050  2.0643
  101OSM   H18G10270   6.850   1.479   8.251  0.4313 -0.6078 -1.9987
  101OSM   H18H10271   6.903   1.309   8.256 -0.6456  0.1036 -0.9270
  102OSM      N10272   6.231   0.649  10.352 -0.5144 -0.3141 -0.1627
  102OSM    C1510273   6.284   0.521  10.282  0.0599 -0.5543 -0.1071
  102OSM   H15A10274   6.361   0.553  10.214  0.3156 -0.5123  0.2021
  102OSM   H15B10275   6.207   0.473  10.224 -0.7810 -0.1582  0.6537
  102OSM   H15C10276   6.326   0.450  10.351  0.7462  1.9857  2.2866
  102OSM    C1410277   6.345   0.728  10.415  0.3621 -0.2822  0.4955
  102OSM   H14A10278   6.298   0.814  10.460 -0.3185 -0.5124  0.2361
  102OSM   H14B10279   6.413   0.763  10.339 -0.9297 -1.1289 -1.1310
  102OSM   H14C10280   6.404   0.683  10.493  0.6199 -0.0199  0.4525
  102OSM    C1310281   6.157   0.728  10.243 -0.6253  0.1961 -0.1812
  102OSM   H13A10282   6.237   0.739  10.170  0.5938  1.8646  1.3262
  102OSM   H13B10283   6.134   0.827  10.279  0.7699 -0.5383  3.1283
  102OSM   H13C10284   6.081   0.674  10.188  1.2373 -0.5996 -2.1548
  102OSM    C1210285   6.132   0.604  10.456  0.8894  0.3012 -0.0890
  102OSM   H12A10286   6.099   0.690  10.513  0.1083 -0.4923  0.6829
  102OSM   H12B10287   6.173   0.543  10.535 -0.8978  0.5221  1.0550
  102OSM    C1110288   6.005   0.521  10.419  0.2465 -0.3032  0.1694
  102OSM   H11A10289   5.954   0.576  10.337  0.2570 -1.4864 -0.6444
  102OSM   H11B10290   5.944   0.513  10.511  1.9959 -2.5957  1.2463
  102OSM      P10291   5.955   0.266  10.410  0.3189  0.1213  0.1147
  102OSM    O1310292   6.042   0.148  10.390  0.2224  0.3819  0.1001
  102OSM    O1410293   5.902   0.285  10.548  0.5537 -0.7663  0.2142
  102OSM    O1110294   5.839   0.267  10.307  0.2737  0.0374  0.6277
  102OSM    O1210295   6.038   0.393  10.372 -0.1870 -0.4275 -0.3225
  102OSM    C1S10296   5.868   0.318  10.174 -0.4224  0.4152 -0.4618
  102OSM    H1S10297   5.909   0.235  10.111  1.0845  1.3398 -0.7518
  102OSM    H1T10298   5.948   0.395  10.167  0.3688 -0.1413  1.6900
  102OSM     NF10299   5.783   0.404   9.962  0.0061  0.3219  0.1406
  102OSM    HNF10300   5.789   0.500   9.937  1.5803 -0.0790 -1.1959
  102OSM    C2S10301   5.747   0.368  10.100 -0.5429 -0.0055 -0.5840
  102OSM    H2S10302   5.671   0.287  10.092 -0.6756  0.2680 -2.6041
  102OSM    C3S10303   5.683   0.476  10.177 -0.2563  0.5703  0.4724
  102OSM    H3S10304   5.757   0.556  10.200  0.1310  0.2823  0.2394
  102OSM     O310305   5.636   0.440  10.310  0.4577 -0.4120  0.2164
  102OSM    HO310306   5.682   0.357  10.327  0.9451 -0.7526 -2.3441
  102OSM    C4S10307   5.569   0.546  10.092  0.4407  0.1306 -0.4234
  102OSM    H4S10308   5.504   0.477  10.035  0.0332 -1.4279  1.7828
  102OSM    C5S10309   5.548   0.679  10.083  0.6301  0.2007 -0.4289
  102OSM    H5S10310   5.612   0.745  10.143 -0.8238  0.3313  1.0385
  102OSM    C6S10311   5.430   0.738  10.006 -0.0867 -0.6112 -0.0395
  102OSM    H6S10312   5.449   0.842   9.970 -0.6284 -0.2826  0.5919
  102OSM    H6T10313   5.342   0.739  10.074 -1.9432 -2.6208 -2.2318
  102OSM    C7S10314   5.399   0.681   9.865 -0.2345  0.0905  0.3043
  102OSM    H7S10315   5.303   0.717   9.822  0.8827  5.1099  1.3131
  102OSM    H7T10316   5.381   0.572   9.876  1.7421 -0.3631 -0.6119
  102OSM    C8S10317   5.511   0.677   9.758 -0.8360  0.1517  0.4825
  102OSM    H8S10318   5.547   0.573   9.742  0.2032  0.7527 -1.3690
  102OSM    H8T10319   5.603   0.732   9.787  0.2669 -1.2317 -0.2746
  102OSM    C9S10320   5.458   0.744   9.624 -0.1339  0.4149 -0.4713
  102OSM    H9S10321   5.405   0.839   9.646 -2.6591 -0.9696 -0.2790
  102OSM    H9T10322   5.382   0.677   9.578 -1.8423  0.9161  1.5077
  102OSM   C10S10323   5.572   0.758   9.515  0.2166 -0.0974 -0.0073
  102OSM   H10S10324   5.634   0.666   9.518  1.8551  0.9769  1.1004
  102OSM   H10T10325   5.637   0.839   9.555  0.5185 -0.2544 -0.1796
  102OSM   C11S10326   5.520   0.790   9.375  0.3834  0.3366  0.0569
  102OSM   H11S10327   5.482   0.895   9.378  0.8866  0.5765 -1.0200
  102OSM   H11T10328   5.434   0.727   9.346  0.4305  0.1909  0.2351
  102OSM   C12S10329   5.625   0.783   9.267  0.1927 -0.1000 -0.1100
  102OSM   H12S10330   5.639   0.673   9.258  0.3313 -0.1778  0.9513
  102OSM   H12T10331   5.720   0.825   9.306  1.2524  0.1791 -2.7408
  102OSM   C13S10332   5.596   0.867   9.134  0.6400  0.7231  0.2476
  102OSM   H13S10333   5.571   0.968   9.171 -1.3553 -0.3018  1.9482
  102OSM   H13T10334   5.497   0.827   9.101  0.4408  1.4101  0.0023
  102OSM   C14S10335   5.707   0.860   9.037 -0.4900 -0.4979  0.7002
  102OSM   H14S10336   5.743   0.755   9.021 -0.9900 -0.6463  0.5352
  102OSM   H14T10337   5.788   0.925   9.076 -0.4770 -0.5010  0.6785
  102OSM   C15S10338   5.668   0.907   8.901  0.7560 -0.7484 -0.0102
  102OSM   H15S10339   5.640   1.014   8.907  1.6287 -0.5619  1.0641
  102OSM   H15T10340   5.583   0.851   8.857 -2.0933  1.7911  1.8378
  102OSM   C16S10341   5.768   0.883   8.793 -0.1227  0.3102 -0.0480
  102OSM   H16S10342   5.780   0.773   8.781 -2.7233  0.1145 -1.4025
  102OSM   H16T10343   5.866   0.930   8.818  1.2394 -2.2259 -0.2838
  102OSM   C17S10344   5.721   0.938   8.654  0.3222  0.5866  0.0640
  102OSM   H17S10345   5.678   1.036   8.682 -0.5641  0.4539 -0.7893
  102OSM   H17T10346   5.636   0.870   8.630 -1.0757  1.6915  1.6256
  102OSM   C18S10347   5.822   0.963   8.545 -0.3776  0.1471 -0.6954
  102OSM   H18S10348   5.773   1.013   8.459  0.9079  2.2834 -0.2466
  102OSM   H18T10349   5.852   0.860   8.514  0.2181 -0.2037  0.9402
  102OSM   H18U10350   5.917   1.010   8.578  0.0991 -1.5409  0.4763
  102OSM    C1F10351   5.822   0.318   9.868 -0.6116  0.1939  0.4354
  102OSM     OF10352   5.825   0.200   9.894 -0.1845  0.0049 -0.1539
  102OSM    C2F10353   5.882   0.375   9.746 -0.2074 -0.6001 -0.2368
  102OSM    H2F10354   5.992   0.358   9.747  0.1589  1.2376  2.5426
  102OSM    H2G10355   5.871   0.485   9.739 -0.5438 -0.4623  1.8897
  102OSM    C3F10356   5.829   0.309   9.617  0.5620  0.0992 -0.4331
  102OSM    H3F10357   5.718   0.308   9.613  0.3702  4.4420 -1.5019
  102OSM    H3G10358   5.864   0.205   9.625  2.6550  0.7931  0.0071
  102OSM    C4F10359   5.881   0.370   9.491  0.6662  0.6368  0.2401
  102OSM    H4F10360   5.990   0.349   9.481  0.7700  0.8215  0.9330
  102OSM    H4G10361   5.862   0.477   9.468  2.8260  0.9441 -0.3578
  102OSM    C5F10362   5.831   0.287   9.371  0.2775 -0.7726  0.6443
  102OSM    H5F10363   5.720   0.279   9.377 -0.1732  2.9522 -0.3793
  102OSM    H5G10364   5.879   0.187   9.369  0.6318 -0.6305  1.7042
  102OSM    C6F10365   5.856   0.357   9.238 -0.2753 -0.9594 -0.4462
  102OSM    H6F10366   5.960   0.397   9.236 -2.0642  4.4781  0.4423
  102OSM    H6G10367   5.791   0.446   9.228  2.3404  0.9536 -1.7196
  102OSM    C7F10368   5.838   0.260   9.117  0.1330  0.1681 -0.8325
  102OSM    H7F10369   5.729   0.237   9.113  0.1411 -0.9034  2.2354
  102OSM    H7G10370   5.890   0.164   9.137 -0.4206 -0.1657 -0.9692
  102OSM    C8F10371   5.884   0.315   8.983 -0.3908 -0.1570 -0.4271
  102OSM    H8F10372   5.837   0.415   8.967 -0.0654 -0.0857 -0.9421
  102OSM    H8G10373   5.842   0.250   8.904  1.1290 -2.3468  0.4700
  102OSM    C9F10374   6.031   0.311   8.955 -0.1753  0.7451  0.5771
  102OSM    H9F10375   6.085   0.226   9.000  0.6302  0.7638 -0.3171
  102OSM   C10F10376   6.095   0.397   8.877  0.3909  0.0662 -0.2048
  102OSM   H10F10377   6.202   0.389   8.854  0.7699 -2.4129  1.9647
  102OSM   C11F10378   6.031   0.515   8.803 -0.1459 -0.0412  0.0893
  102OSM   H11F10379   6.059   0.617   8.837 -0.3451  0.1574 -0.3329
  102OSM   H11G10380   5.922   0.520   8.825 -0.4284 -2.2351 -0.5917
  102OSM   C12F10381   6.053   0.498   8.650 -0.4201  0.1726 -0.0132
  102OSM   H12F10382   5.978   0.419   8.625 -0.3930  0.3456 -0.6427
  102OSM   H12G10383   6.155   0.474   8.613 -1.2591  0.4167 -2.6697
  102OSM   C13F10384   6.004   0.616   8.570 -0.3887 -0.5759  0.0988
  102OSM   H13F10385   6.077   0.700   8.571  0.6468 -1.4462 -0.1834
  102OSM   H13G10386   5.905   0.643   8.613 -0.0284 -0.3151  0.7936
  102OSM   C14F10387   5.983   0.577   8.427  0.3311  1.2137 -0.3531
  102OSM   H14F10388   6.045   0.486   8.409  2.2239  1.8083  2.6053
  102OSM   H14G10389   6.001   0.651   8.345 -2.4758  0.2571 -1.9909
  102OSM   C15F10390   5.838   0.538   8.393  0.1412 -0.0622  0.3916
  102OSM   H15F10391   5.774   0.628   8.387  1.1954  0.9901  3.4419
  102OSM   H15G10392   5.795   0.467   8.467  0.5606  0.4848  1.1707
  102OSM   C16F10393   5.835   0.471   8.262  0.2103  0.6030  0.0917
  102OSM   H16F10394   5.894   0.377   8.265  0.0442  0.5323  2.1783
  102OSM   H16G10395   5.885   0.537   8.188  3.7412 -1.1674  0.6877
  102OSM   C17F10396   5.693   0.412   8.220  0.1947 -0.6743 -0.4852
  102OSM   H17F10397   5.630   0.501   8.201 -0.7940 -1.5550 -1.5278
  102OSM   H17G10398   5.650   0.360   8.308  1.5719 -0.6600  0.2084
  102OSM   C18F10399   5.702   0.328   8.096  0.0153 -0.0241 -0.0520
  102OSM   H18F10400   5.601   0.295   8.062  0.1485  0.7835 -1.2879
  102OSM   H18G10401   5.771   0.241   8.104 -0.3424 -0.2905  0.1488
  102OSM   H18H10402   5.739   0.384   8.007  2.0004  0.2350  0.8763
  103OSM      N10403   0.221   3.536  10.601  0.5883 -0.4918 -0.5489
  103OSM    C1510404   0.227   3.625  10.719  0.5853 -1.1677 -0.1786
  103OSM   H15A10405   0.210   3.574  10.812  1.1027 -0.6000  0.2406
  103OSM   H15B10406   0.168   3.714  10.708 -0.9626 -2.0656  0.5833
  103OSM   H15C10407   0.328   3.661  10.731 -0.1442  1.2575 -0.7413
  103OSM    C1410408   0.076   3.502  10.571  0.0646 -0.1133 -0.4131
  103OSM   H14A10409   0.003   3.578  10.546 -0.1092 -0.4474 -0.9509
  103OSM   H14B10410   0.035   3.449  10.655 -1.5036 -1.3210 -1.8463
  103OSM   H14C10411   0.065   3.422  10.499  0.9977 -1.3248  0.7624
  103OSM    C1310412   0.274   3.602  10.476  0.7892 -0.3511  0.0167
  103OSM   H13A10413   0.235   3.552  10.388 -0.4764 -0.0930  0.4143
  103OSM   H13B10414   0.382   3.596  10.475  0.8778  0.3874  1.7507
  103OSM   H13C10415   0.237   3.703  10.475  0.0896 -0.6044  0.0307
  103OSM    C1210416   0.298   3.411  10.634  1.0196 -0.4050  0.4507
  103OSM   H12A10417   0.244   3.356  10.709 -1.8294  0.7147 -0.6198
  103OSM   H12B10418   0.396   3.431  10.674  1.7785  0.6618 -1.7468
  103OSM    C1110419   0.320   3.311  10.514 -0.1871  0.4813 -0.0668
  103OSM   H11A10420   0.238   3.290  10.442  0.4915  0.1239 -0.7410
  103OSM   H11B10421   0.341   3.213  10.561 -3.6201  0.2439  1.2535
  103OSM      P10422   0.582   3.313  10.491 -0.3624 -0.0850 -0.2607
  103OSM    O1310423   0.688   3.383  10.415  0.0746  0.5944  0.1281
  103OSM    O1410424   0.584   3.325  10.638  0.2700 -0.5722  0.0977
  103OSM    O1110425   0.584   3.165  10.461 -0.1561  0.5278  0.5433
  103OSM    O1210426   0.435   3.357  10.442 -0.0148  0.4241  0.0034
  103OSM    C1S10427   0.544   3.100  10.344  0.3424  0.2412 -0.1526
  103OSM    H1S10428   0.455   3.146  10.295  0.1844 -1.4308 -1.5440
  103OSM    H1T10429   0.516   2.994  10.365  1.3118  0.0387  0.1796
  103OSM     NF10430   0.609   3.052  10.112 -0.7709 -0.2156  0.2753
  103OSM    HNF10431   0.607   2.957  10.081  1.4123 -0.6742  1.3461
  103OSM    C2S10432   0.665   3.086  10.244 -0.4745 -0.1475 -0.8053
  103OSM    H2S10433   0.710   3.188  10.243 -0.2076 -0.2117  1.3206
  103OSM    C3S10434   0.769   2.984  10.291 -0.4814 -0.1123 -0.4392
  103OSM    H3S10435   0.717   2.891  10.323 -1.4514 -0.4650 -2.8059
  103OSM     O310436   0.834   3.037  10.405  0.3301 -0.1311  0.2850
  103OSM    HO310437   0.778   3.112  10.423  1.4365  0.3879  1.7776
  103OSM    C4S10438   0.880   2.950  10.187  0.0713 -0.2512  0.4465
  103OSM    H4S10439   0.942   3.036  10.161 -2.8486  0.8364 -4.1846
  103OSM    C5S10440   0.912   2.838  10.124  0.3738  0.3590  0.1934
  103OSM    H5S10441   0.870   2.746  10.169 -1.1316  0.3014 -1.2482
  103OSM    C6S10442   1.028   2.826  10.028 -0.2192 -0.0837  0.5044
  103OSM    H6S10443   1.082   2.729  10.040 -0.7054 -0.6423 -1.4014
  103OSM    H6T10444   1.106   2.902  10.049  0.3246  0.1320 -1.9442
  103OSM    C7S10445   0.991   2.837   9.874  0.1411 -0.1165  0.7549
  103OSM    H7S10446   0.918   2.757   9.847 -0.8057  0.4081  1.6965
  103OSM    H7T10447   1.085   2.818   9.818  0.1545  0.6743  0.5054
  103OSM    C8S10448   0.934   2.974   9.841 -0.6445 -0.0381  0.3471
  103OSM    H8S10449   0.967   3.044   9.920  1.6046 -1.2475  0.5646
  103OSM    H8T10450   0.823   2.963   9.848 -0.6508 -0.3707 -0.2145
  103OSM    C9S10451   0.984   3.024   9.706  0.7742  0.9362 -0.1061
  103OSM    H9S10452   0.967   2.950   9.624 -0.4661  2.1645 -1.0048
  103OSM    H9T10453   1.094   3.032   9.717  0.6954  0.9736  0.6649
  103OSM   C10S10454   0.919   3.158   9.667  0.9107 -1.0139 -0.1610
  103OSM   H10S10455   0.922   3.228   9.753 -2.2518 -0.4155 -0.4026
  103OSM   H10T10456   0.810   3.141   9.656  0.9549 -0.5135 -1.5338
  103OSM   C11S10457   0.978   3.233   9.551 -0.3357 -0.0092  0.0905
  103OSM   H11S10458   1.076   3.276   9.583  0.3886 -1.9129  0.5855
  103OSM   H11T10459   0.908   3.313   9.521 -2.0239 -1.6014 -0.3852
  103OSM   C12S10460   1.013   3.138   9.437  0.1405 -0.3458 -0.0224
  103OSM   H12S10461   1.086   3.064   9.477  2.5125  1.7689 -0.1310
  103OSM   H12T10462   1.059   3.203   9.358 -1.6792 -0.8618 -1.5707
  103OSM   C13S10463   0.892   3.075   9.384  0.4688 -0.5540 -0.5430
  103OSM   H13S10464   0.817   3.146   9.343 -0.5905 -1.0095  0.5489
  103OSM   H13T10465   0.843   3.018   9.466 -0.0164  1.3692  0.5681
  103OSM   C14S10466   0.918   2.978   9.265  0.6781 -0.0940  0.2206
  103OSM   H14S10467   0.823   2.922   9.249  1.6378 -2.6984  2.6676
  103OSM   H14T10468   1.005   2.912   9.285  1.3704  1.2688  1.9897
  103OSM   C15S10469   0.949   3.049   9.138  0.4521  0.6537  0.4846
  103OSM   H15S10470   1.048   3.097   9.152  0.4438  0.0638  3.0692
  103OSM   H15T10471   0.875   3.132   9.128  0.2661  0.2909 -1.7731
  103OSM   C16S10472   0.933   2.969   9.004 -0.6698  0.3786 -0.2087
  103OSM   H16S10473   0.842   2.906   9.002  0.7233 -1.8359  1.4959
  103OSM   H16T10474   1.018   2.899   8.986 -0.9277 -0.7079  2.3870
  103OSM   C17S10475   0.924   3.070   8.892  0.1762  0.0288  0.5109
  103OSM   H17S10476   0.870   3.163   8.919 -0.0469 -0.0683  0.4051
  103OSM   H17T10477   0.850   3.031   8.819 -0.5401  0.7974  0.8194
  103OSM   C18S10478   1.061   3.112   8.825  0.5782 -0.0496 -0.3115
  103OSM   H18S10479   1.037   3.210   8.779  0.7038  0.6781  1.1164
  103OSM   H18T10480   1.086   3.041   8.744 -1.2304 -0.4458 -0.5552
  103OSM   H18U10481   1.147   3.115   8.896 -0.0367 -1.0671  0.5028
  103OSM    C1F10482   0.550   3.137  10.030  0.0364 -0.0721 -0.2519
  103OSM     OF10483   0.550   3.255  10.065  0.2611  0.4615  0.1396
  103OSM    C2F10484   0.497   3.083   9.898 -0.5302  0.0759 -0.8231
  103OSM    H2F10485   0.386   3.076   9.902 -0.5033 -0.0041  2.8964
  103OSM    H2G10486   0.546   2.983   9.894 -2.7214 -1.0824 -0.2058
  103OSM    C3F10487   0.546   3.173   9.784 -0.3993  0.8621 -0.0443
  103OSM    H3F10488   0.653   3.203   9.786  1.2463 -4.1405 -0.3231
  103OSM    H3G10489   0.489   3.268   9.789 -0.5584  0.7535  0.2294
  103OSM    C4F10490   0.528   3.119   9.642  0.2363 -0.5014  0.0129
  103OSM    H4F10491   0.433   3.062   9.630 -0.3477 -0.4890  3.5491
  103OSM    H4G10492   0.609   3.044   9.631 -0.0615 -0.8261  0.0070
  103OSM    C5F10493   0.543   3.239   9.543 -0.3769  0.2208  0.8495
  103OSM    H5F10494   0.647   3.273   9.564 -0.8066  1.2454  1.3508
  103OSM    H5G10495   0.478   3.328   9.556 -1.7024 -0.4501 -0.8838
  103OSM    C6F10496   0.537   3.198   9.390  0.2020  0.1504 -0.8971
  103OSM    H6F10497   0.428   3.200   9.368  0.2167  2.8869 -1.1183
  103OSM    H6G10498   0.570   3.095   9.366  1.5397  1.2259 -4.2550
  103OSM    C7F10499   0.605   3.291   9.286  0.1584 -0.3669  0.5799
  103OSM    H7F10500   0.701   3.336   9.320 -0.9571  1.7824  1.0539
  103OSM    H7G10501   0.534   3.376   9.285  0.7493  0.1418 -0.4415
  103OSM    C8F10502   0.629   3.238   9.147 -0.5361 -0.2287  0.4165
  103OSM    H8F10503   0.669   3.135   9.161 -1.6211 -0.5128  1.6736
  103OSM    H8G10504   0.706   3.292   9.089 -0.5751 -0.7046 -0.0918
  103OSM    C9F10505   0.504   3.238   9.065 -0.6151 -0.3776  0.2333
  103OSM    H9F10506   0.445   3.145   9.065 -1.4652  0.1480 -0.1100
  103OSM   C10F10507   0.462   3.336   8.979 -0.5995 -0.6841 -0.2837
  103OSM   H10F10508   0.359   3.332   8.940 -0.5533  2.7829 -1.0837
  103OSM   C11F10509   0.540   3.469   8.951 -0.4249  0.4371 -1.1967
  103OSM   H11F10510   0.592   3.486   9.048 -0.9613 -2.2553 -0.3680
  103OSM   H11G10511   0.464   3.549   8.939 -0.7885  0.2841 -0.0074
  103OSM   C12F10512   0.649   3.455   8.846  0.0919  0.5222 -0.4096
  103OSM   H12F10513   0.661   3.348   8.818  1.4247  0.8400 -1.1606
  103OSM   H12G10514   0.744   3.489   8.893 -0.8203  2.6934 -0.0092
  103OSM   C13F10515   0.608   3.546   8.731 -0.4650  0.3694  0.2591
  103OSM   H13F10516   0.523   3.507   8.671  0.1494 -0.8822  0.1549
  103OSM   H13G10517   0.578   3.644   8.775  2.0113  0.4823  1.9108
  103OSM   C14F10518   0.733   3.570   8.632  0.6408  0.1860  0.6462
  103OSM   H14F10519   0.780   3.471   8.611  0.7857  0.4686 -0.4461
  103OSM   H14G10520   0.796   3.628   8.702  0.3020  1.8174 -0.3478
  103OSM   C15F10521   0.693   3.673   8.517 -0.1564  1.1155 -0.5282
  103OSM   H15F10522   0.724   3.770   8.561 -0.2108  0.3199  1.3895
  103OSM   H15G10523   0.586   3.673   8.486 -0.1972  1.7293 -0.4028
  103OSM   C16F10524   0.770   3.639   8.396  0.4860 -0.9755 -0.3442
  103OSM   H16F10525   0.729   3.550   8.344  1.1387 -1.1429 -0.5805
  103OSM   H16G10526   0.869   3.598   8.428 -0.2228 -1.0251  2.0086
  103OSM   C17F10527   0.782   3.753   8.294 -0.2930  0.4472 -0.6497
  103OSM   H17F10528   0.861   3.723   8.223 -0.2049 -0.9475 -0.0000
  103OSM   H17G10529   0.821   3.834   8.360  0.0166 -0.7010  0.6240
  103OSM   C18F10530   0.654   3.786   8.230 -0.2938  0.7994  0.3495
  103OSM   H18F10531   0.601   3.702   8.181  0.0231  1.3064 -0.8970
  103OSM   H18G10532   0.661   3.875   8.164 -2.5764  0.7063 -0.0980
  103OSM   H18H10533   0.590   3.830   8.309  1.8837  3.5024  0.7715
  104OSM      N10534   1.528   1.358  10.453  0.5038 -0.1844  0.0306
  104OSM    C1510535   1.522   1.224  10.393 -0.3018  0.5374 -0.0352
  104OSM   H15A10536   1.616   1.172  10.397  0.2431  1.5142  0.0861
  104OSM   H15B10537   1.493   1.227  10.289 -2.2190 -0.6265  0.4154
  104OSM   H15C10538   1.448   1.164  10.444  1.2801 -0.2427  1.4221
  104OSM    C1410539   1.615   1.457  10.372  1.2233  0.4728  0.6400
  104OSM   H14A10540   1.610   1.553  10.422 -0.5484 -0.5214  2.5457
  104OSM   H14B10541   1.573   1.458  10.272 -0.4823 -0.3195  1.3034
  104OSM   H14C10542   1.718   1.426  10.382  1.0086 -0.6376 -0.3320
  104OSM    C1310543   1.391   1.422  10.445 -0.2894 -0.0766 -0.0493
  104OSM   H13A10544   1.395   1.524  10.478  1.4065  0.8783 -2.8819
  104OSM   H13B10545   1.324   1.378  10.518 -0.0655  0.0865  0.2571
  104OSM   H13C10546   1.353   1.434  10.344 -0.2687  1.1026  0.0785
  104OSM    C1210547   1.573   1.351  10.603  0.1497  0.2332 -0.1165
  104OSM   H12A10548   1.517   1.277  10.658  1.0445  0.6909  1.4693
  104OSM   H12B10549   1.551   1.441  10.658  1.1227  0.4350 -0.0289
  104OSM    C1110550   1.725   1.319  10.628  0.5315  0.4432 -0.1021
  104OSM   H11A10551   1.740   1.299  10.736 -1.7725 -3.3108 -0.3348
  104OSM   H11B10552   1.765   1.420  10.603 -1.9253  1.8011  1.1310
  104OSM      P10553   1.925   1.205  10.504  0.0896 -0.3665 -0.2928
  104OSM    O1310554   2.005   1.231  10.629 -0.3231 -0.1766 -0.1322
  104OSM    O1410555   1.943   1.076  10.433 -0.4450 -0.3758  0.0023
  104OSM    O1110556   1.928   1.331  10.404 -0.1963  0.0942 -0.7204
  104OSM    O1210557   1.781   1.203  10.552  0.3366  0.6304  0.0909
  104OSM    C1S10558   2.011   1.307  10.287 -0.2846 -0.1068  0.1113
  104OSM    H1S10559   1.959   1.249  10.207  2.9990 -1.4121 -1.2508
  104OSM    H1T10560   2.102   1.251  10.317 -1.8525 -1.7313  2.2169
  104OSM     NF10561   2.137   1.417  10.108  0.2860  0.2670  0.7847
  104OSM    HNF10562   2.235   1.438  10.113  0.4205 -0.2434  0.4013
  104OSM    C2S10563   2.054   1.443  10.223 -0.2011 -0.4275 -0.4489
  104OSM    H2S10564   1.967   1.506  10.195 -1.2520 -1.8009 -0.3572
  104OSM    C3S10565   2.120   1.531  10.333  0.2148  0.2898 -0.3685
  104OSM    H3S10566   2.215   1.490  10.374 -0.1388  1.2932  1.5934
  104OSM     O310567   2.042   1.556  10.453  0.6492 -0.1199 -0.6877
  104OSM    HO310568   1.974   1.488  10.446 -1.8016  2.0238  0.5726
  104OSM    C4S10569   2.165   1.663  10.267 -0.1576  0.2435 -0.1044
  104OSM    H4S10570   2.273   1.657  10.247  0.1249  1.6061  0.8573
  104OSM    C5S10571   2.099   1.781  10.245 -0.1857 -0.5363 -0.1495
  104OSM    H5S10572   1.992   1.792  10.266 -0.0337 -0.0099  0.3736
  104OSM    C6S10573   2.174   1.902  10.174 -0.1283  0.0018 -0.2971
  104OSM    H6S10574   2.280   1.925  10.201 -0.7355  1.2198  1.2061
  104OSM    H6T10575   2.125   1.996  10.207  0.5246 -0.1994  1.3955
  104OSM    C7S10576   2.148   1.897  10.025 -0.3869  0.3412 -0.2287
  104OSM    H7S10577   2.193   1.989   9.980 -0.5437  1.4126  1.7186
  104OSM    H7T10578   2.042   1.914   9.998 -0.1750  0.5527 -0.9673
  104OSM    C8S10579   2.193   1.778   9.943 -0.0557  0.1109 -0.0346
  104OSM    H8S10580   2.133   1.690   9.975 -0.8143 -0.7986 -3.5215
  104OSM    H8T10581   2.300   1.768   9.973 -0.3545 -0.7773  0.7839
  104OSM    C9S10582   2.187   1.805   9.794 -0.2572 -0.1958  0.2024
  104OSM    H9S10583   2.225   1.909   9.796  0.8266 -0.5801  0.8688
  104OSM    H9T10584   2.081   1.795   9.762  0.1020 -1.3162 -0.7034
  104OSM   C10S10585   2.257   1.709   9.705  0.4755  0.1299 -0.0994
  104OSM   H10S10586   2.228   1.602   9.719  0.1525  0.1067 -0.8863
  104OSM   H10T10587   2.365   1.713   9.726  0.8730  1.9179 -2.1316
  104OSM   C11S10588   2.230   1.737   9.553  0.3517 -1.1419  0.9681
  104OSM   H11S10589   2.253   1.843   9.529  1.0262 -1.3308  0.7527
  104OSM   H11T10590   2.123   1.721   9.529  0.6747 -2.9877  0.5863
  104OSM   C12S10591   2.322   1.640   9.478  0.3864 -0.2713  0.3477
  104OSM   H12S10592   2.284   1.537   9.497  0.7415 -0.3878  0.4411
  104OSM   H12T10593   2.427   1.641   9.514  0.9811 -0.5600 -1.2893
  104OSM   C13S10594   2.317   1.659   9.321  0.5960 -0.4226 -0.4034
  104OSM   H13S10595   2.218   1.650   9.271  0.8383  1.1224 -1.2299
  104OSM   H13T10596   2.383   1.589   9.263  1.3477 -0.7999  0.8730
  104OSM   C14S10597   2.358   1.801   9.288 -0.1956  0.5059 -0.3113
  104OSM   H14S10598   2.452   1.821   9.344 -0.9702  1.7104  0.6130
  104OSM   H14T10599   2.282   1.881   9.302 -0.3597  0.6979 -2.0491
  104OSM   C15S10600   2.401   1.817   9.138  0.0582 -0.5606  0.1512
  104OSM   H15S10601   2.309   1.819   9.075 -0.4114  2.5364  0.8007
  104OSM   H15T10602   2.450   1.725   9.098  0.1271 -0.5064  0.1099
  104OSM   C16S10603   2.480   1.944   9.099 -0.1071  0.5333  0.0961
  104OSM   H16S10604   2.567   1.958   9.166  2.0443 -1.1152 -2.1693
  104OSM   H16T10605   2.405   2.024   9.119 -0.6515 -0.3143  1.5868
  104OSM   C17S10606   2.538   1.949   8.951  0.6790 -0.1348  0.1574
  104OSM   H17S10607   2.562   2.057   8.943 -0.4910  0.0971 -0.4807
  104OSM   H17T10608   2.452   1.928   8.884 -0.6168  0.8714  1.4383
  104OSM   C18S10609   2.664   1.864   8.915 -0.3858  0.6662 -0.3199
  104OSM   H18S10610   2.630   1.759   8.912 -0.2393  0.5644  1.0378
  104OSM   H18T10611   2.745   1.890   8.987  0.0660  1.2168 -1.0100
  104OSM   H18U10612   2.706   1.893   8.816  1.1761 -0.8411 -0.1340
  104OSM    C1F10613   2.075   1.361  10.003 -0.4429  0.1927  0.5470
  104OSM     OF10614   1.956   1.352  10.006  0.7353 -0.0917 -0.3657
  104OSM    C2F10615   2.160   1.313   9.880  0.1932  0.4946  0.2440
  104OSM    H2F10616   2.166   1.203   9.887  1.2789  0.3204 -2.4755
  104OSM    H2G10617   2.265   1.346   9.896  0.4168 -0.4541  0.8515
  104OSM    C3F10618   2.104   1.361   9.742  0.4198  0.6031 -0.1455
  104OSM    H3F10619   2.099   1.472   9.740  3.4641  0.8190  0.1987
  104OSM    H3G10620   1.998   1.330   9.729  0.8068 -0.7604 -0.1674
  104OSM    C4F10621   2.192   1.302   9.626  0.9018  0.2545 -0.8210
  104OSM    H4F10622   2.286   1.360   9.615 -0.7568  3.1971 -0.4675
  104OSM    H4G10623   2.133   1.321   9.534 -1.5467  2.1931  0.9869
  104OSM    C5F10624   2.226   1.150   9.636  0.0106 -0.0404 -0.5790
  104OSM    H5F10625   2.134   1.090   9.654 -1.3984  1.8793 -1.0023
  104OSM    H5G10626   2.293   1.126   9.721  0.7924 -0.0400 -1.1869
  104OSM    C6F10627   2.302   1.097   9.510  0.4633 -0.3395  0.4625
  104OSM    H6F10628   2.311   0.987   9.500 -1.6554 -0.5259  0.2336
  104OSM    H6G10629   2.398   1.152   9.505 -0.6836  1.6656 -1.4179
  104OSM    C7F10630   2.228   1.127   9.373 -0.2648 -0.2997  1.3288
  104OSM    H7F10631   2.227   1.236   9.355  0.3582 -0.6292 -1.1741
  104OSM    H7G10632   2.122   1.094   9.367 -0.6076  0.8851  0.5035
  104OSM    C8F10633   2.313   1.074   9.255  0.4194 -0.5645 -0.3410
  104OSM    H8F10634   2.297   0.965   9.269  3.1116 -0.8247  1.4179
  104OSM    H8G10635   2.421   1.076   9.277  0.4936  0.2144 -0.7444
  104OSM    C9F10636   2.275   1.123   9.120 -0.2136 -0.0500  0.0313
  104OSM    H9F10637   2.168   1.109   9.099 -0.3246 -0.5771  0.8793
  104OSM   C10F10638   2.357   1.184   9.029  0.0977  0.4411 -0.1281
  104OSM   H10F10639   2.313   1.211   8.932 -1.3407  0.4439  0.4928
  104OSM   C11F10640   2.505   1.202   9.033  0.3748  0.3593 -0.0506
  104OSM   H11F10641   2.550   1.158   9.125  0.9696  1.0841  0.0191
  104OSM   H11G10642   2.521   1.312   9.037  0.9241  0.2524  1.3916
  104OSM   C12F10643   2.589   1.157   8.913  0.1417  0.1023 -0.0296
  104OSM   H12F10644   2.584   1.046   8.904  0.0326  0.0092  1.0766
  104OSM   H12G10645   2.694   1.187   8.931 -0.1180  0.9892  0.0810
  104OSM   C13F10646   2.548   1.212   8.781 -0.0096 -0.1973 -0.4240
  104OSM   H13F10647   2.567   1.322   8.788  1.3036 -0.4306  0.0612
  104OSM   H13G10648   2.442   1.188   8.758 -0.7166  1.3688  0.9528
  104OSM   C14F10649   2.644   1.150   8.676  0.3393  0.4506 -0.0475
  104OSM   H14F10650   2.613   1.045   8.656 -1.2944  0.7943  0.5852
  104OSM   H14G10651   2.750   1.145   8.709  0.3209  3.3280  0.7095
  104OSM   C15F10652   2.650   1.224   8.543 -0.0871  0.5901  0.0940
  104OSM   H15F10653   2.673   1.331   8.560  1.7403  0.6809 -2.4190
  104OSM   H15G10654   2.551   1.216   8.494  0.6926 -0.7734 -1.3865
  104OSM   C16F10655   2.755   1.164   8.447  0.9647 -0.8121 -0.2315
  104OSM   H16F10656   2.730   1.061   8.414  1.0433 -1.5442  1.8367
  104OSM   H16G10657   2.857   1.164   8.491  1.2149  0.0881 -0.7896
  104OSM   C17F10658   2.762   1.252   8.320 -0.3691 -0.7219  0.4065
  104OSM   H17F10659   2.668   1.281   8.268  1.3333 -0.1159 -2.5806
  104OSM   H17G10660   2.821   1.204   8.240  0.9478  1.6009 -0.1254
  104OSM   C18F10661   2.830   1.395   8.336 -0.1612  0.5963  0.0225
  104OSM   H18F10662   2.849   1.434   8.234  3.1503 -0.4136  0.1488
  104OSM   H18G10663   2.931   1.372   8.374  0.8969 -0.9956 -3.3245
  104OSM   H18H10664   2.774   1.465   8.402  2.5998  1.5416  1.5254
  105OSM      N10665   4.008   1.689  10.725 -0.6547 -0.0688 -0.1750
  105OSM    C1510666   3.965   1.656  10.863 -0.7026  0.2051 -0.5555
  105OSM   H15A10667   3.910   1.742  10.899 -0.1358  0.9210 -1.3475
  105OSM   H15B10668   4.048   1.635  10.929 -2.0864  1.0449  1.5632
  105OSM   H15C10669   3.897   1.572  10.863 -0.1531 -0.2460  0.0345
  105OSM    C1410670   3.882   1.740  10.650  0.7960 -0.2332 -0.1504
  105OSM   H14A10671   3.906   1.776  10.551 -0.3071 -1.0924 -0.7540
  105OSM   H14B10672   3.825   1.820  10.694  1.4624  0.3544 -0.3213
  105OSM   H14C10673   3.815   1.655  10.650  1.7364 -1.0230  1.4651
  105OSM    C1310674   4.117   1.796  10.726  0.3056  0.0451  0.4749
  105OSM   H13A10675   4.072   1.893  10.741  1.4064  0.0782  4.9277
  105OSM   H13B10676   4.175   1.794  10.635 -1.6668 -2.0054 -0.8662
  105OSM   H13C10677   4.192   1.790  10.803  0.2674 -3.9448  0.4193
  105OSM    C1210678   4.061   1.566  10.659 -0.3029 -0.2158 -0.2489
  105OSM   H12A10679   3.998   1.480  10.676 -0.3445  0.2649  2.4697
  105OSM   H12B10680   4.149   1.542  10.717  0.1213  3.3517  0.8522
  105OSM    C1110681   4.092   1.580  10.511 -0.5856  0.2826  0.1180
  105OSM   H11A10682   4.012   1.630  10.452  0.0941 -0.4852 -1.5203
  105OSM   H11B10683   4.099   1.478  10.467 -0.5192 -0.7184  2.3123
  105OSM      P10684   4.358   1.578  10.520  0.0701 -0.0011 -0.1652
  105OSM    O1310685   4.426   1.641  10.638 -0.2395  0.3097  0.5211
  105OSM    O1410686   4.338   1.429  10.526 -0.4957 -0.0497 -0.4385
  105OSM    O1110687   4.442   1.615  10.391 -0.0174 -0.3499  0.4059
  105OSM    O1210688   4.216   1.651  10.500 -0.0029  0.1793  0.2861
  105OSM    C1S10689   4.406   1.570  10.261  0.2782 -0.3150 -0.4019
  105OSM    H1S10690   4.311   1.620  10.232  1.3585  1.9140 -0.3432
  105OSM    H1T10691   4.375   1.464  10.271 -0.5821 -0.0177  0.1286
  105OSM     NF10692   4.493   1.567  10.024  0.0588 -0.1967  0.3537
  105OSM    HNF10693   4.531   1.485   9.981 -3.2710 -0.8812 -1.5810
  105OSM    C2S10694   4.529   1.590  10.164  0.5501  0.1844 -1.4733
  105OSM    H2S10695   4.549   1.698  10.178 -1.7464  0.5652 -0.6480
  105OSM    C3S10696   4.660   1.516  10.208 -0.4036 -0.1843 -0.0296
  105OSM    H3S10697   4.648   1.408  10.188 -1.9043 -0.4263  1.8741
  105OSM     O310698   4.685   1.519  10.343  0.7168 -0.0645 -0.0967
  105OSM    HO310699   4.596   1.537  10.375 -0.1158  2.3042 -3.2393
  105OSM    C4S10700   4.782   1.568  10.147  0.7292 -0.2962  0.0880
  105OSM    H4S10701   4.788   1.677  10.159 -1.9574 -0.0936  0.2937
  105OSM    C5S10702   4.880   1.509  10.084 -0.0986 -0.4182 -0.3685
  105OSM    H5S10703   4.887   1.401  10.063 -0.0582 -0.2576 -1.2187
  105OSM    C6S10704   4.999   1.587  10.030  0.5927  0.2790 -0.1022
  105OSM    H6S10705   5.088   1.546  10.083  0.8759  1.7922  0.6601
  105OSM    H6T10706   4.998   1.694  10.061 -0.2223  0.0415  0.7561
  105OSM    C7S10707   5.034   1.553   9.882  0.3376 -0.2020 -0.7005
  105OSM    H7S10708   5.041   1.442   9.874  1.4480 -0.3438  1.4528
  105OSM    H7T10709   5.139   1.588   9.868  0.5605  0.2063  1.6547
  105OSM    C8S10710   4.946   1.615   9.779 -0.1006 -0.6213 -0.0074
  105OSM    H8S10711   4.935   1.725   9.793  2.9972 -0.3583  1.0600
  105OSM    H8T10712   4.852   1.555   9.781 -0.1200 -0.5821  0.2768
  105OSM    C9S10713   5.018   1.600   9.640 -0.1445 -0.4460  0.1178
  105OSM    H9S10714   5.078   1.506   9.638  1.4101  0.5159 -0.9306
  105OSM    H9T10715   5.086   1.685   9.616 -0.5414  0.4351  1.9525
  105OSM   C10S10716   4.911   1.595   9.525 -0.2399  0.0387  0.1128
  105OSM   H10S10717   4.850   1.687   9.536  1.6230  1.1097  2.5377
  105OSM   H10T10718   4.850   1.503   9.542  0.7922 -0.9380 -1.3171
  105OSM   C11S10719   4.985   1.591   9.389 -0.0528  0.1317 -0.0519
  105OSM   H11S10720   5.047   1.500   9.382  1.9192  1.4996 -1.2788
  105OSM   H11T10721   5.054   1.677   9.374  1.5614 -1.1453 -0.2208
  105OSM   C12S10722   4.891   1.595   9.265  0.3080 -0.7160  0.5259
  105OSM   H12S10723   4.845   1.696   9.259 -1.9960 -1.5363  2.7065
  105OSM   H12T10724   4.809   1.520   9.275  0.8221 -1.3887 -0.1313
  105OSM   C13S10725   4.969   1.578   9.133  0.0354 -0.1061 -0.1179
  105OSM   H13S10726   5.039   1.493   9.150  0.4503  0.5276  1.4525
  105OSM   H13T10727   5.035   1.666   9.118  1.5600 -1.3910 -1.3557
  105OSM   C14S10728   4.880   1.548   9.016 -0.7918  1.0806  0.6099
  105OSM   H14S10729   4.824   1.637   8.980  0.7436  1.8175 -0.0440
  105OSM   H14T10730   4.803   1.473   9.042 -0.9872  1.0447 -0.0515
  105OSM   C15S10731   4.968   1.497   8.899 -0.2511 -0.1815 -0.0713
  105OSM   H15S10732   5.013   1.397   8.917 -0.0590 -0.4846 -2.0124
  105OSM   H15T10733   5.047   1.567   8.864  0.0068  0.6114  1.9538
  105OSM   C16S10734   4.882   1.479   8.765  0.0970 -0.6939 -0.4239
  105OSM   H16S10735   4.943   1.455   8.675  3.1208  1.9569  0.6972
  105OSM   H16T10736   4.818   1.568   8.748  0.2253 -0.4560  0.2684
  105OSM   C17S10737   4.784   1.367   8.781  0.3968  0.0125  0.1484
  105OSM   H17S10738   4.723   1.388   8.871 -0.6225 -0.3044 -0.4470
  105OSM   H17T10739   4.841   1.276   8.811 -1.8167 -0.6566  2.6687
  105OSM   C18S10740   4.690   1.335   8.662 -0.3430 -0.1794  0.4623
  105OSM   H18S10741   4.643   1.234   8.660 -0.0287 -0.3184 -0.6681
  105OSM   H18T10742   4.756   1.340   8.572 -0.0089  0.8873  0.7571
  105OSM   H18U10743   4.629   1.423   8.633  1.5712  0.7844 -0.8537
  105OSM    C1F10744   4.402   1.645   9.963 -0.6552 -0.0842  0.0587
  105OSM     OF10745   4.356   1.748  10.017 -0.2672  0.4146  0.3074
  105OSM    C2F10746   4.362   1.603   9.825  0.4972  0.0089  0.5897
  105OSM    H2F10747   4.392   1.497   9.813  0.7746  0.2912 -1.7094
  105OSM    H2G10748   4.419   1.666   9.753 -0.1039  0.3805  0.4331
  105OSM    C3F10749   4.206   1.618   9.806 -0.0214  0.1773  0.3637
  105OSM    H3F10750   4.190   1.728   9.801  0.7716  0.4036  2.1022
  105OSM    H3G10751   4.161   1.571   9.896 -0.5311 -0.0581 -0.0080
  105OSM    C4F10752   4.147   1.544   9.683  0.0506  0.2313  0.0412
  105OSM    H4F10753   4.041   1.576   9.680  0.1066  0.6161  1.6100
  105OSM    H4G10754   4.150   1.433   9.689 -2.7782  0.0751 -0.0769
  105OSM    C5F10755   4.231   1.566   9.553  0.0446  0.0426 -0.1572
  105OSM    H5F10756   4.316   1.495   9.561 -0.3401 -0.5509 -1.1693
  105OSM    H5G10757   4.260   1.673   9.546  2.6599 -0.5827 -0.0184
  105OSM    C6F10758   4.146   1.515   9.435 -0.4433 -0.0075  0.0180
  105OSM    H6F10759   4.040   1.530   9.466 -0.6221  0.0004 -0.5692
  105OSM    H6G10760   4.161   1.406   9.423  2.5873  0.4077 -0.9198
  105OSM    C7F10761   4.176   1.606   9.318 -0.4638 -0.4798  0.8568
  105OSM    H7F10762   4.277   1.583   9.277 -0.5985 -3.0141  1.8017
  105OSM    H7G10763   4.161   1.711   9.349 -1.3379 -0.7422  1.3519
  105OSM    C8F10764   4.094   1.581   9.181  0.2574 -0.4966 -0.7742
  105OSM    H8F10765   4.094   1.671   9.116 -0.8111  0.0117 -0.1180
  105OSM    H8G10766   3.991   1.564   9.219  0.7333  1.5709  1.7475
  105OSM    C9F10767   4.129   1.456   9.110  0.1772  0.6642 -0.1830
  105OSM    H9F10768   4.128   1.368   9.175  3.7098  1.7549  1.6061
  105OSM   C10F10769   4.175   1.452   8.984  0.3588 -0.0425  0.5912
  105OSM   H10F10770   4.197   1.359   8.929 -0.6365  0.4449 -0.6968
  105OSM   C11F10771   4.202   1.578   8.898  0.5562  0.8294 -0.6359
  105OSM   H11F10772   4.258   1.654   8.956  0.1303  1.5687 -1.1724
  105OSM   H11G10773   4.103   1.615   8.864  0.7274 -0.0443 -2.1659
  105OSM   C12F10774   4.283   1.539   8.777 -0.3247 -0.6476 -0.0265
  105OSM   H12F10775   4.247   1.448   8.726 -3.6912  1.9091 -2.6746
  105OSM   H12G10776   4.386   1.520   8.814 -0.4095  0.5895  0.9367
  105OSM   C13F10777   4.293   1.663   8.683 -0.1374  0.5643  0.1089
  105OSM   H13F10778   4.315   1.750   8.749  0.7146 -0.7201  1.5778
  105OSM   H13G10779   4.194   1.683   8.638  0.2746  0.1901 -1.0070
  105OSM   C14F10780   4.390   1.645   8.576 -0.5058 -0.0625 -0.6084
  105OSM   H14F10781   4.468   1.575   8.612  1.0317  3.0136  2.7444
  105OSM   H14G10782   4.432   1.746   8.553 -0.8665  0.2321  0.0056
  105OSM   C15F10783   4.322   1.579   8.454  0.2694  0.0657 -0.7052
  105OSM   H15F10784   4.242   1.649   8.423  0.3896  0.7518  0.4601
  105OSM   H15G10785   4.276   1.480   8.475  2.2740 -0.8119 -0.1225
  105OSM   C16F10786   4.406   1.570   8.332 -0.4200 -0.5110  0.2381
  105OSM   H16F10787   4.490   1.643   8.330  0.3883 -1.3358  1.7851
  105OSM   H16G10788   4.337   1.588   8.247 -1.3160  0.2238  1.0987
  105OSM   C17F10789   4.475   1.433   8.319  0.0071 -0.3110  0.5502
  105OSM   H17F10790   4.396   1.356   8.311 -0.7929  0.6947 -3.1845
  105OSM   H17G10791   4.544   1.416   8.404  2.4016 -0.2931 -1.2808
  105OSM   C18F10792   4.558   1.409   8.189 -0.1582 -0.6853  0.2171
  105OSM   H18F10793   4.560   1.509   8.141 -1.2488 -0.9552 -0.4290
  105OSM   H18G10794   4.499   1.346   8.120 -0.0240 -1.8046  1.0924
  105OSM   H18H10795   4.651   1.358   8.223  0.1238 -0.5952 -0.4170
  106OSM      N10796   5.655   6.346  10.758  0.0128  0.3413  0.7727
  106OSM    C1510797   5.672   6.368  10.907 -0.2253 -0.0083 -0.2200
  106OSM   H15A10798   5.771   6.339  10.940 -0.1603 -0.0063 -0.4105
  106OSM   H15B10799   5.592   6.315  10.955 -2.5397  1.8018 -1.8528
  106OSM   H15C10800   5.673   6.474  10.926  2.4231  0.3665 -1.8900
  106OSM    C1410801   5.650   6.199  10.741  0.0509 -0.1124  0.0308
  106OSM   H14A10802   5.563   6.159  10.792  0.5299 -1.2843 -0.0448
  106OSM   H14B10803   5.736   6.147  10.781  0.9006  1.6512  0.5980
  106OSM   H14C10804   5.631   6.176  10.638  0.9263  1.3195 -0.4734
  106OSM    C1310805   5.528   6.406  10.710 -0.8435  0.4216  0.1550
  106OSM   H13A10806   5.503   6.371  10.611  2.6602 -0.7305 -0.4708
  106OSM   H13B10807   5.527   6.514  10.701 -3.8213  0.3545 -2.1311
  106OSM   H13C10808   5.443   6.378  10.770  0.3938 -0.0601  1.7672
  106OSM    C1210809   5.774   6.416  10.687  0.5000  0.2163  0.2254
  106OSM   H12A10810   5.747   6.520  10.699 -1.0505  0.0385 -1.2423
  106OSM   H12B10811   5.758   6.390  10.583 -0.5076  1.0813  0.1431
  106OSM    C1110812   5.917   6.375  10.728  0.4711  0.2471 -0.4720
  106OSM   H11A10813   5.933   6.430  10.824  1.5737 -1.1850  0.2039
  106OSM   H11B10814   5.990   6.427  10.664  1.3774  0.9614  1.0828
  106OSM      P10815   5.977   6.151  10.617 -0.2336 -0.1900  0.2118
  106OSM    O1310816   6.126   6.152  10.613 -0.5656  0.4080  0.3330
  106OSM    O1410817   5.914   6.015  10.618 -0.4289 -0.1193 -0.2991
  106OSM    O1110818   5.912   6.233  10.492 -0.3064  0.4504 -0.7194
  106OSM    O1210819   5.931   6.236  10.741 -0.3326 -0.3234 -0.0217
  106OSM    C1S10820   5.996   6.281  10.391 -0.4524  0.5135 -0.1033
  106OSM    H1S10821   6.094   6.230  10.386 -0.7124 -0.1357  0.9190
  106OSM    H1T10822   6.022   6.384  10.422 -2.6953  0.4074  2.6046
  106OSM     NF10823   6.033   6.317  10.147 -0.2799 -0.0041 -0.2411
  106OSM    HNF10824   6.016   6.403  10.100  0.0744 -0.0822 -0.5141
  106OSM    C2S10825   5.936   6.281  10.251  0.3452 -0.5736  0.3951
  106OSM    H2S10826   5.904   6.176  10.235  0.6237 -0.8176  1.3672
  106OSM    C3S10827   5.805   6.365  10.233  0.4532 -0.7697 -0.0288
  106OSM    H3S10828   5.844   6.469  10.222  0.2577 -0.1947  3.5389
  106OSM     O310829   5.710   6.352  10.346 -0.4988  0.9426 -0.6951
  106OSM    HO310830   5.758   6.310  10.418 -0.6646  1.9854  0.0463
  106OSM    C4S10831   5.731   6.331  10.101 -0.1392  0.5527 -0.2272
  106OSM    H4S10832   5.667   6.242  10.115 -0.7332  1.0566  0.3838
  106OSM    C5S10833   5.749   6.396   9.984  0.0975  0.4901  0.2008
  106OSM    H5S10834   5.815   6.485   9.980  3.7121 -1.9772 -0.3979
  106OSM    C6S10835   5.691   6.357   9.852  0.9023  0.1046 -0.1764
  106OSM    H6S10836   5.597   6.415   9.834  0.0853 -1.6679 -2.0002
  106OSM    H6T10837   5.660   6.250   9.854 -1.9925  0.8486  1.3924
  106OSM    C7S10838   5.781   6.390   9.732 -0.0105  0.2737  0.5030
  106OSM    H7S10839   5.875   6.333   9.748  0.9161  1.6215  0.1178
  106OSM    H7T10840   5.817   6.495   9.720  1.9626  0.1686  3.9659
  106OSM    C8S10841   5.716   6.350   9.601 -0.2986 -0.5753  0.8858
  106OSM    H8S10842   5.627   6.413   9.584 -0.3851 -0.7357  0.7357
  106OSM    H8T10843   5.679   6.245   9.601 -2.1414  0.0278 -0.2251
  106OSM    C9S10844   5.822   6.376   9.486 -0.2731 -0.0653  0.5365
  106OSM    H9S10845   5.909   6.306   9.495  0.8378  1.2161  0.0496
  106OSM    H9T10846   5.848   6.483   9.496  0.8706 -0.3737  1.2221
  106OSM   C10S10847   5.758   6.366   9.342  0.5700  0.6178  0.1425
  106OSM   H10S10848   5.654   6.404   9.345  0.3233  0.0970  3.8414
  106OSM   H10T10849   5.738   6.261   9.310 -2.7322  0.9823  0.6438
  106OSM   C11S10850   5.850   6.434   9.251 -0.1105 -0.5215  0.0709
  106OSM   H11S10851   5.951   6.389   9.238  0.5432  0.7885  0.4226
  106OSM   H11T10852   5.873   6.532   9.296  0.5696 -0.7388  0.2156
  106OSM   C12S10853   5.790   6.462   9.113  0.6138 -0.2728 -0.5661
  106OSM   H12S10854   5.695   6.519   9.107  0.3758 -0.7690 -2.0461
  106OSM   H12T10855   5.754   6.360   9.087  1.2536 -0.8208  0.6163
  106OSM   C13S10856   5.894   6.499   9.014  0.2057  0.6106  0.4577
  106OSM   H13S10857   5.990   6.443   9.014  0.7609  1.1356 -4.3471
  106OSM   H13T10858   5.920   6.607   9.020  2.7773  0.0892  0.0168
  106OSM   C14S10859   5.846   6.479   8.866  0.2159 -0.4170  0.2349
  106OSM   H14S10860   5.755   6.542   8.860  1.4115  1.2502 -1.8524
  106OSM   H14T10861   5.820   6.374   8.842  1.9148 -0.5717 -1.1525
  106OSM   C15S10862   5.943   6.520   8.754  0.0714 -0.1753 -0.2280
  106OSM   H15S10863   6.048   6.496   8.779  0.3731 -0.2865 -1.5459
  106OSM   H15T10864   5.947   6.631   8.761  1.4193 -0.1006 -1.6468
  106OSM   C16S10865   5.911   6.485   8.608  0.4455  0.9362  0.4680
  106OSM   H16S10866   5.929   6.566   8.534 -1.0919  2.3511  1.5587
  106OSM   H16T10867   5.800   6.484   8.602  0.4122 -2.3778 -0.7956
  106OSM   C17S10868   5.954   6.353   8.544  0.2690 -0.0750 -0.2526
  106OSM   H17S10869   6.065   6.348   8.557  0.0428 -2.4555  1.5701
  106OSM   H17T10870   5.919   6.369   8.440  0.4575 -0.9032 -0.4496
  106OSM   C18S10871   5.898   6.225   8.594 -0.5524 -0.1174  0.8186
  106OSM   H18S10872   5.941   6.203   8.695 -2.8717  1.3790  2.2329
  106OSM   H18T10873   5.921   6.150   8.516  0.7497 -1.9816  2.8671
  106OSM   H18U10874   5.788   6.228   8.609 -0.7406  2.3561 -0.6253
  106OSM    C1F10875   6.145   6.248  10.112 -0.0807 -0.0536  0.6894
  106OSM     OF10876   6.169   6.136  10.150 -0.1525  0.1831 -0.0371
  106OSM    C2F10877   6.242   6.314  10.014 -0.2961 -0.1517  0.3641
  106OSM    H2F10878   6.348   6.290  10.040 -0.3165 -0.0787  0.5204
  106OSM    H2G10879   6.233   6.425  10.017  0.1302 -0.1191  0.7146
  106OSM    C3F10880   6.218   6.255   9.878 -0.2055  0.2525 -0.5887
  106OSM    H3F10881   6.109   6.266   9.857 -0.2005 -0.7595 -1.1835
  106OSM    H3G10882   6.244   6.148   9.867 -1.2026 -0.0290 -0.3876
  106OSM    C4F10883   6.284   6.329   9.758  0.4472  0.0701 -0.5680
  106OSM    H4F10884   6.385   6.283   9.755 -0.8620 -3.1231 -3.9281
  106OSM    H4G10885   6.284   6.438   9.777 -0.5268 -0.1054  0.5748
  106OSM    C5F10886   6.210   6.300   9.625  0.6855 -0.0345 -0.1282
  106OSM    H5F10887   6.110   6.347   9.626  0.5382 -0.3042 -1.2745
  106OSM    H5G10888   6.198   6.190   9.626  0.8277 -0.1049 -2.1356
  106OSM    C6F10889   6.276   6.329   9.497 -0.1246  0.5144 -0.1106
  106OSM    H6F10890   6.375   6.282   9.479 -0.6301 -1.5739  2.0182
  106OSM    H6G10891   6.282   6.440   9.495  0.8498  0.4674 -0.4133
  106OSM    C7F10892   6.197   6.275   9.382  0.0051 -0.0943  0.2583
  106OSM    H7F10893   6.106   6.339   9.388  1.4782  2.4680 -2.3920
  106OSM    H7G10894   6.170   6.167   9.391 -2.5181  0.4942  0.6971
  106OSM    C8F10895   6.264   6.313   9.254  0.0297 -0.1229 -0.6010
  106OSM    H8F10896   6.374   6.298   9.250  0.0892 -0.1212  0.6072
  106OSM    H8G10897   6.243   6.421   9.244  1.2359  0.0224 -1.9304
  106OSM    C9F10898   6.191   6.238   9.147  0.0913  0.3678 -0.1080
  106OSM    H9F10899   6.097   6.190   9.177 -0.5418  0.3834 -1.9144
  106OSM   C10F10900   6.243   6.215   9.023 -0.8379  0.4779 -0.1427
  106OSM   H10F10901   6.184   6.156   8.951  0.4361 -1.5799  0.4275
  106OSM   C11F10902   6.373   6.267   8.969 -0.6355 -0.3161 -0.1208
  106OSM   H11F10903   6.448   6.186   8.954 -0.2009  0.0944 -0.2033
  106OSM   H11G10904   6.431   6.340   9.029  2.3019 -1.2161 -1.6555
  106OSM   C12F10905   6.361   6.341   8.838 -0.7476  0.1475  0.5002
  106OSM   H12F10906   6.463   6.365   8.801 -0.6468 -0.7055  0.1958
  106OSM   H12G10907   6.317   6.443   8.845  2.4658  1.6974 -0.2280
  106OSM   C13F10908   6.291   6.257   8.727  0.2089 -0.4910  0.1245
  106OSM   H13F10909   6.280   6.331   8.645  1.3369  0.6935  0.9998
  106OSM   H13G10910   6.189   6.237   8.766  0.2606 -1.7359 -0.3370
  106OSM   C14F10911   6.359   6.133   8.690 -0.2280 -0.1027 -0.4394
  106OSM   H14F10912   6.357   6.067   8.779 -0.3532  0.3549 -0.1002
  106OSM   H14G10913   6.463   6.155   8.659  0.0132 -1.6223 -0.7745
  106OSM   C15F10914   6.290   6.055   8.581  0.2283  0.0267  0.4268
  106OSM   H15F10915   6.180   6.067   8.591 -0.3125 -0.4997 -3.1867
  106OSM   H15G10916   6.320   5.949   8.598  1.6667  0.0754 -1.4969
  106OSM   C16F10917   6.322   6.098   8.434  0.8271  0.8524 -0.2519
  106OSM   H16F10918   6.431   6.082   8.421  0.6747 -0.7452  0.2396
  106OSM   H16G10919   6.301   6.205   8.411 -0.4531  0.3998 -1.3149
  106OSM   C17F10920   6.245   6.015   8.322 -0.1508 -0.4517 -0.3856
  106OSM   H17F10921   6.284   6.039   8.221 -1.0988 -1.4262 -1.0117
  106OSM   H17G10922   6.139   6.048   8.332 -0.4943 -1.8333  0.8741
  106OSM   C18F10923   6.256   5.868   8.338  0.3778  0.8992 -0.3589
  106OSM   H18F10924   6.226   5.829   8.437 -1.0607 -2.3871 -1.9297
  106OSM   H18G10925   6.362   5.835   8.328 -0.2143 -2.1890  1.9630
  106OSM   H18H10926   6.195   5.809   8.266  0.8998 -0.2902  0.1437
  107OSM      N10927   5.495   5.252  11.013 -0.0840  0.3274 -0.3441
  107OSM    C1510928   5.395   5.351  10.971 -0.0095 -0.4085 -0.1210
  107OSM   H15A10929   5.422   5.435  11.033  1.3608 -1.4411  0.7125
  107OSM   H15B10930   5.298   5.307  10.988 -0.1505 -1.4742 -3.0754
  107OSM   H15C10931   5.409   5.387  10.870 -4.0890  1.9132 -0.0975
  107OSM    C1410932   5.638   5.299  10.995  0.0046 -0.2268 -0.4287
  107OSM   H14A10933   5.647   5.393  11.048 -0.9592 -0.2308 -0.2507
  107OSM   H14B10934   5.655   5.308  10.889 -1.2419  0.1989 -0.6094
  107OSM   H14C10935   5.717   5.235  11.033 -0.2830  0.0639  0.6894
  107OSM    C1310936   5.476   5.215  11.156  0.0379 -0.1825 -0.3371
  107OSM   H13A10937   5.481   5.297  11.225 -0.8578 -0.5890  0.2298
  107OSM   H13B10938   5.548   5.148  11.200  0.8862  1.6822  1.2624
  107OSM   H13C10939   5.383   5.167  11.183 -0.0644  0.1607 -0.0722
  107OSM    C1210940   5.475   5.124  10.937 -0.1558 -0.1630  0.0474
  107OSM   H12A10941   5.381   5.073  10.956  0.4242 -1.3981 -0.2843
  107OSM   H12B10942   5.546   5.051  10.972 -0.7159 -0.4988  0.4995
  107OSM    C1110943   5.472   5.137  10.781  0.0592  0.2389 -0.1586
  107OSM   H11A10944   5.375   5.183  10.752  0.2037  0.1679 -0.7477
  107OSM   H11B10945   5.461   5.035  10.740 -0.8330  0.1010  0.4006
  107OSM      P10946   5.567   5.309  10.602 -0.0580  0.4499 -0.3594
  107OSM    O1310947   5.469   5.412  10.635 -0.7416  0.2059 -0.5439
  107OSM    O1410948   5.704   5.350  10.559  0.0103  0.5462  0.2531
  107OSM    O1110949   5.502   5.225  10.485  0.5019  0.3219  0.3325
  107OSM    O1210950   5.584   5.210  10.722  0.3314 -0.6302 -0.0001
  107OSM    C1S10951   5.549   5.214  10.357  0.4599  0.9557  0.0937
  107OSM    H1S10952   5.602   5.308  10.329 -0.9368  2.5714  2.4967
  107OSM    H1T10953   5.461   5.207  10.290 -0.1564  0.3908  0.9375
  107OSM     NF10954   5.665   5.116  10.178  0.0365  0.2851 -0.7477
  107OSM    HNF10955   5.605   5.064  10.118 -0.2016  0.3924 -0.6032
  107OSM    C2S10956   5.644   5.091  10.321 -0.7994 -1.1144  0.5156
  107OSM    H2S10957   5.740   5.105  10.375  0.4042  0.1862 -1.7896
  107OSM    C3S10958   5.583   4.961  10.368 -0.0941 -0.7985  0.1980
  107OSM    H3S10959   5.486   4.957  10.314 -0.4029  0.6007  0.6244
  107OSM     O310960   5.558   4.958  10.510 -0.9237 -0.0550  0.0426
  107OSM    HO310961   5.527   5.045  10.535 -1.7777 -0.2253 -0.4023
  107OSM    C4S10962   5.667   4.838  10.334 -0.5500 -0.0988 -0.0213
  107OSM    H4S10963   5.761   4.838  10.392 -1.1263 -0.1709  0.9470
  107OSM    C5S10964   5.627   4.740  10.244  0.1912 -0.0511  0.1820
  107OSM    H5S10965   5.532   4.754  10.190  0.1508 -1.9335 -0.2838
  107OSM    C6S10966   5.707   4.631  10.201  0.2687  0.5041 -0.3536
  107OSM    H6S10967   5.685   4.548  10.273  1.1596 -1.4933 -2.2811
  107OSM    H6T10968   5.816   4.648  10.214  0.6382 -1.0407 -1.1921
  107OSM    C7S10969   5.669   4.569  10.062 -0.4541  0.3503 -0.0152
  107OSM    H7S10970   5.685   4.653   9.990 -0.4718  0.1395 -0.2689
  107OSM    H7T10971   5.562   4.542  10.053 -0.2099 -0.7868  0.3531
  107OSM    C8S10972   5.757   4.452  10.015  0.2352  0.1264  0.4383
  107OSM    H8S10973   5.729   4.366  10.080  1.8723 -0.4133  0.4913
  107OSM    H8T10974   5.858   4.490  10.040 -0.0987  0.5028  1.2316
  107OSM    C9S10975   5.750   4.405   9.865 -0.1809  0.1102 -0.5244
  107OSM    H9S10976   5.807   4.310   9.856  1.7301  1.3139 -1.7883
  107OSM    H9T10977   5.796   4.480   9.797 -2.5707  1.2094 -1.0145
  107OSM   C10S10978   5.606   4.377   9.817  0.8940 -0.2790  0.3281
  107OSM   H10S10979   5.554   4.475   9.820 -0.4945 -0.9736 -0.1953
  107OSM   H10T10980   5.551   4.304   9.880 -0.5750 -0.0907 -0.6617
  107OSM   C11S10981   5.609   4.330   9.669  0.8708 -0.1555 -0.0582
  107OSM   H11S10982   5.648   4.226   9.677  2.6090  0.6063  4.0100
  107OSM   H11T10983   5.683   4.394   9.617 -0.5012 -0.1700 -2.1610
  107OSM   C12S10984   5.472   4.347   9.602 -0.5296 -0.7703  0.1023
  107OSM   H12S10985   5.396   4.323   9.680 -0.6050  1.6018  0.8528
  107OSM   H12T10986   5.465   4.263   9.531  0.3893 -0.2165 -0.6618
  107OSM   C13S10987   5.447   4.493   9.542 -0.0555  0.3727  0.3421
  107OSM   H13S10988   5.502   4.562   9.609  0.7948  1.2649 -1.2388
  107OSM   H13T10989   5.340   4.521   9.553 -0.3580 -0.5871 -0.0682
  107OSM   C14S10990   5.503   4.514   9.401 -0.3627  0.2775 -0.1499
  107OSM   H14S10991   5.608   4.476   9.400 -0.4436 -0.0202  0.8458
  107OSM   H14T10992   5.514   4.622   9.378  1.6445 -0.0856 -1.0865
  107OSM   C15S10993   5.421   4.445   9.296  0.1616 -0.4253  0.3555
  107OSM   H15S10994   5.316   4.475   9.318  0.1607 -0.4098  0.3292
  107OSM   H15T10995   5.435   4.336   9.305  1.4039 -0.1719  2.0801
  107OSM   C16S10996   5.471   4.478   9.154  0.5595 -0.5123 -0.0766
  107OSM   H16S10997   5.580   4.459   9.152  0.4786 -0.9670 -1.5429
  107OSM   H16T10998   5.446   4.580   9.117 -0.7012 -1.5005 -2.1511
  107OSM   C17S10999   5.419   4.369   9.054 -0.1491 -0.0492 -0.1575
  107OSM   H17S11000   5.309   4.384   9.049 -0.3237 -0.9579  0.4916
  107OSM   H17T11001   5.432   4.266   9.094  0.7512  0.2422  0.3318
  107OSM   C18S11002   5.466   4.370   8.906  0.1247  0.4903 -0.3198
  107OSM   H18S11003   5.427   4.286   8.844  3.3962 -0.6059 -1.1056
  107OSM   H18T11004   5.576   4.361   8.891  0.3358  1.4225  0.5860
  107OSM   H18U11005   5.433   4.461   8.853  1.0621  1.5706  0.8971
  107OSM    C1F11006   5.735   5.215  10.131 -0.0236  0.6979  0.1217
  107OSM     OF11007   5.822   5.266  10.205 -0.5317 -0.3674  0.0676
  107OSM    C2F11008   5.725   5.249   9.985 -0.0383 -0.3156  0.0954
  107OSM    H2F11009   5.831   5.257   9.953  0.7286 -0.1153  2.5542
  107OSM    H2G11010   5.676   5.349   9.976  0.7921  0.3033  2.0193
  107OSM    C3F11011   5.647   5.141   9.898  0.4610  0.0091 -0.7636
  107OSM    H3F11012   5.655   5.182   9.794  0.8845 -1.2206 -1.2310
  107OSM    H3G11013   5.539   5.131   9.918  0.0934 -1.0301 -2.9461
  107OSM    C4F11014   5.699   4.992   9.907  0.3059 -0.2891 -0.3585
  107OSM    H4F11015   5.663   4.946  10.001 -2.9149  0.6185 -1.0049
  107OSM    H4G11016   5.810   4.994   9.913  0.2145 -0.3164  2.4166
  107OSM    C5F11017   5.636   4.919   9.788 -0.2496  0.5767 -0.0026
  107OSM    H5F11018   5.643   4.987   9.701 -0.1042  0.6232  0.0452
  107OSM    H5G11019   5.536   4.888   9.826  0.0562 -1.0569 -0.4309
  107OSM    C6F11020   5.710   4.792   9.767  0.3300 -0.5750 -0.6797
  107OSM    H6F11021   5.638   4.710   9.751 -0.9246  0.3926 -0.1997
  107OSM    H6G11022   5.776   4.777   9.856  0.1438  3.8445  0.4450
  107OSM    C7F11023   5.819   4.791   9.656 -0.4687  0.1031 -0.4675
  107OSM    H7F11024   5.910   4.741   9.695 -0.0672  0.8932 -0.3825
  107OSM    H7G11025   5.853   4.893   9.628 -0.0770  0.3213  0.7690
  107OSM    C8F11026   5.758   4.712   9.532 -0.6044  0.0588 -0.3352
  107OSM    H8F11027   5.666   4.762   9.497  0.6777  1.6114 -1.6292
  107OSM    H8G11028   5.737   4.609   9.568  2.4179 -0.0879  1.3449
  107OSM    C9F11029   5.869   4.708   9.434  1.4217  0.0888  0.1944
  107OSM    H9F11030   5.947   4.639   9.471  1.4674  0.3625  0.6268
  107OSM   C10F11031   5.886   4.768   9.320  0.5838  0.4061 -0.2446
  107OSM   H10F11032   5.975   4.760   9.256 -0.4344 -0.6180 -1.6016
  107OSM   C11F11033   5.778   4.863   9.266 -0.4115 -0.4264 -0.3482
  107OSM   H11F11034   5.812   4.958   9.218  3.3678 -0.2115  2.3133
  107OSM   H11G11035   5.705   4.894   9.344  1.7668 -0.2492  1.7417
  107OSM   C12F11036   5.690   4.809   9.150  0.1280  0.4872  0.0751
  107OSM   H12F11037   5.649   4.901   9.102  0.0758 -1.3710 -3.8365
  107OSM   H12G11038   5.602   4.751   9.185  1.2704 -0.7966  0.8951
  107OSM   C13F11039   5.773   4.745   9.040 -0.0701 -0.5468  0.7383
  107OSM   H13F11040   5.818   4.651   9.078  1.8596 -1.0671 -2.3980
  107OSM   H13G11041   5.856   4.808   9.002 -2.1573  3.0724  1.6134
  107OSM   C14F11042   5.680   4.721   8.916 -0.5976  0.1888 -0.3953
  107OSM   H14F11043   5.617   4.812   8.915 -0.6299  0.1764 -1.8551
  107OSM   H14G11044   5.615   4.633   8.934 -0.2039 -0.2013 -0.8375
  107OSM   C15F11045   5.765   4.710   8.788 -0.2225  0.0495 -0.1862
  107OSM   H15F11046   5.839   4.628   8.794 -1.1117 -0.7128  1.1757
  107OSM   H15G11047   5.818   4.807   8.777 -0.6134  0.0100 -3.3977
  107OSM   C16F11048   5.681   4.692   8.660  0.1415  0.0430  0.1106
  107OSM   H16F11049   5.596   4.763   8.668 -0.3828 -0.5880  0.2185
  107OSM   H16G11050   5.639   4.589   8.665  0.2627  0.0518  1.4739
  107OSM   C17F11051   5.762   4.722   8.530  0.5795  0.0546  0.8671
  107OSM   H17F11052   5.835   4.639   8.528  0.2055 -0.2789 -1.3057
  107OSM   H17G11053   5.827   4.813   8.534  2.1755 -1.0587  1.2306
  107OSM   C18F11054   5.673   4.697   8.406  0.4345 -0.3829  1.0819
  107OSM   H18F11055   5.733   4.682   8.314 -0.5482  1.3690  0.1223
  107OSM   H18G11056   5.617   4.790   8.385 -0.1432 -1.1851 -1.1794
  107OSM   H18H11057   5.616   4.604   8.427  0.7654 -0.5917  1.0611
  108OSM      N11058   1.303   2.544  11.127  0.7985 -0.4275  0.1359
  108OSM    C1511059   1.276   2.630  11.248 -0.0599  0.1512  0.0137
  108OSM   H15A11060   1.258   2.583  11.344 -0.1015  0.1770  0.0189
  108OSM   H15B11061   1.187   2.688  11.226  1.6624  3.3312  0.8154
  108OSM   H15C11062   1.346   2.712  11.258 -0.4788  0.3767  1.3629
  108OSM    C1411063   1.196   2.444  11.100  0.0691 -0.0719 -1.6264
  108OSM   H14A11064   1.201   2.388  11.008  1.3170 -3.2197  0.1959
  108OSM   H14B11065   1.102   2.497  11.088 -0.0199 -0.2849 -1.8894
  108OSM   H14C11066   1.181   2.369  11.175  1.2246  1.6581  0.4634
  108OSM    C1311067   1.324   2.624  11.003  0.7233  0.1171  0.1088
  108OSM   H13A11068   1.397   2.702  11.021  0.1760  0.6385  0.1283
  108OSM   H13B11069   1.232   2.667  10.964  0.2585  0.1931  1.2452
  108OSM   H13C11070   1.365   2.563  10.924  2.4169 -0.7160  1.5909
  108OSM    C1211071   1.436   2.470  11.152  0.8995  0.2934 -0.7984
  108OSM   H12A11072   1.410   2.397  11.226  0.7699 -0.7102 -1.7999
  108OSM   H12B11073   1.497   2.543  11.202  0.3531 -0.0853  0.4721
  108OSM    C1111074   1.495   2.392  11.030 -0.2156 -1.8825 -0.4327
  108OSM   H11A11075   1.412   2.330  10.990 -1.8088  0.5770 -1.2068
  108OSM   H11B11076   1.582   2.327  11.054  1.4461  0.2606 -0.3828
  108OSM      P11077   1.672   2.567  10.930 -0.1150 -0.2930  0.1590
  108OSM    O1311078   1.656   2.696  11.006  0.0796 -0.3769 -0.5231
  108OSM    O1411079   1.782   2.481  10.970 -0.0958 -0.2769 -0.0673
  108OSM    O1111080   1.690   2.604  10.769  0.0174 -0.4113  0.6459
  108OSM    O1211081   1.541   2.486  10.929 -0.0930  0.0192  0.0423
  108OSM    C1S11082   1.571   2.645  10.703 -0.5519  0.2006  0.3478
  108OSM    H1S11083   1.569   2.756  10.702  1.5089  0.2727 -0.9285
  108OSM    H1T11084   1.478   2.602  10.746 -0.5266  0.6286  0.8287
  108OSM     NF11085   1.462   2.644  10.485  0.2513  0.7143  0.1054
  108OSM    HNF11086   1.392   2.580  10.454  0.3245  0.5680  0.2460
  108OSM    C2S11087   1.576   2.594  10.555 -0.7822  0.0333  0.1342
  108OSM    H2S11088   1.661   2.638  10.499 -0.7887 -0.2499 -0.1000
  108OSM    C3S11089   1.587   2.438  10.549 -0.2399  0.1479 -0.3464
  108OSM    H3S11090   1.490   2.398  10.585 -0.2607  0.8179  0.3722
  108OSM     O311091   1.686   2.373  10.626 -0.5538  0.1521  0.1588
  108OSM    HO311092   1.727   2.444  10.677  1.5740  0.6507 -2.0577
  108OSM    C4S11093   1.598   2.397  10.403  0.4483 -0.4147  0.1432
  108OSM    H4S11094   1.691   2.423  10.351  1.3835 -2.2962  0.8169
  108OSM    C5S11095   1.502   2.328  10.343 -1.1465 -0.1652  0.4000
  108OSM    H5S11096   1.408   2.311  10.396  0.2289 -0.5875  2.8634
  108OSM    C6S11097   1.514   2.294  10.192 -0.0531  0.4187 -0.2162
  108OSM    H6S11098   1.512   2.385  10.128 -4.6750  0.1999 -0.6926
  108OSM    H6T11099   1.435   2.228  10.151 -1.7999  1.8240  0.7610
  108OSM    C7S11100   1.651   2.238  10.142  1.3031  0.2459  0.6098
  108OSM    H7S11101   1.674   2.143  10.194 -0.2046 -0.1174  0.6562
  108OSM    H7T11102   1.726   2.320  10.153  0.3047  1.2042  0.5016
  108OSM    C8S11103   1.649   2.196   9.996 -0.6053 -0.6619 -0.1622
  108OSM    H8S11104   1.573   2.118   9.979  0.6348 -1.9089 -0.1328
  108OSM    H8T11105   1.745   2.145   9.972  1.7848  2.2578  2.3104
  108OSM    C9S11106   1.629   2.320   9.902  0.2683  0.3880 -0.2173
  108OSM    H9S11107   1.708   2.396   9.922 -0.9499  2.0537 -1.4942
  108OSM    H9T11108   1.532   2.369   9.925  0.7266  1.9604 -1.4805
  108OSM   C10S11109   1.637   2.294   9.753 -0.0906 -0.4466 -0.1627
  108OSM   H10S11110   1.738   2.249   9.738  0.3980  0.7274 -0.4558
  108OSM   H10T11111   1.618   2.381   9.688 -1.5959 -0.2249  0.5386
  108OSM   C11S11112   1.546   2.182   9.704  0.3033 -0.2505 -0.6229
  108OSM   H11S11113   1.437   2.201   9.717 -0.8525 -4.7407 -1.9751
  108OSM   H11T11114   1.575   2.088   9.755 -2.4083 -0.2825  1.0433
  108OSM   C12S11115   1.569   2.159   9.553  0.1267  0.8008 -0.4589
  108OSM   H12S11116   1.504   2.071   9.533 -0.4268  0.0079  3.8464
  108OSM   H12T11117   1.674   2.135   9.525  0.5957  0.9613  1.0671
  108OSM   C13S11118   1.516   2.272   9.461 -0.5085 -0.4164  1.0213
  108OSM   H13S11119   1.568   2.370   9.469 -2.4606  1.0084 -1.7688
  108OSM   H13T11120   1.413   2.300   9.490  0.7258  3.5928  2.2479
  108OSM   C14S11121   1.504   2.244   9.311  0.1863  0.1992 -0.0188
  108OSM   H14S11122   1.600   2.204   9.271  0.1548 -0.8964  0.9478
  108OSM   H14T11123   1.466   2.336   9.262  1.2369  0.5008 -0.2944
  108OSM   C15S11124   1.407   2.123   9.287 -0.1715 -0.6658  0.1168
  108OSM   H15S11125   1.321   2.130   9.357 -0.3388  0.9473 -0.2016
  108OSM   H15T11126   1.453   2.029   9.324 -2.6853 -0.9995  2.7470
  108OSM   C16S11127   1.367   2.117   9.136  0.9601 -0.4964  0.5288
  108OSM   H16S11128   1.452   2.136   9.067  0.7354 -1.6789 -0.0945
  108OSM   H16T11129   1.295   2.200   9.125  2.3359  0.7383  0.4867
  108OSM   C17S11130   1.309   1.985   9.092  0.3341 -0.6080 -1.2861
  108OSM   H17S11131   1.226   1.953   9.160  1.7435 -0.4449  0.5970
  108OSM   H17T11132   1.397   1.919   9.105  1.7378  1.5273  0.9037
  108OSM   C18S11133   1.254   1.982   8.952 -0.1136 -1.0207 -0.2592
  108OSM   H18S11134   1.172   2.057   8.952  0.1712 -0.6680 -1.6527
  108OSM   H18T11135   1.220   1.879   8.928 -0.6597 -1.1523  1.0474
  108OSM   H18U11136   1.336   2.010   8.882  0.2424 -1.5002 -0.0333
  108OSM    C1F11137   1.430   2.768  10.463 -0.0549 -0.8401  0.2622
  108OSM     OF11138   1.492   2.865  10.510  0.1986  0.6815  0.5455
  108OSM    C2F11139   1.302   2.792  10.380  0.0029 -0.2239  0.3913
  108OSM    H2F11140   1.219   2.809  10.453 -0.5641  0.1187 -0.3129
  108OSM    H2G11141   1.277   2.692  10.340 -1.8657  0.3341  0.0139
  108OSM    C3F11142   1.308   2.908  10.274  0.1771 -0.3746  0.1161
  108OSM    H3F11143   1.350   3.004  10.311  1.7073  0.0990 -2.5638
  108OSM    H3G11144   1.206   2.926  10.234  1.7803  1.2120 -3.7508
  108OSM    C4F11145   1.396   2.880  10.150  0.4270 -0.1914 -0.2544
  108OSM    H4F11146   1.351   2.796  10.094 -0.8665  0.8733 -0.8506
  108OSM    H4G11147   1.494   2.843  10.188  0.1329  0.0091  0.7277
  108OSM    C5F11148   1.421   3.004  10.050  0.6033  0.9278  0.1961
  108OSM    H5F11149   1.500   3.067  10.097  1.7471  0.7505 -1.4323
  108OSM    H5G11150   1.332   3.069  10.037  1.1565  1.9294  1.1353
  108OSM    C6F11151   1.493   2.963   9.922 -0.0831  0.5379  0.3080
  108OSM    H6F11152   1.446   2.872   9.878  0.4110  1.4513 -2.3143
  108OSM    H6G11153   1.598   2.937   9.946  0.7055  3.1637 -0.0269
  108OSM    C7F11154   1.493   3.077   9.819 -0.4319 -0.2046  0.2440
  108OSM    H7F11155   1.594   3.122   9.803 -0.4718 -0.4003 -0.5547
  108OSM    H7G11156   1.416   3.146   9.860  0.8003  1.3268  0.1160
  108OSM    C8F11157   1.442   3.027   9.683 -0.2417  0.3947  0.4326
  108OSM    H8F11158   1.345   2.974   9.689 -1.1224  1.7801 -0.7533
  108OSM    H8G11159   1.504   2.941   9.650 -1.3574  0.6009 -2.4919
  108OSM    C9F11160   1.445   3.136   9.575 -0.4479 -0.1071  0.3024
  108OSM    H9F11161   1.408   3.235   9.605 -1.8620 -0.7635  0.8332
  108OSM   C10F11162   1.472   3.124   9.439 -0.1667  0.1493  0.3853
  108OSM   H10F11163   1.490   3.216   9.382  0.7125  0.5416  1.2802
  108OSM   C11F11164   1.503   2.995   9.365 -0.4302 -0.7408  0.3175
  108OSM   H11F11165   1.518   2.913   9.437 -0.4041  0.9030  2.2727
  108OSM   H11G11166   1.604   3.016   9.324 -0.6044 -1.5678 -0.5651
  108OSM   C12F11167   1.413   2.957   9.245 -0.3110  0.2600 -0.1235
  108OSM   H12F11168   1.307   2.944   9.276  0.2414 -2.5222  0.9022
  108OSM   H12G11169   1.451   2.857   9.215 -1.1456  0.3659 -1.6423
  108OSM   C13F11170   1.410   3.069   9.138 -0.7315  0.2074  0.8212
  108OSM   H13F11171   1.376   3.166   9.177  1.5170  1.2346  0.4238
  108OSM   H13G11172   1.330   3.049   9.064  2.3726 -1.5430 -2.4565
  108OSM   C14F11173   1.545   3.079   9.063  0.4019 -0.2814  0.0948
  108OSM   H14F11174   1.631   3.060   9.132 -0.8889 -3.4515  1.0301
  108OSM   H14G11175   1.547   3.174   9.006 -1.6677  0.5349  1.2876
  108OSM   C15F11176   1.550   2.967   8.959 -0.2379 -0.1833 -0.0780
  108OSM   H15F11177   1.460   2.978   8.895  1.0088  1.7568 -1.6289
  108OSM   H15G11178   1.548   2.869   9.010  2.7129  0.2060  0.9886
  108OSM   C16F11179   1.671   2.978   8.867  0.0958  0.1541  0.6960
  108OSM   H16F11180   1.760   3.007   8.927  0.2331 -0.5546  0.8496
  108OSM   H16G11181   1.658   3.062   8.796  1.6735 -0.6924 -0.6526
  108OSM   C17F11182   1.707   2.861   8.779  0.1744  0.0381 -0.0929
  108OSM   H17F11183   1.619   2.856   8.711 -1.3678 -0.1223  1.8172
  108OSM   H17G11184   1.715   2.766   8.836 -0.0111  0.9441  1.4944
  108OSM   C18F11185   1.831   2.878   8.689 -0.0657 -0.2836 -0.1483
  108OSM   H18F11186   1.837   2.788   8.624  1.9805 -1.1070  1.0642
  108OSM   H18G11187   1.920   2.877   8.756  0.5505  0.5975 -0.9154
  108OSM   H18H11188   1.832   2.975   8.635  0.3689  0.1730  0.6664
  109OSM      N11189   4.947   2.139  10.738  0.2711 -0.2905  0.5193
  109OSM    C1511190   4.968   2.100  10.590  0.1377 -0.6444 -0.8305
  109OSM   H15A11191   5.074   2.088  10.574  0.6779  0.7263  1.2369
  109OSM   H15B11192   4.920   2.181  10.536 -0.3729  1.1973  2.1092
  109OSM   H15C11193   4.920   2.006  10.572  0.3721 -1.2547  1.4876
  109OSM    C1411194   4.981   2.035  10.834  0.1088  0.5015  0.6325
  109OSM   H14A11195   5.081   1.998  10.818  1.0047  3.0152 -0.0386
  109OSM   H14B11196   4.915   1.949  10.836  0.9554 -0.2890 -1.6839
  109OSM   H14C11197   4.988   2.072  10.935  1.2495  1.8374  0.0985
  109OSM    C1311198   5.036   2.261  10.769  0.3666 -0.3913  0.8558
  109OSM   H13A11199   5.138   2.239  10.741  0.1264 -1.1602  0.5759
  109OSM   H13B11200   5.028   2.300  10.870  0.2528  1.2599  0.2361
  109OSM   H13C11201   5.000   2.345  10.710  1.8135 -0.3312  0.0231
  109OSM    C1211202   4.802   2.177  10.751  0.7127  1.0994 -0.3610
  109OSM   H12A11203   4.784   2.258  10.682  0.9743  0.3927 -1.2717
  109OSM   H12B11204   4.792   2.214  10.852  0.1307 -0.8320  0.3344
  109OSM    C1111205   4.694   2.067  10.732 -0.4788  0.2609 -0.2939
  109OSM   H11A11206   4.711   1.976  10.794 -1.5482 -0.5271 -1.1171
  109OSM   H11B11207   4.703   2.050  10.623  1.7008  3.9413 -0.8449
  109OSM      P11208   4.435   2.074  10.714  0.0365 -0.0199  0.2993
  109OSM    O1311209   4.386   1.947  10.776 -0.2528  0.4061  0.2507
  109OSM    O1411210   4.341   2.185  10.714  0.1409 -0.3549 -0.0969
  109OSM    O1111211   4.472   2.040  10.560  0.6924 -1.1597 -0.2952
  109OSM    O1211212   4.570   2.128  10.780  0.4251  0.8940  0.1605
  109OSM    C1S11213   4.374   1.972  10.479  0.1419 -0.0069  0.6048
  109OSM    H1S11214   4.270   1.987  10.515  1.1672  2.3829  2.9087
  109OSM    H1T11215   4.380   1.861  10.487 -0.9244 -0.0900  0.3167
  109OSM     NF11216   4.277   1.954  10.255 -0.3824 -0.1204  0.6119
  109OSM    HNF11217   4.303   1.883  10.190 -2.7516  0.6797 -1.3601
  109OSM    C2S11218   4.383   2.017  10.330 -0.8011  0.6506 -0.8125
  109OSM    H2S11219   4.365   2.126  10.338  0.6476  0.8173  0.5164
  109OSM    C3S11220   4.532   2.003  10.277  0.0949  0.3602 -0.3175
  109OSM    H3S11221   4.561   1.897  10.296 -1.1641  0.0075 -0.2382
  109OSM     O311222   4.622   2.088  10.350  0.5983  0.4003  0.1721
  109OSM    HO311223   4.572   2.122  10.424  1.5844  1.7325  0.2608
  109OSM    C4S11224   4.551   2.015  10.127  0.1404 -0.2997  0.5043
  109OSM    H4S11225   4.536   1.924  10.066 -0.2056  1.1874 -1.7397
  109OSM    C5S11226   4.583   2.126  10.059  0.0097  0.5013 -0.2310
  109OSM    H5S11227   4.600   2.223  10.109 -0.4001  0.3228  0.2578
  109OSM    C6S11228   4.588   2.126   9.907 -0.7075 -0.3966 -0.0244
  109OSM    H6S11229   4.688   2.158   9.870 -1.1728  0.9628 -0.1820
  109OSM    H6T11230   4.510   2.197   9.870 -1.6443 -1.0799  0.5856
  109OSM    C7S11231   4.563   1.997   9.826 -0.6942  0.2250 -0.3407
  109OSM    H7S11232   4.477   1.938   9.863 -0.2996 -0.9411 -1.2308
  109OSM    H7T11233   4.654   1.945   9.861 -0.7810  0.4039  0.1611
  109OSM    C8S11234   4.565   2.029   9.676 -0.2025  0.5935  0.3502
  109OSM    H8S11235   4.666   2.069   9.652  0.2727  0.3140  1.7439
  109OSM    H8T11236   4.488   2.105   9.655 -1.4980 -0.5818  0.6826
  109OSM    C9S11237   4.544   1.919   9.575  0.2427 -0.4855  0.1522
  109OSM    H9S11238   4.436   1.895   9.578  0.0983  0.1998  1.1193
  109OSM    H9T11239   4.601   1.827   9.599  0.0474 -0.6648 -0.0755
  109OSM   C10S11240   4.582   1.971   9.438  0.1592  0.1559  0.5591
  109OSM   H10S11241   4.692   1.978   9.427  0.1405 -0.7328 -0.3022
  109OSM   H10T11242   4.519   2.061   9.427  0.9989  0.7418  0.4307
  109OSM   C11S11243   4.529   1.872   9.330 -0.2276 -0.2404 -0.3901
  109OSM   H11S11244   4.420   1.849   9.333 -0.4961  0.7917 -1.3858
  109OSM   H11T11245   4.590   1.781   9.350  0.0493 -0.3672 -1.7074
  109OSM   C12S11246   4.556   1.924   9.190 -0.0983 -0.3415 -0.5897
  109OSM   H12S11247   4.652   1.980   9.191  0.5339 -1.3388  1.9798
  109OSM   H12T11248   4.486   2.006   9.163  2.3793  3.0315  2.3294
  109OSM   C13S11249   4.554   1.812   9.084 -0.5301  0.2315 -0.2617
  109OSM   H13S11250   4.459   1.754   9.095  0.1742 -0.9110 -0.0672
  109OSM   H13T11251   4.642   1.745   9.095  0.7102  1.5821 -1.5701
  109OSM   C14S11252   4.575   1.865   8.939 -0.1250  0.2026 -0.7459
  109OSM   H14S11253   4.497   1.940   8.913 -0.0436  0.8311  0.6881
  109OSM   H14T11254   4.562   1.778   8.871 -1.5758  0.0183 -0.2774
  109OSM   C15S11255   4.711   1.923   8.911  0.4107 -0.1534 -0.6718
  109OSM   H15S11256   4.795   1.857   8.944  0.3624  0.6853  1.2947
  109OSM   H15T11257   4.718   2.011   8.978 -0.9204 -0.6407  0.1536
  109OSM   C16S11258   4.729   1.973   8.764 -0.6522 -0.2704 -0.2861
  109OSM   H16S11259   4.746   1.888   8.695  1.7388 -0.3836  0.3666
  109OSM   H16T11260   4.822   2.033   8.770 -1.4548  0.8718  1.9592
  109OSM   C17S11261   4.624   2.068   8.696 -0.6286  0.0488  0.3422
  109OSM   H17S11262   4.585   2.138   8.773  0.3668  0.9849  0.0306
  109OSM   H17T11263   4.547   1.999   8.656  1.2565 -0.8922 -1.9325
  109OSM   C18S11264   4.690   2.140   8.577  0.7746 -0.3113 -0.0271
  109OSM   H18S11265   4.612   2.190   8.516 -3.1033 -1.2002  3.7052
  109OSM   H18T11266   4.747   2.072   8.509  0.4979 -0.1677 -0.4053
  109OSM   H18U11267   4.755   2.215   8.625  0.1401  1.7780 -2.2495
  109OSM    C1F11268   4.143   1.959  10.284 -0.4653 -0.2288 -0.4986
  109OSM     OF11269   4.094   2.032  10.372 -0.0499  0.3350 -0.0819
  109OSM    C2F11270   4.057   1.861  10.208  0.3909  0.5936 -0.6035
  109OSM    H2F11271   4.059   1.759  10.253 -1.6944 -0.8127 -3.3186
  109OSM    H2G11272   4.073   1.844  10.099 -2.3597 -0.3940 -0.9374
  109OSM    C3F11273   3.909   1.908  10.211 -0.4293  0.3209  0.7521
  109OSM    H3F11274   3.900   2.011  10.171  1.7057 -0.3906 -1.7946
  109OSM    H3G11275   3.883   1.901  10.319 -0.4437  3.2850  1.0259
  109OSM    C4F11276   3.811   1.809  10.142  0.5571  0.1905  0.1179
  109OSM    H4F11277   3.706   1.846  10.152  0.5247  0.3957 -0.8982
  109OSM    H4G11278   3.814   1.706  10.183  1.7652  0.6466  1.2607
  109OSM    C5F11279   3.837   1.794   9.987 -0.2291 -0.3965  0.4798
  109OSM    H5F11280   3.923   1.725   9.975  0.7448  0.7119  0.9641
  109OSM    H5G11281   3.864   1.893   9.943  1.7743 -0.2505  1.9131
  109OSM    C6F11282   3.719   1.725   9.918 -1.0617  0.2009  0.8522
  109OSM    H6F11283   3.634   1.797   9.919  0.5525  2.2693 -1.5260
  109OSM    H6G11284   3.704   1.641   9.989  0.4658 -0.1579  0.7731
  109OSM    C7F11285   3.749   1.667   9.780  0.5493  0.5973  0.3162
  109OSM    H7F11286   3.659   1.625   9.729  0.9254  0.9731 -0.6896
  109OSM    H7G11287   3.822   1.584   9.790 -1.3621 -1.0286  1.4456
  109OSM    C8F11288   3.813   1.774   9.685 -0.4428 -0.2509 -0.1254
  109OSM    H8F11289   3.837   1.728   9.587  1.9306  2.1293 -0.7751
  109OSM    H8G11290   3.908   1.817   9.722 -0.0826 -0.3232 -0.9568
  109OSM    C9F11291   3.714   1.884   9.646  0.3234 -0.0494 -0.8150
  109OSM    H9F11292   3.725   1.967   9.717  0.2922 -0.1577 -0.6839
  109OSM   C10F11293   3.650   1.894   9.526  0.0905 -0.4096 -0.1221
  109OSM   H10F11294   3.584   1.981   9.515 -1.0139 -0.9130  1.9710
  109OSM   C11F11295   3.644   1.789   9.418  0.2626 -0.8333  0.9485
  109OSM   H11F11296   3.543   1.766   9.380 -0.1350  0.6293  1.0775
  109OSM   H11G11297   3.681   1.693   9.462  1.8092 -0.0140  1.5143
  109OSM   C12F11298   3.735   1.820   9.301  0.1433  0.3919 -0.7921
  109OSM   H12F11299   3.844   1.810   9.319 -0.1505  0.1895  1.0408
  109OSM   H12G11300   3.708   1.920   9.259  1.5963  0.4967 -1.5691
  109OSM   C13F11301   3.704   1.716   9.184  0.3941 -0.4510  0.1172
  109OSM   H13F11302   3.594   1.704   9.178  0.4374 -0.7922 -0.0826
  109OSM   H13G11303   3.733   1.613   9.215 -0.0734 -0.4972  0.3914
  109OSM   C14F11304   3.759   1.770   9.048  0.0620 -0.1308  0.0951
  109OSM   H14F11305   3.869   1.778   9.055  0.0102 -0.6656  2.5465
  109OSM   H14G11306   3.709   1.868   9.036  0.5924  0.1799  0.3733
  109OSM   C15F11307   3.711   1.689   8.926  0.8896  0.3625  0.4968
  109OSM   H15F11308   3.605   1.658   8.928  0.2178  2.4360 -0.4305
  109OSM   H15G11309   3.769   1.595   8.918  0.1978  0.0167 -0.6432
  109OSM   C16F11310   3.725   1.760   8.792 -0.6743 -0.6089 -0.4465
  109OSM   H16F11311   3.651   1.842   8.790 -1.2927 -1.0240  2.1186
  109OSM   H16G11312   3.695   1.695   8.707  0.4799  0.0281 -1.3795
  109OSM   C17F11313   3.866   1.807   8.763 -0.0369 -0.4127  0.2455
  109OSM   H17F11314   3.932   1.717   8.760 -0.6453 -0.9016  1.1120
  109OSM   H17G11315   3.893   1.874   8.848 -0.5005  1.1043 -0.7725
  109OSM   C18F11316   3.892   1.881   8.632  0.3182  0.0762 -0.0423
  109OSM   H18F11317   3.816   1.962   8.630  1.0054  0.7495  0.7403
  109OSM   H18G11318   3.873   1.809   8.550  1.4763 -3.8675  2.8489
  109OSM   H18H11319   3.993   1.926   8.627 -0.2150  1.5486  1.4362
  110OSM      N11320   5.751   2.869  10.557  0.1238 -0.1587 -0.2271
  110OSM    C1511321   5.854   2.831  10.657 -0.5950  0.1029  0.2366
  110OSM   H15A11322   5.872   2.725  10.662  2.5209  0.5517  2.6035
  110OSM   H15B11323   5.833   2.862  10.759  0.1987  0.7935  0.2082
  110OSM   H15C11324   5.949   2.872  10.624 -1.3520  0.5471 -1.4585
  110OSM    C1411325   5.619   2.839  10.616  0.0724  0.2186  0.3312
  110OSM   H14A11326   5.539   2.861  10.546  1.0893  0.5245 -0.7501
  110OSM   H14B11327   5.611   2.911  10.697  0.7398  1.3043 -0.5445
  110OSM   H14C11328   5.604   2.737  10.650  3.4726  0.3045  2.4912
  110OSM    C1311329   5.757   3.015  10.536 -0.2935 -0.0182  0.2186
  110OSM   H13A11330   5.785   3.069  10.625 -4.1583  0.1787  1.4871
  110OSM   H13B11331   5.667   3.063  10.500 -0.0596  0.6528  0.5077
  110OSM   H13C11332   5.836   3.032  10.464  0.2668  1.1547  1.0771
  110OSM    C1211333   5.769   2.798  10.424  0.7460  0.0651  0.5621
  110OSM   H12A11334   5.870   2.826  10.394  0.0852  1.6494 -0.3220
  110OSM   H12B11335   5.712   2.851  10.349  0.9030  0.5708  0.7960
  110OSM    C1111336   5.741   2.647  10.404  0.0305  0.5868 -0.5762
  110OSM   H11A11337   5.772   2.624  10.299 -1.8655 -0.0466 -1.0324
  110OSM   H11B11338   5.630   2.641  10.409  0.0738  1.1700  2.2489
  110OSM      P11339   5.724   2.436  10.533  0.2176 -0.0229  0.1928
  110OSM    O1311340   5.812   2.339  10.599  0.2651 -0.5208 -0.3836
  110OSM    O1411341   5.600   2.474  10.608 -0.4679  0.2407  0.5109
  110OSM    O1111342   5.690   2.368  10.390  0.0529  0.5182  0.1283
  110OSM    O1211343   5.807   2.562  10.493 -0.4354 -0.7186 -0.0034
  110OSM    C1S11344   5.797   2.320  10.307 -0.1312 -0.1942 -0.5516
  110OSM    H1S11345   5.849   2.239  10.362 -1.7613 -0.7611  0.2187
  110OSM    H1T11346   5.871   2.400  10.283  0.8841 -0.7277  0.6582
  110OSM     NF11347   5.842   2.193  10.099  0.2019  0.5697 -0.3898
  110OSM    HNF11348   5.900   2.230  10.026  0.9147  2.6916  1.1475
  110OSM    C2S11349   5.747   2.280  10.164  0.1322  0.4832 -0.2345
  110OSM    H2S11350   5.655   2.219  10.179 -0.6114  2.0733  2.1386
  110OSM    C3S11351   5.715   2.406  10.083 -0.8160  0.0663 -0.6407
  110OSM    H3S11352   5.808   2.467  10.072  0.0020 -1.1153 -0.5390
  110OSM     O311353   5.616   2.491  10.145 -0.1431  0.0645 -0.0411
  110OSM    HO311354   5.593   2.449  10.228  2.4737 -1.3666  0.0504
  110OSM    C4S11355   5.661   2.359   9.954 -0.1855 -0.4084  0.2516
  110OSM    H4S11356   5.556   2.326   9.953 -0.9452  1.7089 -2.5008
  110OSM    C5S11357   5.739   2.353   9.836 -0.5045 -0.6777  0.4850
  110OSM    H5S11358   5.842   2.389   9.846 -1.1305  1.8084 -1.1745
  110OSM    C6S11359   5.713   2.322   9.687  0.5460  0.4062  0.3445
  110OSM    H6S11360   5.649   2.232   9.679  1.8803 -0.7303  1.9342
  110OSM    H6T11361   5.804   2.291   9.631 -1.8695 -1.8951 -2.6208
  110OSM    C7S11362   5.627   2.417   9.603 -0.2355 -0.1055 -0.2096
  110OSM    H7S11363   5.525   2.415   9.645  0.7049 -0.0960  2.2332
  110OSM    H7T11364   5.624   2.389   9.495 -3.4391 -0.1783 -0.1778
  110OSM    C8S11365   5.674   2.566   9.615  0.0078 -0.3301  0.4582
  110OSM    H8S11366   5.698   2.594   9.720 -1.1758  1.5000  0.2799
  110OSM    H8T11367   5.586   2.628   9.588 -0.3996 -1.6368 -1.4342
  110OSM    C9S11368   5.784   2.595   9.513 -0.2022  0.2889  0.0273
  110OSM    H9S11369   5.740   2.614   9.413  0.5388 -0.6179 -0.4906
  110OSM    H9T11370   5.851   2.506   9.513 -0.3897  0.1438 -0.3930
  110OSM   C10S11371   5.872   2.718   9.564 -0.6523 -0.1034 -0.3522
  110OSM   H10S11372   5.909   2.691   9.665 -0.8535 -0.1766 -0.2981
  110OSM   H10T11373   5.804   2.806   9.575 -0.2362  0.1418  0.3592
  110OSM   C11S11374   5.982   2.753   9.462 -0.1711 -0.2435 -0.4627
  110OSM   H11S11375   6.052   2.668   9.451  1.4409  1.1226 -1.2973
  110OSM   H11T11376   6.044   2.838   9.497  0.1723  0.5685 -2.8253
  110OSM   C12S11377   5.925   2.790   9.317  0.2872 -0.7270 -0.6106
  110OSM   H12S11378   5.874   2.888   9.328 -1.5259 -1.7331  0.6968
  110OSM   H12T11379   5.852   2.713   9.283  0.1371 -1.8783  2.0469
  110OSM   C13S11380   6.029   2.800   9.213 -0.4916 -0.0547 -0.0542
  110OSM   H13S11381   6.059   2.695   9.190  1.8005  0.7407 -0.9873
  110OSM   H13T11382   6.119   2.847   9.258 -0.3432 -0.8258  0.4788
  110OSM   C14S11383   5.995   2.865   9.080  0.5754 -0.3103 -0.3313
  110OSM   H14S11384   6.090   2.871   9.023  2.2091  3.0711  2.3943
  110OSM   H14T11385   5.958   2.968   9.100 -0.4154 -0.5806 -0.7097
  110OSM   C15S11386   5.878   2.798   9.006 -0.2933 -1.0781 -0.1760
  110OSM   H15S11387   5.785   2.825   9.060  0.3252  0.7015  0.0592
  110OSM   H15T11388   5.894   2.688   9.010  1.5732 -0.8099  1.0136
  110OSM   C16S11389   5.880   2.828   8.855  0.0060  0.4824 -0.0563
  110OSM   H16S11390   5.962   2.776   8.800  0.7201 -0.1714  1.5610
  110OSM   H16T11391   5.890   2.935   8.830  1.2081 -0.1620 -2.6689
  110OSM   C17S11392   5.743   2.792   8.795  0.2170  0.5340  0.8392
  110OSM   H17S11393   5.714   2.686   8.815  2.8644  0.0110  2.3888
  110OSM   H17T11394   5.753   2.800   8.685 -0.6204 -0.5013  0.6727
  110OSM   C18S11395   5.641   2.890   8.846  0.9681 -0.3076 -0.5535
  110OSM   H18S11396   5.537   2.852   8.831  0.8479  0.3430 -1.4605
  110OSM   H18T11397   5.656   2.986   8.792  0.8661  0.1993  0.3029
  110OSM   H18U11398   5.649   2.914   8.954  0.0270 -0.7997 -0.3600
  110OSM    C1F11399   5.865   2.074  10.143 -0.4765 -0.0662 -0.4248
  110OSM     OF11400   5.779   2.015  10.210  0.1197  0.2324  0.0326
  110OSM    C2F11401   6.007   2.020  10.119  0.7990  0.3680  0.0587
  110OSM    H2F11402   6.042   1.963  10.208  1.7503  0.4244 -0.2594
  110OSM    H2G11403   6.084   2.099  10.103  1.8112 -0.9064 -1.8003
  110OSM    C3F11404   5.997   1.928   9.996  0.2121  0.0811 -0.0636
  110OSM    H3F11405   5.910   1.859  10.001 -1.5143  2.0103 -1.8062
  110OSM    H3G11406   6.093   1.874   9.976  0.6824  1.8566 -3.3528
  110OSM    C4F11407   5.981   2.005   9.869  0.2526 -0.2201  0.0485
  110OSM    H4F11408   6.068   2.071   9.850  0.6897 -0.7579  0.1617
  110OSM    H4G11409   5.889   2.066   9.882  1.8810  2.3526  0.2225
  110OSM    C5F11410   5.967   1.922   9.739  0.0423 -0.5299 -0.4343
  110OSM    H5F11411   5.865   1.878   9.741  0.3185 -1.1671  0.9754
  110OSM    H5G11412   6.051   1.850   9.751  1.0947  0.6027 -0.7919
  110OSM    C6F11413   5.975   1.992   9.609 -0.6881 -0.0425 -0.5010
  110OSM    H6F11414   6.058   2.067   9.613 -2.1157  1.5864 -0.2512
  110OSM    H6G11415   5.886   2.054   9.587 -0.7222 -0.7897 -2.6712
  110OSM    C7F11416   6.000   1.892   9.501 -0.4391 -0.3178  0.4308
  110OSM    H7F11417   6.072   1.809   9.513 -0.7020 -1.0865 -2.4829
  110OSM    H7G11418   6.046   1.945   9.414  0.8742  0.0200  1.3117
  110OSM    C8F11419   5.866   1.834   9.460 -0.1031  0.1150 -0.6202
  110OSM    H8F11420   5.800   1.916   9.423 -1.1662 -0.7544 -0.7266
  110OSM    H8G11421   5.805   1.800   9.546 -0.4078  0.4765 -0.6878
  110OSM    C9F11422   5.868   1.730   9.356  0.1005 -0.2454 -0.2384
  110OSM    H9F11423   5.849   1.627   9.390 -0.4333 -0.7455 -1.9333
  110OSM   C10F11424   5.885   1.740   9.223  0.0664  0.0415 -0.1510
  110OSM   H10F11425   5.886   1.646   9.165 -0.1285  0.1589 -0.3444
  110OSM   C11F11426   5.928   1.867   9.156  0.5330 -0.2019  0.3327
  110OSM   H11F11427   6.035   1.865   9.125  0.1783  0.4229 -0.9691
  110OSM   H11G11428   5.918   1.960   9.217  0.5701  0.6201 -0.8833
  110OSM   C12F11429   5.845   1.878   9.027  0.2419 -0.1347  0.0545
  110OSM   H12F11430   5.874   1.977   8.984 -2.9257  0.7794 -0.2369
  110OSM   H12G11431   5.735   1.874   9.041  0.3739 -0.8989  1.0018
  110OSM   C13F11432   5.877   1.767   8.923 -0.5186 -0.3459  0.7781
  110OSM   H13F11433   5.851   1.663   8.954 -1.7703 -0.9333 -1.9192
  110OSM   H13G11434   5.985   1.766   8.898 -0.2342  0.5596  1.8713
  110OSM   C14F11435   5.790   1.775   8.795  0.8734 -0.8711  0.0766
  110OSM   H14F11436   5.687   1.791   8.834  0.4830  0.8737 -1.5451
  110OSM   H14G11437   5.787   1.689   8.725 -3.0374  1.5960 -3.2188
  110OSM   C15F11438   5.831   1.894   8.706  0.2781  0.0756  0.4835
  110OSM   H15F11439   5.942   1.905   8.705  0.2254  0.6095  0.3573
  110OSM   H15G11440   5.796   1.990   8.748  0.9292  0.7447 -0.4698
  110OSM   C16F11441   5.773   1.887   8.558 -0.2450  0.1064 -1.1950
  110OSM   H16F11442   5.804   1.791   8.510  0.8770 -1.0999  1.7046
  110OSM   H16G11443   5.812   1.975   8.503 -0.5340 -0.7872 -2.8836
  110OSM   C17F11444   5.617   1.911   8.554 -0.7075  0.3569  0.4170
  110OSM   H17F11445   5.616   1.999   8.623 -0.0846 -0.5463  1.6063
  110OSM   H17G11446   5.567   1.827   8.606  1.6758 -1.7547 -0.5098
  110OSM   C18F11447   5.548   1.939   8.423 -0.0322  0.0072 -0.0707
  110OSM   H18F11448   5.459   2.005   8.429 -0.0729 -0.0971  0.5029
  110OSM   H18G11449   5.521   1.858   8.351  0.9228 -0.4526  0.0789
  110OSM   H18H11450   5.627   1.988   8.362  0.7424  0.4747  1.2695
  111OSM      N11451   5.413   0.208  10.756 -0.6749 -0.4906 -0.0723
  111OSM    C1511452   5.493   0.110  10.834 -0.3836 -0.1855  0.7768
  111OSM   H15A11453   5.597   0.102  10.807 -0.9016 -3.6577 -0.6719
  111OSM   H15B11454   5.445   0.014  10.822 -1.0813  0.1677  0.6555
  111OSM   H15C11455   5.480   0.138  10.938 -2.2896 -0.4280  0.6372
  111OSM    C1411456   5.273   0.176  10.742  0.5829  0.5852  0.2056
  111OSM   H14A11457   5.258   0.086  10.683  1.1984 -1.1501  2.5711
  111OSM   H14B11458   5.221   0.259  10.696  1.9305  1.3537  0.0141
  111OSM   H14C11459   5.232   0.165  10.841 -0.0961  0.4291 -0.0847
  111OSM    C1311460   5.427   0.334  10.824 -0.8104  0.0437 -0.6614
  111OSM   H13A11461   5.355   0.403  10.781 -1.7330 -0.6273 -0.2180
  111OSM   H13B11462   5.532   0.362  10.824 -0.1816 -1.9520  1.7888
  111OSM   H13C11463   5.399   0.330  10.928  0.7389 -2.0666 -0.2558
  111OSM    C1211464   5.477   0.222  10.618  0.2271  0.5079  0.6534
  111OSM   H12A11465   5.578   0.260  10.626  0.6701 -0.1247 -1.3574
  111OSM   H12B11466   5.424   0.297  10.561 -1.5407 -0.9369  0.3122
  111OSM    C1111467   5.502   0.097  10.524  0.1196 -0.2306 -0.0474
  111OSM   H11A11468   5.506   0.143  10.423 -1.3824  0.3623  0.1373
  111OSM   H11B11469   5.412   0.032  10.531 -0.5120  0.7451  1.6023
  111OSM      P11470   5.657  -0.122  10.504 -0.0139  0.0526  0.5896
  111OSM    O1311471   5.793  -0.161  10.549  0.1128 -0.4444  0.3961
  111OSM    O1411472   5.548  -0.208  10.547  0.3757 -0.2747 -0.7887
  111OSM    O1111473   5.642  -0.115  10.346 -0.3556  0.2798  0.5544
  111OSM    O1211474   5.617   0.019  10.564  0.1227 -0.4111  0.0927
  111OSM    C1S11475   5.750  -0.069  10.265 -0.4395 -0.1031 -0.8900
  111OSM    H1S11476   5.845  -0.122  10.289 -1.3014 -0.7311  1.3377
  111OSM    H1T11477   5.766   0.039  10.286 -1.4269 -0.5614  2.8569
  111OSM     NF11478   5.850  -0.048  10.035 -0.5094 -0.2286 -0.2234
  111OSM    HNF11479   5.836   0.043   9.997  1.3986 -0.0116 -0.4980
  111OSM    C2S11480   5.735  -0.099  10.114 -0.0714  0.6332 -0.7221
  111OSM    H2S11481   5.729  -0.210  10.106  1.8503  0.5668 -2.3044
  111OSM    C3S11482   5.604  -0.034  10.062  0.3671  0.3764  0.5635
  111OSM    H3S11483   5.594   0.069  10.102  2.9502  0.6971  0.5511
  111OSM     O311484   5.483  -0.089  10.120 -0.0388 -1.1489  0.1190
  111OSM    HO311485   5.516  -0.123  10.204  3.7648  0.2740 -0.6042
  111OSM    C4S11486   5.606  -0.042   9.912 -0.0448 -0.6425  0.1775
  111OSM    H4S11487   5.640   0.051   9.864  0.5319  0.3312  2.3600
  111OSM    C5S11488   5.549  -0.133   9.831  0.2668  0.2550 -0.3573
  111OSM    H5S11489   5.492  -0.208   9.886  2.5219 -2.1092 -1.0522
  111OSM    C6S11490   5.530  -0.135   9.680  0.1265  0.3675 -0.3464
  111OSM    H6S11491   5.427  -0.100   9.659 -0.7382 -1.8669 -0.0304
  111OSM    H6T11492   5.534  -0.240   9.643 -1.0227  0.4965 -0.8819
  111OSM    C7S11493   5.639  -0.061   9.601 -0.2930 -0.0928 -0.2123
  111OSM    H7S11494   5.735  -0.080   9.652 -0.1773 -0.7425 -0.6567
  111OSM    H7T11495   5.612   0.047   9.599  0.8566  0.2382  0.8212
  111OSM    C8S11496   5.645  -0.113   9.461 -0.7053  0.1303  0.6433
  111OSM    H8S11497   5.654  -0.224   9.454  0.2989  0.2747 -3.8418
  111OSM    H8T11498   5.736  -0.076   9.409 -1.0034 -0.4938 -0.3634
  111OSM    C9S11499   5.531  -0.064   9.367 -0.0277  0.4762 -0.6371
  111OSM    H9S11500   5.537   0.046   9.380  0.5073  0.5735 -1.6024
  111OSM    H9T11501   5.428  -0.100   9.385  0.9444 -2.4897 -0.4423
  111OSM   C10S11502   5.562  -0.091   9.220 -0.6163 -0.0116  0.3049
  111OSM   H10S11503   5.541  -0.199   9.204  0.2299 -0.2434  0.7220
  111OSM   H10T11504   5.661  -0.050   9.190 -0.9412  1.8840  1.6277
  111OSM   C11S11505   5.456  -0.008   9.140  0.2430 -0.3944 -0.9208
  111OSM   H11S11506   5.462   0.103   9.148 -1.5257 -0.2271 -1.4660
  111OSM   H11T11507   5.356  -0.038   9.177  0.2330  0.7072  0.0244
  111OSM   C12S11508   5.481  -0.027   8.991 -0.1154  0.2563 -0.2161
  111OSM   H12S11509   5.583  -0.065   8.965 -0.5208 -0.0945 -1.3855
  111OSM   H12T11510   5.450   0.067   8.941 -2.4695  0.8418  2.1538
  111OSM   C13S11511   5.390  -0.143   8.937  0.2145  0.2607  0.5932
  111OSM   H13S11512   5.285  -0.107   8.943 -0.5630 -2.0296  4.2874
  111OSM   H13T11513   5.403  -0.238   8.994 -2.2394 -1.1991 -1.0823
  111OSM   C14S11514   5.435  -0.167   8.786  0.4616  0.2883  0.2758
  111OSM   H14S11515   5.536  -0.213   8.787  0.0008 -0.8534 -1.2499
  111OSM   H14T11516   5.461  -0.071   8.738  1.0706  0.9970  1.9405
  111OSM   C15S11517   5.331  -0.262   8.724 -0.3069 -0.2204  0.9593
  111OSM   H15S11518   5.232  -0.211   8.734  1.1591  3.5699 -1.6268
  111OSM   H15T11519   5.331  -0.364   8.768  0.0039 -0.9419 -0.6556
  111OSM   C16S11520   5.358  -0.295   8.568 -0.1100 -0.0112  0.2150
  111OSM   H16S11521   5.453  -0.352   8.567 -0.6109 -0.9285  1.4233
  111OSM   H16T11522   5.390  -0.204   8.514 -1.9385  0.5909  0.0807
  111OSM   C17S11523   5.247  -0.376   8.510 -0.3425  0.3119 -0.0978
  111OSM   H17S11524   5.150  -0.323   8.499 -0.8624 -0.5104  0.3880
  111OSM   H17T11525   5.204  -0.457   8.572  0.8027 -0.3138 -0.0945
  111OSM   C18S11526   5.276  -0.433   8.377  0.1225  0.0243 -0.1585
  111OSM   H18S11527   5.179  -0.465   8.333  1.6058 -2.5561 -1.8561
  111OSM   H18T11528   5.346  -0.520   8.380  0.3271  0.2222  1.3141
  111OSM   H18U11529   5.295  -0.347   8.310 -2.6091  0.7481 -0.0956
  111OSM    C1F11530   5.968  -0.107  10.026 -0.9570  0.1193  0.3515
  111OSM     OF11531   5.984  -0.223  10.055 -0.2355 -0.5099 -0.3808
  111OSM    C2F11532   6.084  -0.021   9.988 -0.5114  0.4536  0.3062
  111OSM    H2F11533   6.147  -0.019  10.080 -0.1211 -2.2777  0.1626
  111OSM    H2G11534   6.059   0.086   9.968 -0.0985  0.4671 -0.1366
  111OSM    C3F11535   6.184  -0.073   9.877  0.9390 -0.3452 -0.2193
  111OSM    H3F11536   6.235  -0.159   9.926  0.8316  0.4362  1.3167
  111OSM    H3G11537   6.248   0.013   9.851 -1.3460  1.4680 -0.1168
  111OSM    C4F11538   6.109  -0.108   9.746 -0.4400  0.3624 -0.9755
  111OSM    H4F11539   6.009  -0.154   9.764 -2.7178  5.3638  0.9750
  111OSM    H4G11540   6.170  -0.179   9.686  1.9080 -0.2547  1.8899
  111OSM    C5F11541   6.087   0.019   9.658 -0.2883 -0.1396 -0.1850
  111OSM    H5F11542   6.109   0.113   9.713 -0.8342 -0.0406 -0.1359
  111OSM    H5G11543   5.986   0.032   9.614 -0.9728 -2.7070  0.5003
  111OSM    C6F11544   6.191   0.012   9.541  0.6939  0.8538 -0.1608
  111OSM    H6F11545   6.294  -0.017   9.570  1.0697  1.4774 -0.8134
  111OSM    H6G11546   6.198   0.108   9.484 -1.4380 -0.1355 -2.2437
  111OSM    C7F11547   6.139  -0.072   9.423  0.7016  1.0653 -0.4296
  111OSM    H7F11548   6.045  -0.025   9.387 -0.6993 -1.9412 -1.0044
  111OSM    H7G11549   6.098  -0.173   9.447 -1.4641  1.4669 -2.0781
  111OSM    C8F11550   6.229  -0.082   9.298  0.1597  1.1150 -0.2476
  111OSM    H8F11551   6.319  -0.144   9.321  0.0195  0.2672 -1.8455
  111OSM    H8G11552   6.263   0.021   9.276  3.2850  0.3231  0.3580
  111OSM    C9F11553   6.166  -0.143   9.180  0.4604 -0.4877 -0.1930
  111OSM    H9F11554   6.075  -0.199   9.205  0.1155  0.4251  0.6324
  111OSM   C10F11555   6.209  -0.129   9.050  0.4649  0.4757 -0.1896
  111OSM   H10F11556   6.155  -0.186   8.973  0.5781  0.4708 -0.2655
  111OSM   C11F11557   6.327  -0.061   9.003  0.1247 -0.4230 -0.2258
  111OSM   H11F11558   6.388  -0.146   8.967  0.9151 -0.0090  0.0952
  111OSM   H11G11559   6.379  -0.008   9.086 -2.3611 -0.7336  1.6398
  111OSM   C12F11560   6.311   0.052   8.899 -0.1940 -0.1549 -0.5813
  111OSM   H12F11561   6.411   0.096   8.879 -0.2436  0.3795  0.2891
  111OSM   H12G11562   6.249   0.132   8.946 -2.0608 -2.0888  0.4175
  111OSM   C13F11563   6.256   0.012   8.763  0.5596  0.4791 -0.0945
  111OSM   H13F11564   6.146  -0.005   8.768 -0.0317  3.3263 -1.4543
  111OSM   H13G11565   6.299  -0.088   8.741  0.9175 -0.5022  4.1924
  111OSM   C14F11566   6.285   0.116   8.652 -0.3555  0.6785 -0.2313
  111OSM   H14F11567   6.395   0.124   8.649 -0.0897 -2.1782 -0.7309
  111OSM   H14G11568   6.234   0.208   8.686 -0.8985 -0.2382  1.6074
  111OSM   C15F11569   6.247   0.059   8.512  0.5429 -0.2777 -0.4816
  111OSM   H15F11570   6.143   0.022   8.522  0.6936 -0.4418  0.6901
  111OSM   H15G11571   6.309  -0.026   8.476  0.9554 -0.7828  1.3267
  111OSM   C16F11572   6.262   0.174   8.411  0.3575  0.5486 -0.0369
  111OSM   H16F11573   6.369   0.200   8.397  1.1135 -1.5901  1.1555
  111OSM   H16G11574   6.208   0.266   8.442 -1.2605  0.6400 -2.7994
  111OSM   C17F11575   6.188   0.126   8.284 -0.0461 -0.4039 -0.6144
  111OSM   H17F11576   6.082   0.106   8.311  0.5335 -3.7631 -0.4048
  111OSM   H17G11577   6.230   0.032   8.241 -0.8229 -1.1563  0.2420
  111OSM   C18F11578   6.193   0.242   8.189  0.7983 -0.1629 -0.2145
  111OSM   H18F11579   6.115   0.215   8.114 -0.9031 -1.3234  1.8725
  111OSM   H18G11580   6.296   0.240   8.147  0.7682  0.7089 -0.3494
  111OSM   H18H11581   6.162   0.340   8.230 -1.5059 -1.1835  0.5940
  112OSM      N11582   3.774   3.099  10.749 -0.4270  0.2257 -0.3080
  112OSM    C1511583   3.652   3.094  10.832  0.3881 -0.7764 -0.1168
  112OSM   H15A11584   3.676   3.041  10.923 -0.0680  0.3408  0.6746
  112OSM   H15B11585   3.570   3.043  10.785  0.1376 -1.4777  1.0243
  112OSM   H15C11586   3.626   3.196  10.854  0.9460  0.5353 -4.6822
  112OSM    C1411587   3.779   2.969  10.678 -0.6720 -0.0843 -0.9125
  112OSM   H14A11588   3.867   2.965  10.615  0.0670  1.8938 -0.0798
  112OSM   H14B11589   3.704   2.957  10.600  1.0279 -0.6165 -2.5300
  112OSM   H14C11590   3.791   2.885  10.744  0.0623  2.8769  3.0617
  112OSM    C1311591   3.766   3.213  10.652 -0.9694  0.6251 -0.0234
  112OSM   H13A11592   3.674   3.216  10.594 -0.7360  1.2430 -0.3672
  112OSM   H13B11593   3.849   3.207  10.584  1.7198 -0.1807  3.1133
  112OSM   H13C11594   3.762   3.310  10.700 -0.3956 -0.5619  2.5808
  112OSM    C1211595   3.897   3.123  10.833 -0.6944 -0.0402 -0.1070
  112OSM   H12A11596   3.982   3.097  10.771 -0.4790 -1.2118  0.6481
  112OSM   H12B11597   3.910   3.053  10.914  1.8198 -1.2214 -1.4181
  112OSM    C1111598   3.912   3.263  10.891  0.1328 -0.0734  0.6063
  112OSM   H11A11599   3.822   3.290  10.951 -0.6646 -0.9955 -0.1321
  112OSM   H11B11600   3.912   3.349  10.821  0.6636  0.0791  0.7897
  112OSM      P11601   4.139   3.357  10.953 -0.2993  0.4708 -0.1231
  112OSM    O1311602   4.093   3.500  10.935  0.3536  0.5269  0.3549
  112OSM    O1411603   4.244   3.334  11.052  0.5273  0.1097 -0.1799
  112OSM    O1111604   4.188   3.306  10.808  0.4609  0.3923  0.4889
  112OSM    O1211605   4.018   3.256  10.981  0.2248  0.2150 -0.3592
  112OSM    C1S11606   4.245   3.181  10.779  0.7298  0.3107 -0.6845
  112OSM    H1S11607   4.196   3.092  10.824  0.3095  0.1455 -1.4547
  112OSM    H1T11608   4.348   3.180  10.822  1.2358  1.1748 -1.8119
  112OSM     NF11609   4.269   3.016  10.589 -0.3386 -0.0146 -0.1161
  112OSM    HNF11610   4.357   2.989  10.551  1.2823  2.8447  1.2368
  112OSM    C2S11611   4.252   3.159  10.622 -0.3585  0.0364 -0.8396
  112OSM    H2S11612   4.157   3.190  10.574 -1.4740 -1.0343  0.5468
  112OSM    C3S11613   4.370   3.249  10.579 -0.4194 -0.0789  0.2517
  112OSM    H3S11614   4.460   3.195  10.616 -0.7137  0.9192  2.6038
  112OSM     O311615   4.377   3.378  10.647  0.0292  0.7564 -0.0383
  112OSM    HO311616   4.302   3.374  10.707  1.2845  1.4832  1.6711
  112OSM    C4S11617   4.370   3.280  10.433 -0.3599  0.6121  0.7157
  112OSM    H4S11618   4.276   3.320  10.391 -0.1997  0.1681 -0.0754
  112OSM    C5S11619   4.485   3.261  10.364  0.0167 -0.3502 -0.1108
  112OSM    H5S11620   4.567   3.211  10.417 -1.5856 -0.9479  1.9116
  112OSM    C6S11621   4.512   3.284  10.219  0.1712 -0.0222 -0.6875
  112OSM    H6S11622   4.622   3.300  10.220  0.7281 -2.8338  2.1051
  112OSM    H6T11623   4.472   3.383  10.188 -0.0931 -0.3199 -1.3224
  112OSM    C7S11624   4.477   3.164  10.137 -0.2496  0.5402  0.0464
  112OSM    H7S11625   4.366   3.158  10.143 -0.1270 -2.7565  4.9383
  112OSM    H7T11626   4.511   3.068  10.183 -0.5077  1.3098  1.9280
  112OSM    C8S11627   4.524   3.180   9.991  0.2097  0.8449 -0.3074
  112OSM    H8S11628   4.634   3.191   9.988  0.3460 -0.3014 -0.0416
  112OSM    H8T11629   4.499   3.279   9.946 -0.6494  0.6407 -0.3113
  112OSM    C9S11630   4.488   3.060   9.909 -0.2093 -0.2393  0.3859
  112OSM    H9S11631   4.378   3.043   9.903 -0.3185  0.1223  1.2125
  112OSM    H9T11632   4.531   2.975   9.966  0.9000 -0.5194 -0.8160
  112OSM   C10S11633   4.549   3.068   9.770  0.3965  0.3319 -1.6229
  112OSM   H10S11634   4.655   3.099   9.782  0.2631 -0.1884  1.7767
  112OSM   H10T11635   4.508   3.147   9.704  1.4320  0.8740 -1.6256
  112OSM   C11S11636   4.537   2.931   9.707 -0.2084  0.0040 -0.4608
  112OSM   H11S11637   4.431   2.898   9.710  0.1571 -1.2149  2.3594
  112OSM   H11T11638   4.591   2.852   9.764  2.5417  1.7167 -0.5034
  112OSM   C12S11639   4.590   2.925   9.560  0.1180  0.1282 -0.1339
  112OSM   H12S11640   4.699   2.946   9.555  0.1549  0.0013  0.1215
  112OSM   H12T11641   4.542   3.013   9.511 -0.0417  0.5174  0.6897
  112OSM   C13S11642   4.548   2.801   9.488  0.3057 -0.5057  0.3317
  112OSM   H13S11643   4.440   2.775   9.497  0.0247 -0.1172 -1.5063
  112OSM   H13T11644   4.600   2.711   9.526  2.0581  0.6765  0.8401
  112OSM   C14S11645   4.564   2.799   9.334 -0.9404  0.3303  0.2552
  112OSM   H14S11646   4.524   2.888   9.280  0.2854  0.4721 -0.4606
  112OSM   H14T11647   4.506   2.706   9.312  0.7865 -0.2364 -2.4842
  112OSM   C15S11648   4.714   2.797   9.286  0.4217 -0.0407 -0.5760
  112OSM   H15S11649   4.758   2.718   9.350  1.1015  0.0859 -0.8715
  112OSM   H15T11650   4.751   2.898   9.316  0.1269 -0.2910  0.6877
  112OSM   C16S11651   4.733   2.774   9.138  0.2436 -0.4141  0.0947
  112OSM   H16S11652   4.693   2.672   9.118 -0.8527  0.3078 -1.5447
  112OSM   H16T11653   4.842   2.769   9.117  0.8056 -1.4203  2.7883
  112OSM   C17S11654   4.680   2.880   9.049 -0.1630 -0.3985 -0.6083
  112OSM   H17S11655   4.718   2.978   9.086  1.1410 -1.3113  0.5295
  112OSM   H17T11656   4.569   2.883   9.053 -0.1336  1.7916 -0.0608
  112OSM   C18S11657   4.724   2.855   8.907 -0.2700  0.0468  0.3239
  112OSM   H18S11658   4.831   2.884   8.891 -0.7730  1.3334 -0.9669
  112OSM   H18T11659   4.665   2.914   8.833 -0.5237 -0.5482  0.0505
  112OSM   H18U11660   4.726   2.747   8.881  2.1935  0.5292 -1.9984
  112OSM    C1F11661   4.170   2.926  10.601 -0.7441 -0.0702 -0.0530
  112OSM     OF11662   4.067   2.963  10.656  0.5671 -0.1815 -0.9888
  112OSM    C2F11663   4.188   2.791  10.540  0.0461  0.4241 -0.1195
  112OSM    H2F11664   4.230   2.729  10.622 -0.0630  1.4857  0.7623
  112OSM    H2G11665   4.273   2.779  10.469  0.7962 -1.3348  0.9974
  112OSM    C3F11666   4.059   2.722  10.504 -0.0139  0.0688 -0.0085
  112OSM    H3F11667   3.996   2.709  10.595  1.6055 -0.4430  1.0799
  112OSM    H3G11668   4.078   2.623  10.458 -0.5174 -0.1826  0.3161
  112OSM    C4F11669   3.991   2.805  10.387  0.1577 -0.7239 -0.7527
  112OSM    H4F11670   3.978   2.910  10.422  2.4436 -0.9226  0.9095
  112OSM    H4G11671   3.890   2.764  10.369 -0.1101  0.2821 -1.6587
  112OSM    C5F11672   4.067   2.792  10.259 -0.2099  0.0987 -0.5419
  112OSM    H5F11673   4.091   2.685  10.238 -2.8602 -0.8476  0.8018
  112OSM    H5G11674   4.162   2.849  10.272 -0.2337  0.6171 -2.4252
  112OSM    C6F11675   3.972   2.847  10.148 -0.2015 -0.6357  0.0215
  112OSM    H6F11676   3.944   2.946  10.189  2.5426 -0.4633  1.7435
  112OSM    H6G11677   3.878   2.788  10.141 -0.0781 -0.7165 -1.1594
  112OSM    C7F11678   4.046   2.863  10.011  0.1690  0.1613  0.1649
  112OSM    H7F11679   4.115   2.948  10.030 -0.1759  0.3462  0.6092
  112OSM    H7G11680   3.977   2.893   9.929 -0.7236  2.7124  1.7413
  112OSM    C8F11681   4.124   2.728   9.974 -0.1774 -0.3240  0.2885
  112OSM    H8F11682   4.055   2.642   9.962  2.4256 -2.5214  0.1692
  112OSM    H8G11683   4.199   2.704  10.052  0.6695  0.0827 -0.3765
  112OSM    C9F11684   4.199   2.755   9.848  0.3014 -0.8064  0.0079
  112OSM    H9F11685   4.285   2.823   9.857 -0.5613  0.7460 -2.3654
  112OSM   C10F11686   4.156   2.724   9.725 -0.3253  0.2320  0.1560
  112OSM   H10F11687   4.231   2.738   9.646  0.0269  0.1185  0.4655
  112OSM   C11F11688   4.038   2.632   9.684  0.6925  0.1201  0.7304
  112OSM   H11F11689   3.969   2.693   9.622  0.9783 -0.9768 -0.7045
  112OSM   H11G11690   3.979   2.587   9.767 -1.2187  0.5027 -0.3543
  112OSM   C12F11691   4.081   2.521   9.592  0.4515 -0.1982  0.2626
  112OSM   H12F11692   4.018   2.432   9.609  0.6700 -0.6031 -0.9437
  112OSM   H12G11693   4.185   2.487   9.612  0.8783  0.9924  0.1481
  112OSM   C13F11694   4.068   2.546   9.439  0.1732 -0.8861  0.1971
  112OSM   H13F11695   3.992   2.621   9.411  1.0031  0.3252  1.0821
  112OSM   H13G11696   4.040   2.456   9.380 -0.6673 -0.5448  0.0525
  112OSM   C14F11697   4.201   2.606   9.386  0.1100 -0.0573  0.6346
  112OSM   H14F11698   4.281   2.532   9.408 -0.4131 -1.2638 -1.2819
  112OSM   H14G11699   4.202   2.700   9.444 -0.6891  0.0845  0.4313
  112OSM   C15F11700   4.197   2.642   9.237  0.1101 -0.2162 -0.3368
  112OSM   H15F11701   4.286   2.704   9.214  1.1532 -0.9973  1.4361
  112OSM   H15G11702   4.101   2.693   9.214 -1.2862 -1.6752  1.9033
  112OSM   C16F11703   4.206   2.520   9.145 -0.5183  0.0412 -0.1989
  112OSM   H16F11704   4.127   2.450   9.179 -0.2791 -0.7371 -1.2319
  112OSM   H16G11705   4.299   2.461   9.159 -0.5970 -0.1699 -0.5473
  112OSM   C17F11706   4.177   2.540   8.992  0.5567  0.4182  0.1751
  112OSM   H17F11707   4.197   2.444   8.940 -1.4710  2.0715 -4.1312
  112OSM   H17G11708   4.240   2.620   8.947  0.8139 -0.2658 -0.6938
  112OSM   C18F11709   4.033   2.567   8.958  0.4197 -0.8427 -0.7094
  112OSM   H18F11710   4.006   2.587   8.852 -2.1401 -1.2217 -0.2146
  112OSM   H18G11711   3.998   2.667   8.992  1.9704 -0.5172 -0.0026
  112OSM   H18H11712   3.958   2.494   8.997  0.6922 -0.8247 -0.1443
  113OSM      N11713   4.036   1.073  11.000 -0.1855  0.5682  0.7343
  113OSM    C1511714   4.073   0.938  10.945  0.5426  0.0531 -0.0103
  113OSM   H15A11715   4.180   0.947  10.933  0.6365  0.9367  1.2942
  113OSM   H15B11716   4.033   0.908  10.849  4.0050  1.6034 -2.1292
  113OSM   H15C11717   4.054   0.861  11.018 -0.4400  1.2607  1.0560
  113OSM    C1411718   3.886   1.068  11.051  0.5752  0.1712  0.2339
  113OSM   H14A11719   3.868   1.007  11.138 -2.4808  0.7754  0.1528
  113OSM   H14B11720   3.826   1.029  10.971 -1.1963 -0.2725  1.7129
  113OSM   H14C11721   3.852   1.168  11.075 -1.7441 -0.1186 -1.4873
  113OSM    C1311722   4.126   1.103  11.116 -0.4890 -0.0610 -0.6923
  113OSM   H13A11723   4.232   1.104  11.094  0.1915  2.3555  2.0420
  113OSM   H13B11724   4.107   1.038  11.200 -0.2305 -1.7589 -1.8985
  113OSM   H13C11725   4.104   1.201  11.155  0.9281 -0.2287  0.6496
  113OSM    C1211726   4.056   1.182  10.892  0.0292  0.5408 -0.5788
  113OSM   H12A11727   4.022   1.146  10.796  2.1972 -2.2091 -0.4220
  113OSM   H12B11728   4.162   1.199  10.883  0.7060 -2.9726 -0.4562
  113OSM    C1111729   3.987   1.317  10.924  0.5370 -0.8210  0.0935
  113OSM   H11A11730   4.041   1.393  10.865 -0.5839 -0.0281  0.0498
  113OSM   H11B11731   4.010   1.341  11.029  0.2444 -0.9083  0.1789
  113OSM      P11732   3.773   1.284  10.767  0.2465 -0.1079 -0.0100
  113OSM    O1311733   3.749   1.137  10.784  0.2500  0.1586 -0.6282
  113OSM    O1411734   3.651   1.367  10.747 -0.6019 -0.0852 -0.0714
  113OSM    O1111735   3.885   1.323  10.667 -0.0679  0.0853 -0.1754
  113OSM    O1211736   3.844   1.337  10.897 -0.0698  0.2303 -0.4597
  113OSM    C1S11737   3.905   1.239  10.548  0.2783 -0.4380 -0.6699
  113OSM    H1S11738   3.939   1.141  10.587 -0.5685  0.5222  2.8674
  113OSM    H1T11739   3.997   1.283  10.506 -0.2851  1.3792 -0.0783
  113OSM     NF11740   3.825   1.145  10.337  0.3984  0.2195  0.1500
  113OSM    HNF11741   3.851   1.171  10.244 -0.0801  1.7687  0.4210
  113OSM    C2S11742   3.792   1.242  10.435 -0.0960  0.3737 -0.5559
  113OSM    H2S11743   3.694   1.212  10.480 -1.3847 -0.6545 -3.7410
  113OSM    C3S11744   3.773   1.382  10.385  0.1322  0.4329  0.3291
  113OSM    H3S11745   3.865   1.430  10.345 -0.4701  1.5356  0.2180
  113OSM     O311746   3.745   1.482  10.481 -0.2726  0.4669  0.4256
  113OSM    HO311747   3.776   1.443  10.564 -0.7424  1.4102  1.0644
  113OSM    C4S11748   3.663   1.375  10.284 -0.7011 -0.8335 -0.5499
  113OSM    H4S11749   3.706   1.382  10.183  0.2000 -1.4657 -0.2300
  113OSM    C5S11750   3.531   1.374  10.298  0.2984 -0.0757  0.3515
  113OSM    H5S11751   3.484   1.376  10.397 -2.1297  1.7476 -0.7594
  113OSM    C6S11752   3.434   1.400  10.189 -0.2651  1.0941 -0.2078
  113OSM    H6S11753   3.394   1.502  10.203 -2.2694  0.5115 -1.2969
  113OSM    H6T11754   3.353   1.325  10.202 -0.3508  0.6226 -2.8712
  113OSM    C7S11755   3.488   1.411  10.048 -0.9808  0.1807  0.1235
  113OSM    H7S11756   3.525   1.308  10.027  0.2811  0.4823  0.7639
  113OSM    H7T11757   3.571   1.483  10.039 -0.2259 -0.6395  0.3849
  113OSM    C8S11758   3.381   1.455   9.945 -0.1837  0.6488  0.3447
  113OSM    H8S11759   3.360   1.563   9.960  2.2643  1.4289 -1.2139
  113OSM    H8T11760   3.285   1.406   9.972  0.1439  1.6061  3.7555
  113OSM    C9S11761   3.408   1.430   9.794 -0.0566  0.1754 -0.5737
  113OSM    H9S11762   3.388   1.323   9.773  2.8907 -0.5108 -0.3141
  113OSM    H9T11763   3.513   1.453   9.767  0.6525 -0.3696  1.5293
  113OSM   C10S11764   3.319   1.534   9.724 -0.0876  0.3065  0.4982
  113OSM   H10S11765   3.311   1.638   9.761 -1.3081  0.6200 -0.5489
  113OSM   H10T11766   3.220   1.487   9.744 -0.0959 -0.5511 -1.3402
  113OSM   C11S11767   3.338   1.542   9.574 -0.3514 -0.3970  0.4303
  113OSM   H11S11768   3.321   1.439   9.534  1.0870 -0.5160  0.0838
  113OSM   H11T11769   3.439   1.580   9.547 -1.2311  1.1524 -0.8388
  113OSM   C12S11770   3.239   1.643   9.504  0.2939 -0.3437  0.2619
  113OSM   H12S11771   3.229   1.734   9.567 -3.0095 -0.2850 -0.1863
  113OSM   H12T11772   3.141   1.592   9.506 -0.6686  1.3944 -0.3595
  113OSM   C13S11773   3.260   1.678   9.354 -0.7421  0.7268 -0.2014
  113OSM   H13S11774   3.276   1.589   9.289  1.0784  1.1568 -0.3963
  113OSM   H13T11775   3.355   1.735   9.353 -0.8485  0.9080  0.1069
  113OSM   C14S11776   3.155   1.767   9.297  0.2556 -0.3168 -0.1476
  113OSM   H14S11777   3.155   1.859   9.359 -1.8293  1.3169 -2.4084
  113OSM   H14T11778   3.061   1.711   9.316 -0.4144  1.3011  1.5880
  113OSM   C15S11779   3.169   1.793   9.152 -0.3099 -0.7777 -0.4278
  113OSM   H15S11780   3.152   1.698   9.097 -2.1618 -0.9458  0.3714
  113OSM   H15T11781   3.276   1.812   9.129 -0.2201  0.6693  0.9804
  113OSM   C16S11782   3.085   1.910   9.099 -0.2168 -0.2250  0.4719
  113OSM   H16S11783   3.097   2.001   9.161  0.9465  0.4997 -0.7597
  113OSM   H16T11784   2.976   1.886   9.108 -0.1203 -0.2258  1.7514
  113OSM   C17S11785   3.123   1.964   8.960 -0.0804 -0.2485  0.0147
  113OSM   H17S11786   3.113   1.886   8.882  1.7634 -1.3706  0.8304
  113OSM   H17T11787   3.232   1.964   8.982 -0.0474  0.3769 -0.1283
  113OSM   C18S11788   3.063   2.099   8.919  0.0228  0.4678  0.5807
  113OSM   H18S11789   2.955   2.072   8.911  0.9653 -3.7460 -0.2615
  113OSM   H18T11790   3.086   2.122   8.813  1.1801  0.5613  0.8450
  113OSM   H18U11791   3.092   2.182   8.987 -2.4813  1.9202  0.0122
  113OSM    C1F11792   3.818   1.016  10.356  0.1905 -0.1065 -0.5381
  113OSM     OF11793   3.778   0.979  10.460  0.4558  0.8682 -0.4977
  113OSM    C2F11794   3.845   0.933  10.238 -0.2365 -0.2129 -0.4029
  113OSM    H2F11795   3.934   0.978  10.189 -0.3495  0.2239 -0.2119
  113OSM    H2G11796   3.748   0.934  10.184 -1.5896  3.0243  1.7484
  113OSM    C3F11797   3.870   0.788  10.271 -0.8310  0.0290 -0.2579
  113OSM    H3F11798   3.791   0.731  10.325 -0.8027  0.2831  0.0611
  113OSM    H3G11799   3.952   0.778  10.346 -0.8443 -1.9670 -0.4556
  113OSM    C4F11800   3.908   0.700  10.153  0.2688  0.1323  0.0676
  113OSM    H4F11801   3.952   0.602  10.182  1.0349  0.0085 -1.4454
  113OSM    H4G11802   3.983   0.742  10.083 -0.4772 -0.6728 -1.2419
  113OSM    C5F11803   3.778   0.661  10.069  0.8052  0.0298  0.7052
  113OSM    H5F11804   3.735   0.754  10.026  2.0528  0.4399  0.3040
  113OSM    H5G11805   3.704   0.622  10.142 -2.1059 -0.6172 -2.3190
  113OSM    C6F11806   3.807   0.567   9.961  0.2208 -0.5312  0.4098
  113OSM    H6F11807   3.710   0.522   9.931  0.9780 -1.5727 -0.5409
  113OSM    H6G11808   3.867   0.483  10.004  0.1157 -0.5862  0.4492
  113OSM    C7F11809   3.867   0.640   9.838 -0.0850 -0.2623  0.0458
  113OSM    H7F11810   3.978   0.639   9.843  0.1855 -0.1260 -3.4317
  113OSM    H7G11811   3.831   0.745   9.832  1.8975  0.6089  1.9607
  113OSM    C8F11812   3.835   0.568   9.699 -0.9333 -0.1404  0.6120
  113OSM    H8F11813   3.725   0.560   9.692 -0.9603  0.5226  0.1804
  113OSM    H8G11814   3.890   0.472   9.697 -0.2424  0.2141 -2.6198
  113OSM    C9F11815   3.858   0.645   9.569  0.1399 -0.4171  0.8389
  113OSM    H9F11816   3.879   0.753   9.577 -0.8194  0.2536 -3.3142
  113OSM   C10F11817   3.875   0.594   9.445  0.2846  0.6829 -0.4197
  113OSM   H10F11818   3.879   0.659   9.356 -0.1105  0.7068 -0.4216
  113OSM   C11F11819   3.858   0.442   9.415  0.5865 -0.3113 -0.8720
  113OSM   H11F11820   3.830   0.376   9.499 -1.5905  1.1666 -0.3456
  113OSM   H11G11821   3.950   0.406   9.365  2.1809  1.5302  0.6175
  113OSM   C12F11822   3.741   0.418   9.310 -0.3082 -0.2319 -0.2529
  113OSM   H12F11823   3.647   0.474   9.328  0.3287  1.0939 -0.9524
  113OSM   H12G11824   3.723   0.309   9.319  3.0790 -1.0813 -1.9116
  113OSM   C13F11825   3.797   0.433   9.166 -0.3952 -0.3381  0.3775
  113OSM   H13F11826   3.892   0.376   9.156  0.6649  1.3015  0.7110
  113OSM   H13G11827   3.844   0.533   9.148 -0.4136 -0.4583 -0.3810
  113OSM   C14F11828   3.691   0.398   9.052  0.0327  0.2951 -0.3058
  113OSM   H14F11829   3.606   0.469   9.049 -1.5670 -1.3903  2.0000
  113OSM   H14G11830   3.650   0.301   9.087  1.2269 -0.2927 -0.4740
  113OSM   C15F11831   3.758   0.369   8.922  0.3349 -0.4671  0.2073
  113OSM   H15F11832   3.823   0.282   8.941  0.3105 -0.8809 -1.4342
  113OSM   H15G11833   3.812   0.456   8.879  0.8055 -1.3988 -1.1525
  113OSM   C16F11834   3.669   0.335   8.798  0.0123  0.1318 -0.2655
  113OSM   H16F11835   3.614   0.420   8.752  0.3184  0.0028 -0.8950
  113OSM   H16G11836   3.600   0.256   8.832  0.1642 -0.4023 -1.1702
  113OSM   C17F11837   3.747   0.279   8.670 -0.4225  0.4152  0.0466
  113OSM   H17F11838   3.837   0.343   8.659  0.3853 -0.7578 -0.3652
  113OSM   H17G11839   3.703   0.269   8.569  2.0009 -2.8103 -0.8604
  113OSM   C18F11840   3.811   0.143   8.711 -0.0231 -0.3050 -0.0548
  113OSM   H18F11841   3.859   0.092   8.625  2.9757 -0.8253  1.7652
  113OSM   H18G11842   3.731   0.072   8.740 -2.0581  0.5694 -3.0991
  113OSM   H18H11843   3.883   0.157   8.795  0.1674  1.0920 -0.4325
  114OSM      N11844   4.719   4.394  10.694  0.1014 -0.8400  0.5227
  114OSM    C1511845   4.641   4.450  10.811  0.4421  1.0249  0.0150
  114OSM   H15A11846   4.619   4.556  10.805 -0.2504  0.8219 -1.2858
  114OSM   H15B11847   4.709   4.443  10.894  0.4030  2.2911  0.1794
  114OSM   H15C11848   4.545   4.401  10.817  1.0548 -0.2516 -0.3231
  114OSM    C1411849   4.841   4.483  10.680  0.1794 -0.9104  0.0762
  114OSM   H14A11850   4.809   4.569  10.623 -5.8651 -1.6032  1.6736
  114OSM   H14B11851   4.923   4.440  10.625  1.1580  1.3445 -0.3600
  114OSM   H14C11852   4.870   4.524  10.776  3.1253  0.4412 -1.2948
  114OSM    C1311853   4.757   4.251  10.719  0.3494  0.3524  0.1966
  114OSM   H13A11854   4.810   4.244  10.813 -0.2361 -0.8716  0.4555
  114OSM   H13B11855   4.819   4.208  10.642  0.3699  0.6084  0.0695
  114OSM   H13C11856   4.668   4.190  10.725  1.4209 -1.0794  2.5701
  114OSM    C1211857   4.640   4.414  10.571  0.1805 -0.2613 -0.4526
  114OSM   H12A11858   4.692   4.380  10.483  1.5292  1.0594 -0.2025
  114OSM   H12B11859   4.616   4.518  10.557  0.1977 -0.3308 -1.0491
  114OSM    C1111860   4.504   4.335  10.561 -0.4423  0.4872 -0.0232
  114OSM   H11A11861   4.513   4.238  10.613  2.7245  0.1636 -0.9782
  114OSM   H11B11862   4.507   4.320  10.451 -1.5948  2.1813 -0.3345
  114OSM      P11863   4.249   4.342  10.595  0.0514 -0.0601  0.2152
  114OSM    O1311864   4.231   4.246  10.703 -0.4214  0.0968  0.1043
  114OSM    O1411865   4.142   4.440  10.577  0.1365  0.4195  0.3861
  114OSM    O1111866   4.265   4.265  10.459  0.0197  0.3215 -0.0373
  114OSM    O1211867   4.389   4.416  10.606  0.0080  0.2794 -0.5361
  114OSM    C1S11868   4.231   4.324  10.336  0.4062 -0.4236  0.6697
  114OSM    H1S11869   4.264   4.430  10.332  1.4574 -0.7433  0.4754
  114OSM    H1T11870   4.122   4.312  10.320 -0.1427  0.4508  3.4350
  114OSM     NF11871   4.229   4.319  10.093 -0.2876 -0.0098  0.2946
  114OSM    HNF11872   4.145   4.281  10.056 -0.1825  1.5743 -1.7598
  114OSM    C2S11873   4.294   4.254  10.212  0.7263 -0.0463 -0.0110
  114OSM    H2S11874   4.404   4.261  10.206  0.7680  0.3960  1.1180
  114OSM    C3S11875   4.263   4.101  10.217 -0.4382  0.2427 -0.4708
  114OSM    H3S11876   4.153   4.100  10.199 -0.2820 -3.3987 -1.9516
  114OSM     O311877   4.271   4.034  10.345  0.1153  0.3467 -0.6624
  114OSM    HO311878   4.262   4.108  10.406  1.6521  2.7633 -3.1277
  114OSM    C4S11879   4.326   4.029  10.098 -0.5448  0.1124 -0.0693
  114OSM    H4S11880   4.271   4.035  10.003 -0.2381 -1.0202 -0.3348
  114OSM    C5S11881   4.436   3.951  10.088 -0.0466 -0.2195 -0.0793
  114OSM    H5S11882   4.478   3.908  10.180  0.4087 -0.5529 -0.4403
  114OSM    C6S11883   4.507   3.888   9.968  0.2954  0.7823  0.5830
  114OSM    H6S11884   4.526   3.783   9.999  1.0229  1.2313  1.6994
  114OSM    H6T11885   4.605   3.939   9.951  0.5600 -0.3185 -1.5517
  114OSM    C7S11886   4.438   3.897   9.830 -0.2582 -0.1285  0.2242
  114OSM    H7S11887   4.416   4.000   9.795  1.7023  0.5126  0.7075
  114OSM    H7T11888   4.341   3.845   9.840 -0.4348 -0.5639 -2.8509
  114OSM    C8S11889   4.516   3.822   9.719 -0.4027 -0.3060  0.1216
  114OSM    H8S11890   4.543   3.722   9.761  3.5863  0.3247 -0.4781
  114OSM    H8T11891   4.619   3.864   9.710  0.0382 -1.3854 -0.1505
  114OSM    C9S11892   4.444   3.819   9.590 -0.2947  0.5047 -0.0330
  114OSM    H9S11893   4.442   3.925   9.556 -2.4876  0.5621  0.1347
  114OSM    H9T11894   4.339   3.788   9.604  0.4028 -1.3878  1.3813
  114OSM   C10S11895   4.505   3.712   9.500  0.5531 -0.0817 -0.1856
  114OSM   H10S11896   4.513   3.613   9.550 -1.4314  0.6657  1.7258
  114OSM   H10T11897   4.606   3.739   9.462  0.2459 -1.1259 -1.8580
  114OSM   C11S11898   4.429   3.698   9.369  0.2318  0.0161  0.4649
  114OSM   H11S11899   4.321   3.675   9.385  0.1960 -2.9671 -2.9191
  114OSM   H11T11900   4.470   3.609   9.317  1.0663  0.5591  0.1598
  114OSM   C12S11901   4.433   3.824   9.279  0.0526 -0.0551 -0.1777
  114OSM   H12S11902   4.537   3.864   9.281  1.1996 -2.7804 -0.8678
  114OSM   H12T11903   4.377   3.906   9.329  0.8398 -0.1959  0.9787
  114OSM   C13S11904   4.383   3.804   9.132  0.6363  0.9550  0.0197
  114OSM   H13S11905   4.402   3.899   9.077  0.5313 -0.0883 -1.9249
  114OSM   H13T11906   4.275   3.779   9.133  0.8368 -0.0740 -1.0580
  114OSM   C14S11907   4.459   3.690   9.057 -0.2406  0.9028 -0.5488
  114OSM   H14S11908   4.416   3.593   9.090  0.0675  0.9417 -0.0089
  114OSM   H14T11909   4.567   3.686   9.085 -0.5798 -0.4990  0.7002
  114OSM   C15S11910   4.477   3.712   8.906  0.4303 -0.2139  0.5812
  114OSM   H15S11911   4.551   3.637   8.868 -1.2930 -2.0215  0.6518
  114OSM   H15T11912   4.511   3.817   8.890  0.5469  0.2431  3.3507
  114OSM   C16S11913   4.341   3.696   8.826 -0.6614  0.3439 -0.1209
  114OSM   H16S11914   4.255   3.760   8.857 -2.3721 -0.6562 -2.4939
  114OSM   H16T11915   4.318   3.588   8.835  0.7202 -0.1249 -1.9156
  114OSM   C17S11916   4.359   3.731   8.680  0.1432 -0.8525  0.9448
  114OSM   H17S11917   4.370   3.842   8.675  1.7792 -0.9446  1.7861
  114OSM   H17T11918   4.271   3.692   8.626  0.0471 -0.0770  0.5207
  114OSM   C18S11919   4.489   3.679   8.606  0.4515  0.2275 -0.4951
  114OSM   H18S11920   4.503   3.570   8.621 -2.0913  0.0116  0.9203
  114OSM   H18T11921   4.581   3.733   8.635  0.0100 -0.0391  1.6191
  114OSM   H18U11922   4.471   3.697   8.498 -0.1184  0.7232 -0.3226
  114OSM    C1F11923   4.259   4.439  10.048 -0.3382  0.1470 -0.1702
  114OSM     OF11924   4.353   4.499  10.096 -0.2932 -0.3067  0.3783
  114OSM    C2F11925   4.173   4.498   9.937  0.5723 -0.4451  0.7526
  114OSM    H2F11926   4.070   4.506   9.977  1.1964  0.9979  2.1894
  114OSM    H2G11927   4.169   4.424   9.854  1.2036 -0.5485  0.8099
  114OSM    C3F11928   4.243   4.627   9.878  0.3464  0.1973  0.2159
  114OSM    H3F11929   4.346   4.598   9.848 -0.4788 -1.4298 -1.2322
  114OSM    H3G11930   4.245   4.697   9.964 -2.9674  0.9121 -0.1794
  114OSM    C4F11931   4.185   4.714   9.762  0.3739  0.6041  0.8431
  114OSM    H4F11932   4.251   4.798   9.733 -0.2616 -0.2759 -3.9990
  114OSM    H4G11933   4.086   4.756   9.786 -0.4595  0.5480 -2.1630
  114OSM    C5F11934   4.167   4.617   9.644  0.4808 -1.0967  0.3774
  114OSM    H5F11935   4.099   4.533   9.673  0.6754 -1.3194  0.1878
  114OSM    H5G11936   4.263   4.564   9.625  1.4824  1.2803 -1.5513
  114OSM    C6F11937   4.117   4.688   9.521  0.5021 -0.0192 -0.0156
  114OSM    H6F11938   4.178   4.780   9.506  1.5552 -0.6726  0.1181
  114OSM    H6G11939   4.013   4.721   9.541 -0.3201 -2.3685 -0.0819
  114OSM    C7F11940   4.140   4.607   9.392  0.5046 -0.0932  0.1271
  114OSM    H7F11941   4.072   4.519   9.398 -0.6953  0.8208  0.3501
  114OSM    H7G11942   4.245   4.572   9.393  0.4432 -0.6435  4.1897
  114OSM    C8F11943   4.102   4.687   9.264  0.1769 -0.1496 -0.4760
  114OSM    H8F11944   4.141   4.624   9.181  0.7600  0.9502 -1.0743
  114OSM    H8G11945   4.164   4.779   9.256  1.2416 -0.8276 -0.1989
  114OSM    C9F11946   3.954   4.733   9.251 -0.2469 -0.0780  0.1837
  114OSM    H9F11947   3.915   4.807   9.322 -0.0806  1.1568 -0.9921
  114OSM   C10F11948   3.886   4.707   9.141 -0.1408 -0.2560  0.0031
  114OSM   H10F11949   3.784   4.745   9.131  0.3405  0.5928 -2.2847
  114OSM   C11F11950   3.919   4.615   9.026  0.1986  0.4968 -0.2517
  114OSM   H11F11951   3.986   4.536   9.064 -2.3042 -1.1846  0.9537
  114OSM   H11G11952   3.977   4.667   8.947 -1.2248  1.0722 -0.9544
  114OSM   C12F11953   3.796   4.548   8.969  0.1078  0.1394 -0.2475
  114OSM   H12F11954   3.734   4.625   8.917 -1.4862 -1.6351 -1.1190
  114OSM   H12G11955   3.736   4.503   9.050  0.6876  1.1105  0.7490
  114OSM   C13F11956   3.829   4.450   8.855  0.1190 -0.6820 -0.1741
  114OSM   H13F11957   3.881   4.360   8.895 -0.7169 -2.0850 -2.1117
  114OSM   H13G11958   3.903   4.491   8.783  0.5056 -3.7508 -1.6729
  114OSM   C14F11959   3.704   4.423   8.769  0.2466 -0.1438 -0.4130
  114OSM   H14F11960   3.672   4.516   8.716  0.5358  0.1696 -0.0469
  114OSM   H14G11961   3.622   4.389   8.835  1.1351 -0.0992  0.7622
  114OSM   C15F11962   3.728   4.309   8.661  0.0074 -0.4171  0.3904
  114OSM   H15F11963   3.636   4.300   8.598 -0.2334  2.9336  0.0616
  114OSM   H15G11964   3.733   4.217   8.724 -0.2788 -0.9729 -0.3766
  114OSM   C16F11965   3.861   4.319   8.578  0.4830  0.2397  0.1954
  114OSM   H16F11966   3.948   4.321   8.648 -0.7696  2.2134  1.8096
  114OSM   H16G11967   3.873   4.419   8.532  1.3594  1.7020  3.2760
  114OSM   C17F11968   3.875   4.205   8.485  0.6156 -0.9772  0.9341
  114OSM   H17F11969   3.970   4.227   8.431 -1.4831 -0.8182 -3.1278
  114OSM   H17G11970   3.788   4.212   8.416  2.1606  1.4735 -0.9684
  114OSM   C18F11971   3.884   4.074   8.556  0.1819  0.3259  0.5475
  114OSM   H18F11972   3.792   4.061   8.616 -1.9221  2.9887 -1.7818
  114OSM   H18G11973   3.973   4.075   8.621  2.6492 -0.1139 -2.5508
  114OSM   H18H11974   3.892   3.989   8.484 -1.1378 -1.0011  1.9179
  115OSM      N11975   1.672   4.777  10.544 -0.0375 -0.0052  0.0365
  115OSM    C1511976   1.694   4.629  10.577 -0.0645  0.0685  0.3157
  115OSM   H15A11977   1.729   4.574  10.491 -0.2187 -0.2129  0.4299
  115OSM   H15B11978   1.597   4.592  10.608  0.1339 -0.8425 -0.1436
  115OSM   H15C11979   1.758   4.612  10.662 -1.2418  0.1892  1.2552
  115OSM    C1411980   1.553   4.773  10.450 -0.9926 -0.0944 -0.3204
  115OSM   H14A11981   1.545   4.868  10.401  1.6313 -0.8762 -2.4794
  115OSM   H14B11982   1.467   4.743  10.509 -1.9922  3.5856  0.3350
  115OSM   H14C11983   1.579   4.701  10.374 -1.6771 -1.0583  0.3223
  115OSM    C1311984   1.633   4.846  10.667 -0.3487 -0.4711 -0.5057
  115OSM   H13A11985   1.609   4.949  10.646  1.7934  0.0051 -0.7434
  115OSM   H13B11986   1.713   4.849  10.739 -0.0416  0.4954 -0.8778
  115OSM   H13C11987   1.555   4.793  10.721 -0.1136 -0.5039 -0.2002
  115OSM    C1211988   1.799   4.830  10.481  0.2788  0.4823 -0.3330
  115OSM   H12A11989   1.784   4.924  10.430  0.7839 -0.4190 -2.2526
  115OSM   H12B11990   1.830   4.762  10.403  1.2239 -0.7609  1.0702
  115OSM    C1111991   1.930   4.827  10.563 -0.1447  0.0859 -0.3307
  115OSM   H11A11992   1.918   4.886  10.657 -1.2436  0.0262 -0.4136
  115OSM   H11B11993   2.002   4.888  10.504 -1.2140  1.0408 -0.6927
  115OSM      P11994   2.063   4.626  10.521  0.2349 -0.3580  0.2698
  115OSM    O1311995   2.201   4.656  10.553 -0.7725  0.1350  0.2873
  115OSM    O1411996   2.025   4.483  10.531 -0.8683 -0.0685  0.4653
  115OSM    O1111997   2.041   4.678  10.376  0.0499 -0.4047  0.3956
  115OSM    O1211998   1.967   4.700  10.611  0.1918 -0.0017 -0.6156
  115OSM    C1S11999   2.063   4.584  10.262  0.3136 -0.3463 -0.8517
  115OSM    H1S12000   1.983   4.507  10.272 -0.1576  0.3560  1.3149
  115OSM    H1T12001   2.157   4.528  10.284  0.5073  0.8547  1.7672
  115OSM     NF12002   2.047   4.559  10.023  0.5916 -0.3982 -0.1584
  115OSM    HNF12003   2.138   4.523  10.002 -0.0234 -3.9010  2.2199
  115OSM    C2S12004   2.055   4.660  10.130  0.2519  0.3560 -0.0164
  115OSM    H2S12005   1.964   4.724  10.131  0.6868  0.9943 -0.3268
  115OSM    C3S12006   2.176   4.750  10.113 -0.7864  0.5432  0.6229
  115OSM    H3S12007   2.260   4.679  10.094 -1.3906  0.1948 -0.8675
  115OSM     O312008   2.210   4.819  10.228 -0.1566  0.4538  0.3319
  115OSM    HO312009   2.164   4.776  10.301  0.0480 -0.2523  0.0473
  115OSM    C4S12010   2.176   4.839   9.999 -0.2872 -0.0657 -0.2606
  115OSM    H4S12011   2.075   4.873   9.972 -0.6773 -0.5490  0.5688
  115OSM    C5S12012   2.280   4.877   9.920  0.0182 -0.1746  0.3713
  115OSM    H5S12013   2.382   4.851   9.951 -0.1957  0.5287  1.7385
  115OSM    C6S12014   2.273   4.973   9.807 -0.0310 -0.4627 -0.3126
  115OSM    H6S12015   2.331   5.065   9.830  1.0786 -1.9033  3.3303
  115OSM    H6T12016   2.171   5.003   9.776  0.7867  0.5676 -2.2271
  115OSM    C7S12017   2.325   4.900   9.684 -0.2964  0.4589  0.3070
  115OSM    H7S12018   2.260   4.810   9.671 -0.1832  0.4013  0.1287
  115OSM    H7T12019   2.432   4.872   9.691  0.1701  2.0805  0.1001
  115OSM    C8S12020   2.312   4.987   9.558 -0.2312  0.6969 -0.2951
  115OSM    H8S12021   2.408   5.043   9.558  0.1396  0.0886  1.0846
  115OSM    H8T12022   2.232   5.064   9.560 -1.1784 -0.2880  0.4205
  115OSM    C9S12023   2.305   4.917   9.430 -0.1829  0.2357 -0.1103
  115OSM    H9S12024   2.229   4.838   9.414  1.3355 -1.0173 -1.5370
  115OSM    H9T12025   2.399   4.861   9.412  0.1543  0.8013 -0.1562
  115OSM   C10S12026   2.285   4.999   9.301  1.0659  0.2238  0.0543
  115OSM   H10S12027   2.356   5.082   9.280 -1.1128  1.5415 -2.8697
  115OSM   H10T12028   2.179   5.033   9.291  0.1770 -2.8643 -2.4001
  115OSM   C11S12029   2.313   4.920   9.171 -0.4769  0.3586  0.0472
  115OSM   H11S12030   2.241   4.838   9.151  1.8937 -1.6515 -0.9160
  115OSM   H11T12031   2.412   4.870   9.182 -1.1905 -0.9037  1.1824
  115OSM   C12S12032   2.322   5.014   9.055 -0.7905 -0.4096  0.7666
  115OSM   H12S12033   2.417   5.070   9.047 -1.1370 -0.0571 -2.3754
  115OSM   H12T12034   2.248   5.095   9.075 -0.3879  0.2174 -0.2294
  115OSM   C13S12035   2.278   4.955   8.921 -0.2023 -0.3151 -0.3346
  115OSM   H13S12036   2.174   4.929   8.951 -0.0147  0.7017  1.3078
  115OSM   H13T12037   2.330   4.858   8.908  2.2071  0.5332  2.0410
  115OSM   C14S12038   2.279   5.045   8.802 -0.1599  0.3423 -0.0971
  115OSM   H14S12039   2.383   5.067   8.771  0.5041 -1.7942  0.4562
  115OSM   H14T12040   2.243   5.144   8.839 -0.3946 -0.8361  3.2250
  115OSM   C15S12041   2.206   4.987   8.690 -0.1294  0.3450 -0.4849
  115OSM   H15S12042   2.099   4.977   8.718  0.2536  0.3627  1.1204
  115OSM   H15T12043   2.235   4.882   8.667 -0.6288  0.4696 -1.7581
  115OSM   C16S12044   2.221   5.069   8.565  0.4820 -0.2980  0.5156
  115OSM   H16S12045   2.327   5.065   8.534  0.4682 -2.2165  0.5718
  115OSM   H16T12046   2.188   5.168   8.604  1.5322  0.8265 -1.3152
  115OSM   C17S12047   2.139   5.031   8.447  0.6694  0.5612 -0.0607
  115OSM   H17S12048   2.064   4.958   8.485  1.1409 -0.4557 -1.0347
  115OSM   H17T12049   2.201   4.976   8.374 -0.8025 -2.3734  0.7462
  115OSM   C18S12050   2.063   5.150   8.383  0.1680 -0.1690  0.0618
  115OSM   H18S12051   2.013   5.112   8.291  1.1521 -0.5995 -0.3160
  115OSM   H18T12052   2.129   5.228   8.338  1.2912 -0.4664  1.1208
  115OSM   H18U12053   1.980   5.187   8.445 -0.7674 -4.4889  1.7842
  115OSM    C1F12054   1.933   4.506   9.991  0.0761  0.1093  0.3273
  115OSM     OF12055   1.833   4.563  10.024  0.2410  0.0376  0.7459
  115OSM    C2F12056   1.932   4.366   9.923 -0.1384 -0.9634  0.0722
  115OSM    H2F12057   1.894   4.303  10.006 -0.4497  0.4161  1.0104
  115OSM    H2G12058   2.037   4.336   9.907 -0.3224 -1.1168 -0.9623
  115OSM    C3F12059   1.843   4.359   9.799  0.1163  0.7912  0.2426
  115OSM    H3F12060   1.862   4.449   9.737 -0.6453  0.1348 -0.9865
  115OSM    H3G12061   1.737   4.372   9.831 -0.2208 -0.4527 -0.2917
  115OSM    C4F12062   1.846   4.223   9.714 -0.4808 -0.3227 -0.1497
  115OSM    H4F12063   1.783   4.246   9.625  0.0560 -2.9469 -1.3075
  115OSM    H4G12064   1.823   4.137   9.780 -0.3416 -0.1974  0.0610
  115OSM    C5F12065   1.987   4.190   9.658  0.4926  0.7641  0.3217
  115OSM    H5F12066   1.983   4.090   9.609  0.7888  0.6182  0.5903
  115OSM    H5G12067   2.069   4.196   9.733  2.4065  1.4900 -1.7344
  115OSM    C6F12068   2.032   4.282   9.545  0.1248 -0.0811  0.6212
  115OSM    H6F12069   2.028   4.381   9.595  2.8596  0.1656  0.4963
  115OSM    H6G12070   1.953   4.282   9.467  0.1377  2.3329  0.5091
  115OSM    C7F12071   2.164   4.248   9.486 -0.3665 -0.2673 -0.8964
  115OSM    H7F12072   2.228   4.208   9.567 -1.5396 -0.0238  0.1959
  115OSM    H7G12073   2.198   4.346   9.449  1.0689  0.1307  1.3162
  115OSM    C8F12074   2.157   4.142   9.374  0.0526  0.8383  0.0614
  115OSM    H8F12075   2.118   4.045   9.411  2.4889 -0.3992 -0.4669
  115OSM    H8G12076   2.266   4.122   9.365  0.1106 -1.4999  3.7002
  115OSM    C9F12077   2.079   4.188   9.253 -0.1017 -0.0781  0.0402
  115OSM    H9F12078   1.986   4.240   9.280  0.1530 -0.3915  1.5910
  115OSM   C10F12079   2.109   4.164   9.122 -0.1600  0.2872  0.0735
  115OSM   H10F12080   2.048   4.208   9.042  0.5569 -0.4352 -0.8879
  115OSM   C11F12081   2.242   4.099   9.084 -1.1152  0.1527 -0.6157
  115OSM   H11F12082   2.242   3.998   9.129 -1.9688  0.3400 -0.1720
  115OSM   H11G12083   2.325   4.161   9.124 -0.2248 -1.2105 -0.2813
  115OSM   C12F12084   2.264   4.097   8.937  0.3065 -0.4263 -0.1532
  115OSM   H12F12085   2.261   4.197   8.889  0.7545 -0.1786  0.3201
  115OSM   H12G12086   2.177   4.040   8.899 -0.4912  0.6804 -0.0323
  115OSM   C13F12087   2.394   4.014   8.902 -0.0761 -0.0590  0.5292
  115OSM   H13F12088   2.406   3.923   8.965  1.7989 -1.8403 -2.1591
  115OSM   H13G12089   2.474   4.090   8.909 -0.8310  0.6080  2.3965
  115OSM   C14F12090   2.383   3.963   8.754 -0.6090 -0.3484 -0.0187
  115OSM   H14F12091   2.379   4.046   8.680  3.6333 -1.9509 -2.4166
  115OSM   H14G12092   2.294   3.897   8.747 -0.6974 -0.1385 -0.9463
  115OSM   C15F12093   2.508   3.875   8.730  0.4123 -0.4631  0.7508
  115OSM   H15F12094   2.503   3.782   8.791  2.7850  0.2977  2.2564
  115OSM   H15G12095   2.593   3.941   8.757 -1.0495  0.9465  2.1395
  115OSM   C16F12096   2.538   3.845   8.585 -0.6183 -0.3722 -0.4807
  115OSM   H16F12097   2.649   3.845   8.575 -0.7349 -1.1264 -1.9341
  115OSM   H16G12098   2.508   3.920   8.509  0.7372 -0.3885 -1.0725
  115OSM   C17F12099   2.476   3.711   8.534 -0.1794  0.0339 -0.2182
  115OSM   H17F12100   2.366   3.729   8.543  0.2240  2.0803  1.3167
  115OSM   H17G12101   2.503   3.618   8.590 -1.6290 -0.0087  0.4705
  115OSM   C18F12102   2.499   3.683   8.383  0.1839 -0.0152  0.2368
  115OSM   H18F12103   2.424   3.607   8.353  0.8111 -0.5791  0.0972
  115OSM   H18G12104   2.601   3.643   8.367  0.4810  0.1761  1.4770
  115OSM   H18H12105   2.495   3.777   8.324  0.4146 -1.6182 -2.4780
  116OSM      N12106   5.861   5.644  10.433 -0.5767 -0.4142 -0.0095
  116OSM    C1512107   5.826   5.791  10.433  0.2685  0.3381 -0.1029
  116OSM   H15A12108   5.912   5.856  10.428  2.2576 -2.1778 -0.4691
  116OSM   H15B12109   5.746   5.806  10.504 -2.0104 -3.5592 -1.5338
  116OSM   H15C12110   5.761   5.800  10.347 -0.3105 -2.1573 -0.0051
  116OSM    C1412111   5.978   5.623  10.345  0.5025 -0.6350  0.3286
  116OSM   H14A12112   6.065   5.673  10.386 -0.5030  1.6441 -0.1482
  116OSM   H14B12113   5.974   5.669  10.247 -1.2287 -3.8894 -1.2805
  116OSM   H14C12114   6.015   5.522  10.335  1.6203 -0.1696 -0.5540
  116OSM    C1312115   5.904   5.615  10.566 -0.1392 -0.1143 -0.4122
  116OSM   H13A12116   5.997   5.661  10.594 -0.5610  0.7646 -0.4289
  116OSM   H13B12117   5.924   5.512  10.591 -1.0634  0.0154  0.9451
  116OSM   H13C12118   5.830   5.646  10.639  2.0647 -2.2636  3.0078
  116OSM    C1212119   5.742   5.569  10.379 -0.2592 -0.1607 -0.3185
  116OSM   H12A12120   5.662   5.580  10.450 -0.0883  0.7839 -0.2711
  116OSM   H12B12121   5.773   5.466  10.390 -1.4862 -0.7001 -1.5172
  116OSM    C1112122   5.690   5.602  10.243 -0.2162  0.3732  0.1448
  116OSM   H11A12123   5.615   5.524  10.215  1.1036 -1.2379  0.9461
  116OSM   H11B12124   5.772   5.586  10.171 -0.5487 -0.1694 -0.1231
  116OSM      P12125   5.502   5.790  10.256 -0.0581  0.0683 -0.3484
  116OSM    O1312126   5.466   5.750  10.394 -0.0702  0.0857  0.0306
  116OSM    O1412127   5.499   5.934  10.224 -0.0657 -0.4866 -0.0664
  116OSM    O1112128   5.396   5.713  10.157  0.6244  0.0583 -0.0846
  116OSM    O1212129   5.645   5.735  10.213 -0.0925  0.9365 -0.0498
  116OSM    C1S12130   5.355   5.774  10.030 -0.6447 -0.3372  0.4084
  116OSM    H1S12131   5.372   5.884  10.030 -0.6769 -0.3326  0.2619
  116OSM    H1T12132   5.247   5.765  10.009 -0.7550 -1.0771  1.2066
  116OSM     NF12133   5.398   5.772   9.784 -0.1922 -0.4457  0.0334
  116OSM    HNF12134   5.328   5.727   9.728 -2.3570  1.6736  0.8347
  116OSM    C2S12135   5.430   5.710   9.913  0.2441 -0.0888 -0.6161
  116OSM    H2S12136   5.539   5.728   9.928  0.2926 -0.4145 -0.5677
  116OSM    C3S12137   5.413   5.552   9.912  0.1506  0.2561  0.7333
  116OSM    H3S12138   5.307   5.525   9.895  0.5132 -0.0148 -1.5143
  116OSM     O312139   5.449   5.485  10.030 -0.0291  0.0722  0.2214
  116OSM    HO312140   5.433   5.546  10.103  0.9107 -1.4349  1.7635
  116OSM    C4S12141   5.483   5.484   9.797 -0.1070 -0.5169  0.3585
  116OSM    H4S12142   5.591   5.505   9.795 -0.3432  1.2618 -3.1736
  116OSM    C5S12143   5.432   5.417   9.695  0.3706  0.4579 -0.3698
  116OSM    H5S12144   5.322   5.413   9.695  0.2691  0.7911  2.4337
  116OSM    C6S12145   5.517   5.351   9.583  1.0875  0.0626 -0.4432
  116OSM    H6S12146   5.626   5.369   9.597  1.3487 -0.7728 -1.2520
  116OSM    H6T12147   5.476   5.393   9.489 -0.9149 -0.8713 -0.0425
  116OSM    C7S12148   5.487   5.196   9.562  0.0111 -0.0724 -0.2194
  116OSM    H7S12149   5.398   5.164   9.505  0.2598 -0.5642 -0.3321
  116OSM    H7T12150   5.476   5.144   9.660  0.0933  0.5133  0.1056
  116OSM    C8S12151   5.604   5.128   9.490  0.4678  0.3360  0.2199
  116OSM    H8S12152   5.575   5.022   9.477 -2.1597  1.2618 -2.5914
  116OSM    H8T12153   5.692   5.131   9.558  0.0498 -1.2350  0.8742
  116OSM    C9S12154   5.646   5.188   9.350 -0.1969  0.2350 -0.3195
  116OSM    H9S12155   5.734   5.132   9.312  0.0250 -0.0206  0.5570
  116OSM    H9T12156   5.687   5.291   9.357 -0.5229  0.3048  0.6032
  116OSM   C10S12157   5.540   5.173   9.245 -0.9438  0.6164 -0.1945
  116OSM   H10S12158   5.462   5.102   9.277 -0.9918 -0.1847 -1.9509
  116OSM   H10T12159   5.578   5.123   9.153  1.6314 -0.0382  1.1340
  116OSM   C11S12160   5.464   5.304   9.217 -0.6732  0.2275 -0.5042
  116OSM   H11S12161   5.531   5.393   9.214 -0.8478  0.3893  0.1185
  116OSM   H11T12162   5.395   5.326   9.302  0.1485  4.9299 -0.7457
  116OSM   C12S12163   5.380   5.298   9.085 -0.6548 -0.4494  0.3009
  116OSM   H12S12164   5.315   5.388   9.090 -0.0891  0.0950 -1.5464
  116OSM   H12T12165   5.306   5.215   9.077 -0.4682 -0.7169  1.1891
  116OSM   C13S12166   5.461   5.306   8.945 -0.2723  0.2644  0.3718
  116OSM   H13S12167   5.543   5.232   8.945 -0.9130 -0.4631  1.2210
  116OSM   H13T12168   5.488   5.414   8.947 -0.4257  0.3015  2.5270
  116OSM   C14S12169   5.371   5.297   8.818  1.0843  0.8036  0.0651
  116OSM   H14S12170   5.308   5.388   8.803 -0.5846  0.1166  2.4009
  116OSM   H14T12171   5.300   5.214   8.839 -1.2740  2.5361 -0.5805
  116OSM   C15S12172   5.438   5.256   8.686  0.3695  0.6573 -0.0706
  116OSM   H15S12173   5.495   5.346   8.654 -2.0768  2.5520  0.5633
  116OSM   H15T12174   5.362   5.239   8.608  1.5943 -1.6817 -0.8435
  116OSM   C16S12175   5.525   5.118   8.695  0.0512 -0.1813 -0.3911
  116OSM   H16S12176   5.446   5.048   8.728  1.9629 -1.9541  0.7139
  116OSM   H16T12177   5.604   5.137   8.772 -0.2870 -2.0065  0.4597
  116OSM   C17S12178   5.588   5.079   8.563  0.4458  0.9350  0.2971
  116OSM   H17S12179   5.659   4.996   8.582  1.8505  2.2438  0.9496
  116OSM   H17T12180   5.650   5.160   8.520  0.4003 -0.9708 -3.8431
  116OSM   C18S12181   5.487   5.047   8.458  0.2898 -0.4587  0.3985
  116OSM   H18S12182   5.542   5.021   8.365 -0.6676  1.4542 -0.7622
  116OSM   H18T12183   5.415   5.126   8.429  1.1923  0.2849  0.1192
  116OSM   H18U12184   5.433   4.955   8.487  1.2617 -1.2165 -0.1188
  116OSM    C1F12185   5.434   5.899   9.753  0.0834  0.2966  0.5208
  116OSM     OF12186   5.495   5.975   9.830  0.2414  0.1633  0.3351
  116OSM    C2F12187   5.390   5.936   9.613 -0.2997 -1.0323  0.2316
  116OSM    H2F12188   5.301   5.878   9.578 -1.3548  1.2479 -1.0501
  116OSM    H2G12189   5.474   5.909   9.545 -0.7510 -1.0358 -0.3245
  116OSM    C3F12190   5.367   6.091   9.601 -0.3250  0.2177  0.5209
  116OSM    H3F12191   5.455   6.151   9.632  1.3062 -2.0526  0.5385
  116OSM    H3G12192   5.293   6.117   9.680  1.4385 -1.2052  2.7625
  116OSM    C4F12193   5.319   6.129   9.466 -0.1745  0.7270  0.3262
  116OSM    H4F12194   5.279   6.232   9.479 -1.3486  0.7274 -2.5932
  116OSM    H4G12195   5.242   6.060   9.427  0.7012 -1.0531  1.5759
  116OSM    C5F12196   5.435   6.124   9.369 -0.0577  0.2173 -0.5054
  116OSM    H5F12197   5.446   6.016   9.345 -0.7422  0.3025 -1.2581
  116OSM    H5G12198   5.524   6.165   9.421 -0.6251  0.7740  0.0447
  116OSM    C6F12199   5.410   6.213   9.250  0.6797  0.1484 -0.0286
  116OSM    H6F12200   5.424   6.319   9.280  0.6004  1.1584 -3.1803
  116OSM    H6G12201   5.306   6.206   9.210  1.0291 -0.5834 -0.8556
  116OSM    C7F12202   5.500   6.181   9.125  0.3475  0.3179  0.0359
  116OSM    H7F12203   5.468   6.078   9.099 -0.4373 -0.0239  2.1849
  116OSM    H7G12204   5.609   6.181   9.146  0.1576 -1.7284  1.2851
  116OSM    C8F12205   5.475   6.263   8.998 -0.1178  0.2322  0.1350
  116OSM    H8F12206   5.506   6.367   9.019  0.2449  0.6421 -2.1799
  116OSM    H8G12207   5.365   6.270   8.982 -0.0300  0.5853 -0.3442
  116OSM    C9F12208   5.552   6.215   8.882  0.2235 -0.1848 -0.0990
  116OSM    H9F12209   5.658   6.235   8.901  0.4601  0.7062 -2.0673
  116OSM   C10F12210   5.506   6.164   8.771  0.1781  0.0960 -0.2320
  116OSM   H10F12211   5.589   6.126   8.709  1.9305  1.7783  0.9560
  116OSM   C11F12212   5.359   6.132   8.743  0.1898 -0.5200 -0.6279
  116OSM   H11F12213   5.296   6.220   8.768 -2.1392 -2.1444 -0.4607
  116OSM   H11G12214   5.319   6.040   8.790  1.3632 -1.4115 -1.3111
  116OSM   C12F12215   5.362   6.106   8.596 -0.4312 -0.0925 -0.3202
  116OSM   H12F12216   5.443   6.034   8.573 -1.0543 -0.9485  0.1153
  116OSM   H12G12217   5.375   6.205   8.546  0.6576  0.2664  0.6317
  116OSM   C13F12218   5.228   6.043   8.550 -0.4066  0.2394 -0.1784
  116OSM   H13F12219   5.141   6.106   8.575  0.4049  1.3121  0.0298
  116OSM   H13G12220   5.215   5.953   8.614  1.3289  0.7138  0.9151
  116OSM   C14F12221   5.223   5.980   8.411  0.3423 -0.5288 -0.0742
  116OSM   H14F12222   5.267   5.878   8.413  1.1578 -0.1760  0.8434
  116OSM   H14G12223   5.291   6.038   8.345  1.6431 -2.5005 -0.5658
  116OSM   C15F12224   5.080   5.956   8.367 -0.0771 -0.2632 -0.1422
  116OSM   H15F12225   5.020   5.908   8.448  0.7138 -2.2283 -0.6881
  116OSM   H15G12226   5.074   5.885   8.282  0.2111 -0.5757  0.0972
  116OSM   C16F12227   5.010   6.083   8.311 -0.8067 -0.2262  0.0054
  116OSM   H16F12228   5.077   6.142   8.246 -1.2579  0.8682  0.5025
  116OSM   H16G12229   4.989   6.150   8.397  1.8781  1.1056 -0.2707
  116OSM   C17F12230   4.877   6.051   8.234  0.3328 -0.3650 -0.7131
  116OSM   H17F12231   4.899   5.957   8.178 -0.4054 -0.9160 -0.0994
  116OSM   H17G12232   4.844   6.135   8.170 -1.9139 -0.9521 -0.4259
  116OSM   C18F12233   4.761   6.016   8.330 -0.2484 -0.0297 -0.4508
  116OSM   H18F12234   4.786   5.937   8.405 -1.5192  0.7414  0.8311
  116OSM   H18G12235   4.678   5.973   8.270 -0.8066  1.5494 -0.8581
  116OSM   H18H12236   4.730   6.115   8.369  2.4275  0.7378 -0.0663
  117OSM      N12237   2.241   0.709  10.358  0.6045  0.4993  0.6213
  117OSM    C1512238   2.156   0.830  10.352  0.0438 -0.4120  0.2580
  117OSM   H15A12239   2.219   0.915  10.372  0.1375 -0.8888  2.0989
  117OSM   H15B12240   2.077   0.826  10.425 -2.9445  0.4095 -2.6711
  117OSM   H15C12241   2.111   0.830  10.253  2.0871  1.5526 -0.7476
  117OSM    C1412242   2.314   0.710  10.493 -0.1118  0.3735  0.6419
  117OSM   H14A12243   2.246   0.744  10.570 -0.6538 -1.4364  1.0281
  117OSM   H14B12244   2.404   0.769  10.494  0.3523 -0.2802 -0.6017
  117OSM   H14C12245   2.338   0.609  10.525 -1.8777 -0.1773  0.3200
  117OSM    C1312246   2.152   0.587  10.362  0.4241  0.3558 -0.4000
  117OSM   H13A12247   2.212   0.498  10.373 -1.3190 -1.3223 -3.1437
  117OSM   H13B12248   2.089   0.577  10.275  0.7768 -0.5509 -0.5601
  117OSM   H13C12249   2.086   0.593  10.447  2.1118 -0.5429  1.0298
  117OSM    C1212250   2.339   0.705  10.243  0.1700 -0.3797 -0.1375
  117OSM   H12A12251   2.397   0.795  10.245  2.9856 -1.8455 -4.0585
  117OSM   H12B12252   2.282   0.698  10.151 -0.9218 -1.1193  0.5536
  117OSM    C1112253   2.442   0.585  10.241  0.0397  0.2777 -0.3607
  117OSM   H11A12254   2.500   0.579  10.147  0.8117  0.9646  0.0515
  117OSM   H11B12255   2.392   0.485  10.246 -0.4536  0.4724 -1.3035
  117OSM      P12256   2.646   0.712  10.341  0.2334  0.6041 -0.5401
  117OSM    O1312257   2.580   0.839  10.343 -0.0821 -0.2824 -0.1265
  117OSM    O1412258   2.734   0.676  10.457 -0.3990 -0.7040  0.1627
  117OSM    O1112259   2.721   0.687  10.200  0.5628 -0.0754 -0.0669
  117OSM    O1212260   2.536   0.603  10.343 -0.2968  0.1309 -0.2506
  117OSM    C1S12261   2.767   0.554  10.172 -0.5241 -0.0317  0.2730
  117OSM    H1S12262   2.697   0.471  10.192 -0.8743 -0.2267 -1.6512
  117OSM    H1T12263   2.852   0.530  10.240 -0.4884  1.1367  0.6758
  117OSM     NF12264   2.859   0.385  10.000 -0.5030 -0.4977 -0.1974
  117OSM    HNF12265   2.955   0.370  10.024  0.3006  2.1134 -1.4965
  117OSM    C2S12266   2.816   0.523  10.023 -0.6189 -0.0689  0.4330
  117OSM    H2S12267   2.727   0.542   9.959 -1.5944  0.2608  1.8296
  117OSM    C3S12268   2.914   0.634   9.982 -0.7833  0.0547 -0.0349
  117OSM    H3S12269   3.001   0.601  10.043 -0.6643 -1.5089 -0.9928
  117OSM     O312270   2.884   0.771  10.018 -0.0307  0.0554  0.3820
  117OSM    HO312271   2.815   0.759  10.083 -0.4439 -1.1364 -0.2689
  117OSM    C4S12272   2.951   0.617   9.832 -0.1233 -0.7060  0.7188
  117OSM    H4S12273   2.871   0.642   9.761 -0.5571  0.4544  1.5777
  117OSM    C5S12274   3.073   0.591   9.782  0.1097  0.7343  0.9319
  117OSM    H5S12275   3.157   0.556   9.843  1.5566  0.7456 -0.9648
  117OSM    C6S12276   3.097   0.567   9.636  0.4706  0.2561  0.3329
  117OSM    H6S12277   3.153   0.471   9.634  0.1281  0.0695 -0.8009
  117OSM    H6T12278   3.169   0.645   9.603  0.7024 -0.5645 -1.1778
  117OSM    C7S12279   2.984   0.556   9.533  0.6817 -1.2821 -0.1169
  117OSM    H7S12280   2.923   0.649   9.536  1.2653 -0.9103  0.5950
  117OSM    H7T12281   2.905   0.480   9.550  0.1001 -0.4011  1.3186
  117OSM    C8S12282   3.032   0.548   9.389 -1.0475  0.8438  0.0413
  117OSM    H8S12283   3.066   0.443   9.380 -3.1361 -0.2454  3.0162
  117OSM    H8T12284   3.106   0.630   9.377  0.3511 -0.5368 -1.0691
  117OSM    C9S12285   2.917   0.562   9.287 -0.7533  0.0632 -0.7050
  117OSM    H9S12286   2.841   0.630   9.331 -1.5727 -0.0777 -1.8472
  117OSM    H9T12287   2.875   0.461   9.269 -0.0400 -0.2278 -0.7524
  117OSM   C10S12288   2.965   0.622   9.152  0.1675 -0.1330  0.5702
  117OSM   H10S12289   3.067   0.579   9.143  0.6612  1.2216 -0.6742
  117OSM   H10T12290   2.985   0.730   9.138  0.5487 -0.4532 -1.6958
  117OSM   C11S12291   2.887   0.567   9.032  0.0578 -0.1120 -0.1576
  117OSM   H11S12292   2.789   0.618   9.026  0.6242  0.8397 -2.1804
  117OSM   H11T12293   2.872   0.457   9.038 -2.7541  0.2304  0.5062
  117OSM   C12S12294   2.959   0.603   8.904 -0.0431 -0.3424 -0.0241
  117OSM   H12S12295   3.016   0.515   8.868  0.0215 -0.4678  0.3916
  117OSM   H12T12296   3.028   0.690   8.905  0.3161 -0.6137 -0.5368
  117OSM   C13S12297   2.865   0.628   8.787  0.0774  0.3756 -0.3987
  117OSM   H13S12298   2.799   0.712   8.817 -1.0760 -0.6344 -0.0498
  117OSM   H13T12299   2.805   0.540   8.756  0.8902 -0.2598 -0.2225
  117OSM   C14S12300   2.944   0.680   8.665 -0.3900 -0.0861  0.7532
  117OSM   H14S12301   3.009   0.596   8.634 -1.4353 -0.1546 -1.4151
  117OSM   H14T12302   2.999   0.775   8.681  3.9611 -1.8065 -2.1539
  117OSM   C15S12303   2.849   0.722   8.548 -0.4220  0.3243 -0.3737
  117OSM   H15S12304   2.771   0.786   8.594 -0.2531  0.3252 -0.0893
  117OSM   H15T12305   2.794   0.629   8.520  0.5066  0.2130 -1.9719
  117OSM   C16S12306   2.921   0.804   8.441  0.2444 -0.1637  0.4798
  117OSM   H16S12307   2.965   0.894   8.490  3.0661 -0.8723 -0.5138
  117OSM   H16T12308   2.839   0.835   8.374  0.9400  1.1676  0.2049
  117OSM   C17S12309   3.034   0.728   8.363  0.2210 -0.6252 -0.2515
  117OSM   H17S12310   3.126   0.717   8.424 -1.4210 -1.9453  2.1791
  117OSM   H17T12311   3.053   0.795   8.277 -0.3452  1.8750  1.4287
  117OSM   C18S12312   2.990   0.591   8.327 -0.5104  0.0852 -0.7319
  117OSM   H18S12313   2.969   0.534   8.419 -1.7294  0.4332 -0.7730
  117OSM   H18T12314   3.074   0.532   8.283  0.2865  0.1650  0.6333
  117OSM   H18U12315   2.894   0.579   8.272 -0.4336 -0.3545 -0.7692
  117OSM    C1F12316   2.767   0.284   9.987  0.0231 -0.2249  0.0485
  117OSM     OF12317   2.648   0.318   9.969 -0.5562 -0.2137 -0.4917
  117OSM    C2F12318   2.817   0.145   9.979 -0.8697 -0.1091  0.2730
  117OSM    H2F12319   2.810   0.100  10.080 -0.0405 -0.8027  0.0321
  117OSM    H2G12320   2.924   0.150   9.950 -0.4636  1.8365  1.8529
  117OSM    C3F12321   2.738   0.062   9.870  0.0382 -0.6958  0.0773
  117OSM    H3F12322   2.631   0.046   9.894 -0.0579 -1.2567 -0.6840
  117OSM    H3G12323   2.798  -0.028   9.845  0.0971 -0.4837 -0.5794
  117OSM    C4F12324   2.736   0.129   9.732  0.4329  0.8610 -0.0888
  117OSM    H4F12325   2.692   0.230   9.741 -2.1569 -0.1417 -0.5156
  117OSM    H4G12326   2.658   0.073   9.675  1.0269  0.0038 -0.0773
  117OSM    C5F12327   2.863   0.137   9.646 -0.3852  0.0085 -0.0486
  117OSM    H5F12328   2.918   0.042   9.662  1.2300  1.2516  2.3010
  117OSM    H5G12329   2.916   0.221   9.696 -1.2035  0.8751 -0.6093
  117OSM    C6F12330   2.833   0.176   9.498 -0.1957 -0.1760  0.4527
  117OSM    H6F12331   2.921   0.227   9.454 -1.1309  1.5123  0.4456
  117OSM    H6G12332   2.771   0.268   9.493  2.4072  1.6173 -1.9437
  117OSM    C7F12333   2.788   0.067   9.404 -0.5547  1.2572 -0.1654
  117OSM    H7F12334   2.699   0.020   9.451  1.4316 -3.4139 -0.5178
  117OSM    H7G12335   2.863  -0.016   9.406 -2.5209 -0.6398  2.6932
  117OSM    C8F12336   2.760   0.114   9.259 -0.0683  1.1166  0.9702
  117OSM    H8F12337   2.774   0.022   9.198 -0.9484  1.5050  0.1490
  117OSM    H8G12338   2.850   0.172   9.229 -0.2837  0.2221 -1.7287
  117OSM    C9F12339   2.627   0.181   9.223 -0.1689  0.1336 -0.0854
  117OSM    H9F12340   2.581   0.251   9.293 -0.1021  0.1386 -0.0464
  117OSM   C10F12341   2.563   0.158   9.109 -0.0796 -0.4577  0.0322
  117OSM   H10F12342   2.475   0.224   9.103 -1.3512 -1.6644  3.0286
  117OSM   C11F12343   2.601   0.080   8.986  0.0636  0.6474 -1.0191
  117OSM   H11F12344   2.536  -0.010   8.983  1.0335 -0.0604 -1.3827
  117OSM   H11G12345   2.705   0.039   8.989  0.0458  0.5718  1.7022
  117OSM   C12F12346   2.573   0.155   8.855  0.8539  0.0533  0.8446
  117OSM   H12F12347   2.477   0.210   8.859  0.7246 -0.0927 -0.0536
  117OSM   H12G12348   2.550   0.089   8.768 -2.5377  0.4446  1.2991
  117OSM   C13F12349   2.682   0.252   8.803  0.7361 -0.3807  0.8279
  117OSM   H13F12350   2.782   0.205   8.789 -0.5829 -2.9179 -0.9120
  117OSM   H13G12351   2.690   0.328   8.883 -1.0527  0.9778 -0.2085
  117OSM   C14F12352   2.650   0.317   8.666 -0.1382  0.4564 -1.0374
  117OSM   H14F12353   2.733   0.382   8.630  1.4915 -0.9822 -0.0732
  117OSM   H14G12354   2.554   0.373   8.665  0.3472  1.3468 -3.1505
  117OSM   C15F12355   2.639   0.217   8.558 -0.7828  0.0597 -0.1429
  117OSM   H15F12356   2.547   0.157   8.575 -1.0714 -0.5506 -3.2537
  117OSM   H15G12357   2.725   0.148   8.563 -1.4929 -0.9660 -1.3962
  117OSM   C16F12358   2.629   0.277   8.418 -0.5406  0.0500 -0.3525
  117OSM   H16F12359   2.719   0.338   8.393 -0.2360 -0.6128 -0.8871
  117OSM   H16G12360   2.542   0.347   8.418 -2.7660 -2.5333  1.5675
  117OSM   C17F12361   2.626   0.174   8.307  0.7995 -0.2423  0.1604
  117OSM   H17F12362   2.531   0.121   8.331  1.7157 -1.8910  0.2410
  117OSM   H17G12363   2.705   0.098   8.321  0.4727 -0.2162  2.6373
  117OSM   C18F12364   2.632   0.226   8.169 -0.4693 -0.4220 -0.5294
  117OSM   H18F12365   2.543   0.292   8.161  0.5001  1.1285  0.8656
  117OSM   H18G12366   2.616   0.153   8.087 -0.4209 -2.5353  1.2491
  117OSM   H18H12367   2.721   0.292   8.162 -0.8572  0.0320 -1.3426
  118OSM      N12368   3.360   1.025  10.907  0.4105  0.2974  0.4632
  118OSM    C1512369   3.264   0.950  10.992 -0.5975  0.3969 -0.8162
  118OSM   H15A12370   3.162   0.952  10.957 -1.6127 -0.6273  1.8699
  118OSM   H15B12371   3.263   0.994  11.090  2.7917 -5.1314  2.2340
  118OSM   H15C12372   3.298   0.849  11.012  0.9050  1.2561  1.2491
  118OSM    C1412373   3.310   1.163  10.891 -0.2021 -0.9170 -0.0041
  118OSM   H14A12374   3.362   1.218  10.814 -2.3016  1.0547 -0.1299
  118OSM   H14B12375   3.327   1.210  10.987 -1.4551 -1.5795  0.5773
  118OSM   H14C12376   3.204   1.175  10.874  0.1420  1.8679 -0.7641
  118OSM    C1312377   3.493   1.023  10.973  0.0936  0.1749  0.3558
  118OSM   H13A12378   3.489   1.072  11.069  0.7091  0.6379  0.1602
  118OSM   H13B12379   3.565   1.079  10.913  0.2581  0.4810  0.8363
  118OSM   H13C12380   3.512   0.918  10.988 -0.0101  0.3183  1.5898
  118OSM    C1212381   3.380   0.958  10.775  0.0529 -0.4747  0.1740
  118OSM   H12A12382   3.423   0.862  10.800 -1.2133 -1.0723  0.1250
  118OSM   H12B12383   3.460   1.013  10.728 -0.4839  0.2373  0.0813
  118OSM    C1112384   3.259   0.950  10.680  0.6363  0.4457  0.2125
  118OSM   H11A12385   3.283   0.915  10.577 -2.3009 -1.8515  0.1839
  118OSM   H11B12386   3.215   1.052  10.666 -0.9172 -0.2726 -0.3542
  118OSM      P12387   3.178   0.699  10.693 -0.2028  0.3954 -0.4006
  118OSM    O1312388   3.287   0.623  10.755  0.1260 -0.0913  0.5454
  118OSM    O1412389   3.045   0.642  10.714  0.3074  0.9652  0.2352
  118OSM    O1112390   3.201   0.700  10.533 -0.1136 -0.0691  0.4615
  118OSM    O1212391   3.177   0.853  10.737 -0.0057 -0.1813  0.3647
  118OSM    C1S12392   3.099   0.770  10.462 -0.6504  0.0653 -0.1941
  118OSM    H1S12393   3.047   0.853  10.514 -3.1847 -0.2198 -2.0371
  118OSM    H1T12394   3.016   0.701  10.437 -1.2421  0.9222 -0.6634
  118OSM     NF12395   3.041   0.899  10.264 -0.2170 -0.5198  0.3453
  118OSM    HNF12396   2.994   0.839  10.200  1.9314 -3.4121  1.2310
  118OSM    C2S12397   3.153   0.833  10.329 -0.0894  0.3168  0.2190
  118OSM    H2S12398   3.229   0.913  10.347  0.8220 -0.3272 -0.6540
  118OSM    C3S12399   3.202   0.718  10.237  0.1246 -0.3539  0.4576
  118OSM    H3S12400   3.106   0.668  10.210 -0.8568 -0.3294  3.5324
  118OSM     O312401   3.293   0.627  10.297  0.2006 -0.0276 -0.6480
  118OSM    HO312402   3.288   0.659  10.387  2.0220  0.1131 -0.5490
  118OSM    C4S12403   3.257   0.768  10.109 -0.5466  0.2377 -0.3343
  118OSM    H4S12404   3.195   0.765  10.018 -0.4101  1.8609 -0.5032
  118OSM    C5S12405   3.380   0.822  10.097  0.0714 -0.0399 -0.3192
  118OSM    H5S12406   3.452   0.814  10.180 -0.8342 -3.0469  0.3124
  118OSM    C6S12407   3.434   0.883   9.968  0.8648 -0.0732 -0.4303
  118OSM    H6S12408   3.540   0.911   9.985  1.2166 -1.1615 -0.6984
  118OSM    H6T12409   3.393   0.985   9.952 -0.1247 -0.2352  0.9438
  118OSM    C7S12410   3.409   0.788   9.848 -0.6540  0.5769 -0.3019
  118OSM    H7S12411   3.300   0.788   9.825 -0.9730 -4.7319 -0.0123
  118OSM    H7T12412   3.441   0.686   9.878 -0.7084  0.9357  1.0758
  118OSM    C8S12413   3.471   0.827   9.721 -0.0779 -0.1885  0.5162
  118OSM    H8S12414   3.579   0.850   9.723 -0.6254  2.7946  0.0981
  118OSM    H8T12415   3.432   0.930   9.713 -0.5830 -0.3273  1.1057
  118OSM    C9S12416   3.426   0.743   9.596 -0.0204 -0.6285 -0.0599
  118OSM    H9S12417   3.319   0.773   9.583 -0.5735 -2.2189  0.6287
  118OSM    H9T12418   3.441   0.636   9.619  0.5631 -1.5724 -4.0962
  118OSM   C10S12419   3.499   0.775   9.469  0.1233 -0.2264 -0.0830
  118OSM   H10S12420   3.607   0.752   9.482  0.0440  0.1127  1.3710
  118OSM   H10T12421   3.490   0.881   9.437  0.7238 -0.1038  0.1274
  118OSM   C11S12422   3.441   0.682   9.357  0.3149  0.0228 -0.2675
  118OSM   H11S12423   3.331   0.692   9.366  0.3538 -1.0802  2.1624
  118OSM   H11T12424   3.443   0.572   9.369 -0.2559  0.1333  1.0184
  118OSM   C12S12425   3.488   0.726   9.216  0.4508 -0.2128  0.0179
  118OSM   H12S12426   3.592   0.697   9.190  1.6223  1.1860  2.7901
  118OSM   H12T12427   3.507   0.836   9.214  0.4664 -0.1169  2.4906
  118OSM   C13S12428   3.379   0.685   9.118 -0.6384  0.4869 -0.7734
  118OSM   H13S12429   3.287   0.743   9.139 -0.9568 -0.2457 -0.1386
  118OSM   H13T12430   3.336   0.585   9.137 -1.5354  1.1064  0.5410
  118OSM   C14S12431   3.406   0.713   8.972 -0.1884 -0.1466  0.1326
  118OSM   H14S12432   3.511   0.735   8.945 -0.1796 -0.3714 -0.0178
  118OSM   H14T12433   3.348   0.805   8.949  0.7313  0.8047  1.4385
  118OSM   C15S12434   3.357   0.613   8.866  0.5475  0.3811 -0.8954
  118OSM   H15S12435   3.248   0.602   8.888  0.3712  1.8818 -0.9132
  118OSM   H15T12436   3.411   0.517   8.878  1.0556  0.7320 -0.3432
  118OSM   C16S12437   3.389   0.647   8.715 -0.1755  0.5441 -0.1662
  118OSM   H16S12438   3.498   0.665   8.709  0.0676  0.0311  1.8811
  118OSM   H16T12439   3.339   0.744   8.695 -0.4567  0.7505  1.4014
  118OSM   C17S12440   3.345   0.543   8.618  0.1990  0.2184  1.1153
  118OSM   H17S12441   3.238   0.518   8.635  0.0485  0.9722  1.3177
  118OSM   H17T12442   3.393   0.448   8.651  1.7314  0.1015 -1.2266
  118OSM   C18S12443   3.377   0.580   8.468 -0.0604 -0.2869 -0.6435
  118OSM   H18S12444   3.339   0.507   8.393 -2.2286 -1.4598  1.4647
  118OSM   H18T12445   3.488   0.586   8.456 -0.2184  0.5100 -1.9210
  118OSM   H18U12446   3.335   0.679   8.442  2.7096  1.3600  0.6298
  118OSM    C1F12447   2.994   1.015  10.301 -0.5261 -0.1788 -0.5163
  118OSM     OF12448   3.043   1.080  10.395 -0.5119 -0.0266 -0.7925
  118OSM    C2F12449   2.872   1.054  10.233 -0.1584  0.0295 -0.7077
  118OSM    H2F12450   2.785   0.998  10.273  0.4387 -1.1032 -0.9540
  118OSM    H2G12451   2.881   1.042  10.123  0.5160  0.5335 -0.7146
  118OSM    C3F12452   2.831   1.198  10.252 -0.0854  0.6268 -0.3494
  118OSM    H3F12453   2.815   1.223  10.360 -1.6516 -0.7664 -0.2270
  118OSM    H3G12454   2.735   1.218  10.199 -1.2415  0.5057  1.5733
  118OSM    C4F12455   2.936   1.292  10.190 -0.6983 -0.4778 -0.8893
  118OSM    H4F12456   2.915   1.272  10.083  1.4737 -1.4518 -1.1885
  118OSM    H4G12457   3.043   1.270  10.210 -0.3163  3.2707  2.4201
  118OSM    C5F12458   2.921   1.446  10.201 -0.2054  0.2605 -0.0162
  118OSM    H5F12459   2.979   1.482  10.288  1.8828 -0.6534 -0.9540
  118OSM    H5G12460   2.818   1.488  10.206  0.7229  2.8069 -0.5631
  118OSM    C6F12461   3.000   1.528  10.094  0.1010 -0.7372  0.3675
  118OSM    H6F12462   2.928   1.553  10.014  0.0044 -0.4177  0.5554
  118OSM    H6G12463   3.082   1.462  10.058 -0.2368 -0.7194 -0.4767
  118OSM    C7F12464   3.040   1.666  10.148  0.0192 -0.0008 -0.9433
  118OSM    H7F12465   3.125   1.648  10.217 -0.0386 -0.1956 -0.9216
  118OSM    H7G12466   2.962   1.700  10.220  1.5527 -2.3088  2.0454
  118OSM    C8F12467   3.079   1.765  10.039 -0.0411 -0.6324 -0.3601
  118OSM    H8F12468   2.995   1.796   9.973 -0.6240  1.1684  1.1423
  118OSM    H8G12469   3.144   1.715   9.964 -0.1790  2.3881 -2.6653
  118OSM    C9F12470   3.136   1.889  10.111  0.7088  0.1563  0.0901
  118OSM    H9F12471   3.070   1.924  10.192 -0.4239 -0.0924 -0.7049
  118OSM   C10F12472   3.245   1.970  10.084  0.5002  1.0118 -0.8430
  118OSM   H10F12473   3.277   2.042  10.160  2.5353 -1.3197  0.6927
  118OSM   C11F12474   3.353   1.944   9.975 -0.9124 -0.0427 -0.1358
  118OSM   H11F12475   3.332   1.845   9.928 -2.0563  1.0416 -2.0523
  118OSM   H11G12476   3.458   1.938  10.011 -0.6304 -1.2544 -1.0621
  118OSM   C12F12477   3.354   2.053   9.873 -0.0732 -0.6288  0.0574
  118OSM   H12F12478   3.426   2.029   9.791 -0.5827  0.2850 -0.6673
  118OSM   H12G12479   3.392   2.144   9.924  2.3190 -0.6540 -1.5137
  118OSM   C13F12480   3.219   2.080   9.800 -0.2643 -1.2708 -0.5843
  118OSM   H13F12481   3.140   2.106   9.873  0.1042  1.8068 -1.1496
  118OSM   H13G12482   3.192   1.984   9.751  0.4568 -1.4262 -0.6968
  118OSM   C14F12483   3.222   2.188   9.689  0.6629  0.5285 -0.5287
  118OSM   H14F12484   3.291   2.272   9.713 -2.5307  2.7821  1.5521
  118OSM   H14G12485   3.120   2.226   9.668 -0.0331 -1.7323 -1.5988
  118OSM   C15F12486   3.291   2.117   9.565 -0.1009  0.0320  0.9625
  118OSM   H15F12487   3.225   2.032   9.538  0.1854 -0.1620  0.8626
  118OSM   H15G12488   3.393   2.079   9.587  0.2932  1.8765  2.5997
  118OSM   C16F12489   3.287   2.220   9.456 -0.1665  0.1163 -0.3833
  118OSM   H16F12490   3.357   2.302   9.484  1.1566  0.1342 -3.3774
  118OSM   H16G12491   3.185   2.263   9.461 -0.1757  0.0056  0.6082
  118OSM   C17F12492   3.309   2.152   9.319 -0.0774  0.1466 -0.4705
  118OSM   H17F12493   3.232   2.072   9.312 -1.2331  0.8496  2.5275
  118OSM   H17G12494   3.411   2.109   9.308 -0.2351  0.2160 -2.8464
  118OSM   C18F12495   3.290   2.247   9.200  0.1141 -0.6444  0.3281
  118OSM   H18F12496   3.275   2.192   9.104 -0.9638  1.5167 -0.8073
  118OSM   H18G12497   3.363   2.328   9.179 -2.3396  1.6617  0.1305
  118OSM   H18H12498   3.195   2.302   9.212  0.2432 -0.0433 -1.2367
  119OSM      N12499   3.073   6.649  10.901  0.3328  0.5662 -0.2507
  119OSM    C1512500   3.158   6.680  11.023  0.3606  0.2783 -0.2377
  119OSM   H15A12501   3.217   6.593  11.051  1.7633  1.3834  0.3534
  119OSM   H15B12502   3.091   6.685  11.108  0.2699 -0.4090 -0.2615
  119OSM   H15C12503   3.234   6.754  11.008  2.6291 -1.8985 -0.1813
  119OSM    C1412504   2.954   6.569  10.956  0.0388  0.0841 -0.3091
  119OSM   H14A12505   2.985   6.466  10.966 -1.6813 -0.7315 -2.4468
  119OSM   H14B12506   2.878   6.560  10.880  1.3642 -1.7477 -1.5184
  119OSM   H14C12507   2.927   6.607  11.053  0.7450 -0.6849  0.1978
  119OSM    C1312508   3.016   6.773  10.848 -0.5602 -0.1612  0.1577
  119OSM   H13A12509   2.939   6.753  10.775  0.7016  0.3345 -1.3639
  119OSM   H13B12510   3.095   6.830  10.802 -0.7382 -0.3298 -0.3626
  119OSM   H13C12511   2.970   6.831  10.926  0.0342  2.7048 -1.4764
  119OSM    C1212512   3.148   6.568  10.796  0.1205  0.0471  0.5877
  119OSM   H12A12513   3.081   6.537  10.717  0.2111  1.7480 -0.2259
  119OSM   H12B12514   3.169   6.471  10.838 -1.2309 -1.3065 -1.6603
  119OSM    C1112515   3.282   6.624  10.753 -0.0042  0.3648  0.1759
  119OSM   H11A12516   3.323   6.533  10.705  0.6540 -0.9664  3.0286
  119OSM   H11B12517   3.350   6.643  10.840 -0.5920  1.6714  0.3825
  119OSM      P12518   3.290   6.722  10.518  0.0829 -0.1480  0.5991
  119OSM    O1312519   3.357   6.594  10.483 -0.2107 -0.0283 -0.1112
  119OSM    O1412520   3.147   6.726  10.478  0.2389 -0.1860  0.4112
  119OSM    O1112521   3.368   6.855  10.467  0.2693 -0.0348  0.0752
  119OSM    O1212522   3.289   6.746  10.678 -0.1409  0.0030  0.4873
  119OSM    C1S12523   3.500   6.859  10.423 -0.9215  0.0144 -0.5904
  119OSM    H1S12524   3.557   6.768  10.450 -1.7036 -0.5665 -0.8542
  119OSM    H1T12525   3.543   6.944  10.481 -2.2793  0.4273 -0.1549
  119OSM     NF12526   3.663   6.886  10.252  0.3760 -0.0734 -0.6441
  119OSM    HNF12527   3.703   6.974  10.230 -0.6509  0.5312 -0.1641
  119OSM    C2S12528   3.518   6.885  10.270  0.2871  0.0831  0.3194
  119OSM    H2S12529   3.475   6.800  10.211  2.0531  1.1811 -2.7646
  119OSM    C3S12530   3.441   7.025  10.235  0.0419  0.2997  1.0165
  119OSM    H3S12531   3.488   7.103  10.298  0.2070  0.2685  0.9323
  119OSM     O312532   3.309   7.027  10.281 -0.2550  0.0641  0.4334
  119OSM    HO312533   3.307   6.964  10.353  0.4570  0.9111  1.2184
  119OSM    C4S12534   3.445   7.056  10.088 -0.6013 -0.9491 -0.7853
  119OSM    H4S12535   3.399   6.975  10.030 -1.6243 -0.9350 -0.0141
  119OSM    C5S12536   3.494   7.161  10.023  0.3246 -0.0289 -0.5186
  119OSM    H5S12537   3.532   7.242  10.087 -2.5335 -1.0827  2.8144
  119OSM    C6S12538   3.506   7.186   9.869  0.3411 -0.2148 -0.2481
  119OSM    H6S12539   3.614   7.166   9.852  0.1162 -0.0786 -2.0138
  119OSM    H6T12540   3.489   7.296   9.859  0.1114  0.2261  3.4646
  119OSM    C7S12541   3.424   7.096   9.781  0.9136  0.4034  0.6007
  119OSM    H7S12542   3.323   7.102   9.827  0.3373  1.1838 -0.7038
  119OSM    H7T12543   3.460   6.992   9.792 -0.5854 -0.1309  0.6843
  119OSM    C8S12544   3.422   7.149   9.639 -0.3806  0.4075  0.7613
  119OSM    H8S12545   3.526   7.157   9.601 -0.6717 -0.1029 -0.1638
  119OSM    H8T12546   3.381   7.252   9.644 -0.3137  0.4438  0.5708
  119OSM    C9S12547   3.348   7.054   9.537 -0.2856 -0.2292  0.1768
  119OSM    H9S12548   3.242   7.042   9.570 -0.3983  1.0914  0.3772
  119OSM    H9T12549   3.390   6.955   9.564  0.0000  0.5204  2.7335
  119OSM   C10S12550   3.368   7.086   9.396 -0.2172  0.0073  0.0158
  119OSM   H10S12551   3.475   7.110   9.379 -0.6626  1.9110 -0.4149
  119OSM   H10T12552   3.306   7.176   9.375 -0.7527 -0.6571 -1.4085
  119OSM   C11S12553   3.323   6.967   9.305  0.1892 -0.4143 -0.6190
  119OSM   H11S12554   3.214   6.957   9.323  0.2794  1.2452  1.3643
  119OSM   H11T12555   3.373   6.872   9.334  1.6441  0.2873 -0.7044
  119OSM   C12S12556   3.356   7.006   9.158  0.0185 -0.3976  0.2973
  119OSM   H12S12557   3.406   6.928   9.098 -0.3089  1.0951 -2.0216
  119OSM   H12T12558   3.419   7.097   9.150 -1.0977  0.3702  0.0385
  119OSM   C13S12559   3.226   7.036   9.089  0.5719  0.1518  0.0815
  119OSM   H13S12560   3.179   7.127   9.131 -1.0820  0.0604 -1.4555
  119OSM   H13T12561   3.153   6.952   9.092 -0.2757  0.8682 -0.0886
  119OSM   C14S12562   3.249   7.071   8.939 -0.2798 -0.0168  0.3945
  119OSM   H14S12563   3.318   6.993   8.898  2.8051  2.2686  0.9174
  119OSM   H14T12564   3.308   7.164   8.929 -0.2277 -0.1817 -1.0652
  119OSM   C15S12565   3.124   7.067   8.856  0.2544 -0.3786  0.1625
  119OSM   H15S12566   3.063   7.159   8.867 -3.7173 -2.8646  1.0361
  119OSM   H15T12567   3.076   6.980   8.907  1.9770 -1.1205  0.6241
  119OSM   C16S12568   3.153   7.051   8.711  0.0576 -0.1309 -0.0455
  119OSM   H16S12569   3.204   6.955   8.689 -1.4665 -0.6953 -1.2898
  119OSM   H16T12570   3.234   7.122   8.685  0.5167 -0.7186 -0.2354
  119OSM   C17S12571   3.024   7.065   8.634 -0.2491 -0.1668 -0.4230
  119OSM   H17S12572   2.973   7.163   8.650 -0.1047  0.0285 -1.1109
  119OSM   H17T12573   2.951   6.988   8.668 -0.0605  0.3127  1.1311
  119OSM   C18S12574   3.060   7.056   8.489  0.1367 -0.0477 -0.0448
  119OSM   H18S12575   3.129   7.137   8.458  1.0667  0.2704  2.6249
  119OSM   H18T12576   2.966   7.059   8.430  0.2584  1.3314 -0.2129
  119OSM   H18U12577   3.109   6.958   8.475 -0.5622 -0.3251 -0.6371
  119OSM    C1F12578   3.742   6.783  10.242 -0.2281 -0.5705  0.2475
  119OSM     OF12579   3.717   6.668  10.263  0.1286 -0.1860 -0.3648
  119OSM    C2F12580   3.882   6.819  10.198  0.2982  0.3023 -0.7920
  119OSM    H2F12581   3.953   6.761  10.261  1.3504  0.7927 -1.5088
  119OSM    H2G12582   3.894   6.926  10.225 -0.7119  0.2059  0.1319
  119OSM    C3F12583   3.911   6.782  10.049 -0.5137 -0.1293  0.5191
  119OSM    H3F12584   4.020   6.801  10.035 -0.5039 -1.0760 -0.8575
  119OSM    H3G12585   3.860   6.850   9.979 -0.8990 -2.7088 -1.8627
  119OSM    C4F12586   3.877   6.638  10.006  0.4011 -0.1072  0.3523
  119OSM    H4F12587   3.772   6.616  10.034 -0.0777  1.4901 -0.0640
  119OSM    H4G12588   3.940   6.569  10.067  1.5377  0.4118 -0.1962
  119OSM    C5F12589   3.895   6.605   9.856 -0.0323 -0.3178  0.1477
  119OSM    H5F12590   3.956   6.689   9.814 -1.9409  0.2941 -1.5677
  119OSM    H5G12591   3.798   6.610   9.802  0.6296 -0.4918 -1.1186
  119OSM    C6F12592   3.980   6.481   9.832 -0.2172  0.0553  0.3071
  119OSM    H6F12593   3.918   6.391   9.852 -0.3393  0.2182  0.6729
  119OSM    H6G12594   4.061   6.470   9.907  0.4482  0.3965 -0.3463
  119OSM    C7F12595   4.028   6.475   9.690 -0.0217 -0.2837  0.2936
  119OSM    H7F12596   4.083   6.572   9.680  0.3212 -0.6819 -2.3107
  119OSM    H7G12597   3.947   6.466   9.615  0.1314 -0.4557  0.1459
  119OSM    C8F12598   4.133   6.359   9.654  0.2642  0.2025 -0.0624
  119OSM    H8F12599   4.144   6.370   9.544 -1.0671  1.1726 -0.1193
  119OSM    H8G12600   4.086   6.261   9.678  1.2958 -0.9552 -2.4276
  119OSM    C9F12601   4.264   6.348   9.720 -0.1558  0.0167 -0.1504
  119OSM    H9F12602   4.261   6.362   9.829  1.8210 -0.7727  0.0409
  119OSM   C10F12603   4.381   6.315   9.661 -0.1450  0.5457  0.1493
  119OSM   H10F12604   4.468   6.310   9.729 -0.7890  1.3242  1.0571
  119OSM   C11F12605   4.415   6.278   9.520 -0.0564  0.4565 -0.2237
  119OSM   H11F12606   4.495   6.351   9.495 -1.4163  1.3148 -2.3414
  119OSM   H11G12607   4.338   6.292   9.440  1.7761 -1.5854 -2.5032
  119OSM   C12F12608   4.451   6.131   9.506  0.3565  0.7526 -0.3126
  119OSM   H12F12609   4.375   6.065   9.554  0.7596 -1.1966 -2.1903
  119OSM   H12G12610   4.552   6.117   9.549  1.0265  0.8322 -1.8146
  119OSM   C13F12611   4.470   6.088   9.355 -0.5139 -0.0885 -0.1907
  119OSM   H13F12612   4.551   6.148   9.310 -0.3866 -0.3124 -0.2611
  119OSM   H13G12613   4.379   6.105   9.294 -0.0723 -1.0346 -1.1506
  119OSM   C14F12614   4.506   5.933   9.356  0.4106  0.0596 -0.3197
  119OSM   H14F12615   4.424   5.886   9.413 -0.2689  1.5299 -0.0348
  119OSM   H14G12616   4.607   5.919   9.401  0.9325 -1.9620 -1.9524
  119OSM   C15F12617   4.500   5.879   9.213  0.0649 -0.2725  0.0221
  119OSM   H15F12618   4.568   5.949   9.160 -0.8849  1.6933  1.2817
  119OSM   H15G12619   4.399   5.873   9.168  0.1160 -0.4267 -0.0737
  119OSM   C16F12620   4.559   5.734   9.204  0.5896  0.2649 -0.1879
  119OSM   H16F12621   4.664   5.750   9.235  0.1497  1.5828  0.7041
  119OSM   H16G12622   4.559   5.707   9.096  1.1233  1.8792 -0.6173
  119OSM   C17F12623   4.503   5.629   9.303 -0.8170 -0.7019 -0.2834
  119OSM   H17F12624   4.516   5.668   9.407 -2.4959 -0.1930 -0.2429
  119OSM   H17G12625   4.574   5.544   9.301 -0.4697 -0.4121 -0.4193
  119OSM   C18F12626   4.357   5.580   9.285  0.3129 -0.1151 -0.0454
  119OSM   H18F12627   4.360   5.493   9.353  0.9289 -0.4022 -0.4232
  119OSM   H18G12628   4.338   5.556   9.178 -1.5510  1.9607 -0.2568
  119OSM   H18H12629   4.287   5.662   9.312 -0.5936 -0.4113 -1.4248
  120OSM      N12630   5.529   4.239  10.663  0.0607  0.3047 -0.3569
  120OSM    C1512631   5.580   4.386  10.641  0.7206  0.1150  0.1709
  120OSM   H15A12632   5.510   4.446  10.585 -0.0849 -0.1281  0.8897
  120OSM   H15B12633   5.670   4.392  10.582 -0.4778  3.2731 -1.6066
  120OSM   H15C12634   5.606   4.428  10.736  1.6940 -2.9891  1.4096
  120OSM    C1412635   5.653   4.170  10.719 -0.2019  0.4916  0.8154
  120OSM   H14A12636   5.730   4.139  10.650  1.4320  2.1258  1.8287
  120OSM   H14B12637   5.617   4.080  10.767  1.5102 -0.2687  0.7389
  120OSM   H14C12638   5.700   4.232  10.793 -0.0580  0.3220  0.8680
  120OSM    C1312639   5.421   4.240  10.768  0.5996  0.0337  0.2571
  120OSM   H13A12640   5.447   4.277  10.866 -0.1894  0.6515  0.2414
  120OSM   H13B12641   5.381   4.141  10.786 -0.2972  0.0243 -1.6022
  120OSM   H13C12642   5.339   4.300  10.732  0.0094  0.5288  2.2979
  120OSM    C1212643   5.489   4.185  10.530  1.1795  0.4281  0.1136
  120OSM   H12A12644   5.573   4.187  10.461  1.1114  0.5947  0.0349
  120OSM   H12B12645   5.417   4.255  10.490 -0.2143 -1.9992 -1.8955
  120OSM    C1112646   5.424   4.045  10.520  0.6209  0.3596  0.5633
  120OSM   H11A12647   5.491   3.969  10.565  0.1581 -0.9458 -0.8763
  120OSM   H11B12648   5.409   4.029  10.412  1.3833 -0.3686  0.5657
  120OSM      P12649   5.218   3.932  10.638  0.1541 -0.0614 -0.1936
  120OSM    O1312650   5.303   3.867  10.737 -0.3864  0.8539 -0.3331
  120OSM    O1412651   5.086   3.977  10.681 -0.3182 -0.3507  0.5991
  120OSM    O1112652   5.200   3.830  10.519  0.2509  0.0412 -0.0386
  120OSM    O1212653   5.290   4.055  10.577 -0.0195  0.1490  0.0800
  120OSM    C1S12654   5.113   3.866  10.410  0.1864  0.4546  0.0301
  120OSM    H1S12655   5.100   3.976  10.403  2.4262  0.8325  0.9737
  120OSM    H1T12656   5.015   3.814  10.418 -0.8117  2.2580 -0.0169
  120OSM     NF12657   5.080   3.874  10.173  0.1211  0.5975 -0.8877
  120OSM    HNF12658   5.032   3.793  10.139  0.0127  1.0082 -1.7524
  120OSM    C2S12659   5.178   3.826  10.269 -0.0282  0.0840 -0.4875
  120OSM    H2S12660   5.281   3.866  10.253  0.9074 -2.1478 -0.4208
  120OSM    C3S12661   5.202   3.669  10.265 -0.3978 -0.3434  0.1366
  120OSM    H3S12662   5.107   3.618  10.294 -1.8765  1.0683 -1.9493
  120OSM     O312663   5.308   3.621  10.347  0.4994 -0.4300 -0.1772
  120OSM    HO312664   5.288   3.675  10.424 -1.0673  0.1770 -0.9813
  120OSM    C4S12665   5.238   3.625  10.121 -0.1956 -0.0168 -0.2586
  120OSM    H4S12666   5.340   3.656  10.093 -1.5239  3.3644 -1.9937
  120OSM    C5S12667   5.175   3.542  10.033 -0.0470  0.1722 -0.5740
  120OSM    H5S12668   5.078   3.498  10.062 -0.9049  2.0481 -0.4253
  120OSM    C6S12669   5.236   3.498   9.902 -0.0007 -0.4681 -1.5750
  120OSM    H6S12670   5.196   3.395   9.895 -3.1664  0.4566  0.7683
  120OSM    H6T12671   5.347   3.501   9.903  0.0918 -2.4316  0.6912
  120OSM    C7S12672   5.178   3.577   9.782 -0.4877 -0.2666  0.4821
  120OSM    H7S12673   5.222   3.677   9.767 -0.5810 -0.5542 -2.3421
  120OSM    H7T12674   5.069   3.593   9.799  0.0133  2.3512  1.6285
  120OSM    C8S12675   5.209   3.513   9.634 -0.2121  0.6384 -0.4228
  120OSM    H8S12676   5.162   3.412   9.635 -2.5621  1.6587 -0.4275
  120OSM    H8T12677   5.318   3.509   9.611 -0.0379  0.9984  0.3164
  120OSM    C9S12678   5.132   3.594   9.528 -0.9889  0.8442 -0.1890
  120OSM    H9S12679   5.161   3.701   9.531 -1.2581  0.8976  1.3622
  120OSM    H9T12680   5.027   3.585   9.562 -0.7138 -3.2529  0.0920
  120OSM   C10S12681   5.130   3.530   9.384  1.1042 -0.1298  0.0891
  120OSM   H10S12682   5.102   3.423   9.398  0.1018  0.4303  3.0942
  120OSM   H10T12683   5.233   3.537   9.341  0.3004 -1.8293 -2.3677
  120OSM   C11S12684   5.033   3.593   9.277  0.1904  0.1661  0.2096
  120OSM   H11S12685   5.063   3.699   9.262 -0.5331  0.5727  1.4275
  120OSM   H11T12686   4.932   3.596   9.324 -1.0172 -2.2026 -2.0441
  120OSM   C12S12687   5.036   3.516   9.145 -0.3563  0.2231 -0.4809
  120OSM   H12S12688   4.967   3.431   9.166 -0.0164  0.1967  0.6231
  120OSM   H12T12689   5.128   3.472   9.101 -2.3244 -2.7726 -1.9463
  120OSM   C13S12690   4.964   3.590   9.038 -0.4894 -0.2392  0.2845
  120OSM   H13S12691   5.011   3.689   9.021 -3.0331  1.2876  1.5648
  120OSM   H13T12692   4.859   3.606   9.071 -0.0503 -1.9151  2.7345
  120OSM   C14S12693   4.982   3.505   8.911  0.1916 -0.7961  0.6080
  120OSM   H14S12694   4.922   3.413   8.927  0.4744 -1.0939 -0.0380
  120OSM   H14T12695   5.087   3.470   8.905 -0.3494 -2.4199  0.2386
  120OSM   C15S12696   4.946   3.588   8.788 -0.2303 -0.0103  0.1616
  120OSM   H15S12697   4.986   3.691   8.781  0.0457 -0.1910 -1.3358
  120OSM   H15T12698   4.836   3.603   8.789 -0.3799 -0.2909 -2.9423
  120OSM   C16S12699   4.972   3.514   8.659  0.8067 -0.8046 -0.3251
  120OSM   H16S12700   4.935   3.412   8.679 -0.7816  0.0437  1.3544
  120OSM   H16T12701   5.080   3.496   8.642  1.0499 -1.1271  1.3650
  120OSM   C17S12702   4.910   3.578   8.539 -0.0928 -0.6256  0.3424
  120OSM   H17S12703   4.831   3.652   8.565  0.7948  0.4905 -0.0681
  120OSM   H17T12704   4.867   3.506   8.467 -1.4055  0.0229  0.4353
  120OSM   C18S12705   5.010   3.661   8.450  0.5298  0.3506  0.1990
  120OSM   H18S12706   5.044   3.740   8.520 -0.9913  0.7260  0.5439
  120OSM   H18T12707   4.962   3.684   8.352 -0.2218 -1.6997  0.0405
  120OSM   H18U12708   5.098   3.595   8.434 -1.6453 -2.3726 -1.3623
  120OSM    C1F12709   5.069   4.010  10.140  0.7193  0.3983  0.1739
  120OSM     OF12710   5.129   4.098  10.197  0.4898  0.0399  0.0052
  120OSM    C2F12711   4.981   4.048  10.025 -0.7943 -0.2609  0.1499
  120OSM    H2F12712   5.032   4.136   9.980  0.7050 -1.6366 -0.9547
  120OSM    H2G12713   4.891   4.096  10.069  0.4614  0.2719  2.2795
  120OSM    C3F12714   4.966   3.938   9.912  0.3263  0.3215 -0.3941
  120OSM    H3F12715   4.872   3.881   9.925  1.8672 -2.3627 -0.2525
  120OSM    H3G12716   5.045   3.860   9.914  0.3687  0.3588  2.5252
  120OSM    C4F12717   4.958   3.995   9.766 -0.1768  0.7691 -1.0110
  120OSM    H4F12718   5.031   4.078   9.762 -0.4413  1.1380  0.6382
  120OSM    H4G12719   4.854   4.033   9.749 -0.5811  1.2578  1.9505
  120OSM    C5F12720   4.984   3.885   9.664  0.0754  0.0998  0.2891
  120OSM    H5F12721   4.902   3.810   9.668  0.7168 -0.6896 -0.9566
  120OSM    H5G12722   5.070   3.821   9.693 -0.4448 -1.3135 -1.1743
  120OSM    C6F12723   4.999   3.938   9.523 -0.4423  0.6261 -0.7251
  120OSM    H6F12724   5.067   3.872   9.464 -1.0211 -0.8009  0.1589
  120OSM    H6G12725   5.049   4.035   9.540 -0.3313  0.3706  0.4356
  120OSM    C7F12726   4.863   3.953   9.456 -0.1399  0.2162  0.4670
  120OSM    H7F12727   4.804   4.034   9.504 -0.0532  1.4259 -1.3982
  120OSM    H7G12728   4.807   3.857   9.464 -0.8850  0.6997  1.3671
  120OSM    C8F12729   4.889   3.996   9.305  0.0497  0.0206 -0.5904
  120OSM    H8F12730   4.906   3.898   9.257  3.4219 -0.7537  1.7849
  120OSM    H8G12731   4.979   4.061   9.300  1.2901 -1.6993 -1.1207
  120OSM    C9F12732   4.768   4.068   9.250  0.8849 -0.0576  0.1059
  120OSM    H9F12733   4.710   4.135   9.316 -0.8788 -0.1777 -1.2642
  120OSM   C10F12734   4.719   4.050   9.128 -0.4086  0.2849 -0.2961
  120OSM   H10F12735   4.624   4.094   9.096 -1.1136 -1.6557 -0.9923
  120OSM   C11F12736   4.773   3.961   9.023 -0.3077 -0.3536 -0.0500
  120OSM   H11F12737   4.715   3.866   9.024  0.5780 -0.9793  2.6815
  120OSM   H11G12738   4.877   3.924   9.039  0.0062  0.7058  0.4326
  120OSM   C12F12739   4.768   4.027   8.885 -0.4711  0.1885  0.9093
  120OSM   H12F12740   4.835   4.115   8.889  0.7146 -0.7019  1.2625
  120OSM   H12G12741   4.665   4.057   8.856 -0.5084  1.1976  2.0204
  120OSM   C13F12742   4.834   3.932   8.785  0.4985  0.7688 -0.4822
  120OSM   H13F12743   4.781   3.836   8.798  1.0231  0.6217  0.6027
  120OSM   H13G12744   4.939   3.917   8.818  0.2338 -0.3483 -0.1144
  120OSM   C14F12745   4.844   3.973   8.634 -0.1697  0.5544 -0.0369
  120OSM   H14F12746   4.906   3.899   8.579  1.1854  1.2119  0.5412
  120OSM   H14G12747   4.902   4.068   8.639  0.2241  0.2762  0.8197
  120OSM   C15F12748   4.711   4.007   8.568 -0.2046 -0.4864  0.1746
  120OSM   H15F12749   4.684   4.093   8.633  1.2204  0.5016 -0.4694
  120OSM   H15G12750   4.641   3.921   8.566 -0.8313 -0.0226  1.3820
  120OSM   C16F12751   4.729   4.057   8.424  0.6794 -0.6302  0.4283
  120OSM   H16F12752   4.819   4.120   8.432 -0.0632  0.6005 -0.5007
  120OSM   H16G12753   4.639   4.114   8.391  0.1280 -1.5057  0.3917
  120OSM   C17F12754   4.759   3.943   8.322 -0.3981  0.1003  1.2514
  120OSM   H17F12755   4.671   3.878   8.301  0.9876 -1.2956 -0.5164
  120OSM   H17G12756   4.834   3.875   8.368 -0.7463 -1.1985 -0.0268
  120OSM   C18F12757   4.811   3.992   8.188  0.6713 -0.6529  0.5729
  120OSM   H18F12758   4.729   4.026   8.123 -0.0550  0.1933  1.8902
  120OSM   H18G12759   4.881   3.921   8.138  0.8902 -0.5736  0.7629
  120OSM   H18H12760   4.876   4.080   8.205 -0.7169  0.0902  2.3727
  121OSM      N12761   1.593   0.031  10.197 -0.2601  0.0875  0.1694
  121OSM    C1512762   1.453  -0.002  10.238  0.2511 -0.2235  0.3125
  121OSM   H15A12763   1.406   0.074  10.299 -1.4441 -0.7704 -0.2649
  121OSM   H15B12764   1.449  -0.096  10.291 -1.4220  0.4609  1.5066
  121OSM   H15C12765   1.388  -0.015  10.153  0.5391  0.0397  0.0525
  121OSM    C1412766   1.652  -0.078  10.116 -0.6065  0.7816 -0.1125
  121OSM   H14A12767   1.650  -0.173  10.167  0.5686 -0.0919 -1.6178
  121OSM   H14B12768   1.755  -0.064  10.087  0.6485  1.9172  4.1684
  121OSM   H14C12769   1.596  -0.096  10.026 -1.6105  0.6470  0.5180
  121OSM    C1312770   1.591   0.158  10.117  0.4105  0.0361  0.0397
  121OSM   H13A12771   1.591   0.236  10.192  0.1340 -0.3480  0.4406
  121OSM   H13B12772   1.509   0.173  10.048 -1.0959 -0.2739  1.7135
  121OSM   H13C12773   1.688   0.164  10.071 -0.8159 -0.0886 -2.7661
  121OSM    C1212774   1.674   0.045  10.328 -0.6164  0.8138  0.3320
  121OSM   H12A12775   1.653  -0.034  10.398 -0.8745  0.4496 -0.1519
  121OSM   H12B12776   1.636   0.132  10.380  0.2615  0.5353  1.4741
  121OSM    C1112777   1.821   0.063  10.304 -0.2558  0.6590 -0.2528
  121OSM   H11A12778   1.862  -0.030  10.261  1.8751  1.7456 -0.6979
  121OSM   H11B12779   1.869   0.065  10.404 -1.5291 -3.3112  0.6073
  121OSM      P12780   1.923   0.301  10.265 -0.2022  0.2423  0.7050
  121OSM    O1312781   1.825   0.398  10.322  0.4096 -0.3570 -0.2585
  121OSM    O1412782   2.041   0.277  10.351 -0.0407  0.3429 -0.0265
  121OSM    O1112783   1.960   0.354  10.116 -0.0250  0.5033 -0.4415
  121OSM    O1212784   1.849   0.175  10.220 -0.2107 -0.6421  0.0133
  121OSM    C1S12785   2.065   0.300  10.034 -0.2723 -0.3949 -0.0592
  121OSM    H1S12786   2.039   0.192  10.023 -0.8039 -0.3908  1.0525
  121OSM    H1T12787   2.166   0.306  10.079  0.0895 -2.5184 -0.4518
  121OSM     NF12788   2.173   0.300   9.804  0.9191  0.1235 -0.4719
  121OSM    HNF12789   2.228   0.355   9.742 -0.0966 -1.1310 -2.5646
  121OSM    C2S12790   2.083   0.370   9.894  0.4320  0.2857 -0.3928
  121OSM    H2S12791   1.985   0.355   9.845  0.6262  1.4726 -1.1831
  121OSM    C3S12792   2.106   0.526   9.901 -0.5039  0.8666 -0.0252
  121OSM    H3S12793   2.210   0.563   9.893  0.3488 -1.8205 -4.3297
  121OSM     O312794   2.063   0.579  10.028  0.0666  0.6733 -0.3439
  121OSM    HO312795   2.006   0.509  10.059  1.0682  0.7788  1.9505
  121OSM    C4S12796   2.053   0.596   9.782  0.3692 -0.1320 -0.7835
  121OSM    H4S12797   2.122   0.611   9.698  0.6723  4.0607  0.0388
  121OSM    C5S12798   1.932   0.637   9.762  0.7754 -0.3289  0.4008
  121OSM    H5S12799   1.869   0.622   9.851  1.0092 -2.5956  0.2435
  121OSM    C6S12800   1.861   0.703   9.649  0.7758 -0.1928  0.0499
  121OSM    H6S12801   1.834   0.808   9.671 -0.2754 -0.7806  1.7847
  121OSM    H6T12802   1.767   0.645   9.634  0.3293  0.4107  0.4754
  121OSM    C7S12803   1.954   0.703   9.528 -0.1422  0.9332 -0.2459
  121OSM    H7S12804   1.987   0.600   9.504 -3.6777 -0.1717 -0.9348
  121OSM    H7T12805   2.052   0.753   9.543  0.6409 -0.1040 -1.6447
  121OSM    C8S12806   1.886   0.748   9.402  0.7282 -0.6675  0.2659
  121OSM    H8S12807   1.832   0.844   9.421 -2.1374 -1.6584 -1.9837
  121OSM    H8T12808   1.793   0.689   9.383 -2.1198  3.0353  1.4586
  121OSM    C9S12809   1.979   0.788   9.290  0.3120 -0.1924  0.1822
  121OSM    H9S12810   2.010   0.707   9.221  0.4704  1.9522 -2.4295
  121OSM    H9T12811   2.074   0.840   9.316  0.0395  0.4593 -0.1027
  121OSM   C10S12812   1.913   0.896   9.194  0.3624 -0.2700 -0.1434
  121OSM   H10S12813   1.918   0.998   9.237 -2.9700  0.3284 -0.8294
  121OSM   H10T12814   1.805   0.867   9.195  0.9383 -2.8469 -1.4189
  121OSM   C11S12815   1.964   0.891   9.051  0.5566  0.0629  0.1975
  121OSM   H11S12816   1.965   0.789   9.006  0.6254  0.5121 -0.8383
  121OSM   H11T12817   2.065   0.936   9.049  0.1664  0.9380 -0.2517
  121OSM   C12S12818   1.863   0.984   8.966 -0.3063 -0.7723 -0.5775
  121OSM   H12S12819   1.872   1.089   9.001  0.4688 -0.6517 -1.1291
  121OSM   H12T12820   1.759   0.947   8.983  0.4298 -2.2931  0.8457
  121OSM   C13S12821   1.888   0.983   8.815 -0.2116 -0.1055 -0.3822
  121OSM   H13S12822   1.846   0.884   8.785  0.5481 -1.0005  1.3788
  121OSM   H13T12823   1.998   0.983   8.805  0.0279 -1.4933  1.6102
  121OSM   C14S12824   1.815   1.094   8.743 -0.6273 -0.3478 -0.3290
  121OSM   H14S12825   1.715   1.107   8.790 -1.3536 -1.2330 -1.5653
  121OSM   H14T12826   1.792   1.060   8.640 -1.6110  0.8170 -0.5155
  121OSM   C15S12827   1.898   1.227   8.742  0.2582 -0.2624  0.0083
  121OSM   H15S12828   1.985   1.218   8.811 -0.4043 -0.5453  0.8232
  121OSM   H15T12829   1.828   1.309   8.768  2.0349  0.7565  1.9566
  121OSM   C16S12830   1.957   1.281   8.609  0.0264 -0.0751  0.6029
  121OSM   H16S12831   2.024   1.366   8.632 -1.3829  1.1718  0.2711
  121OSM   H16T12832   1.861   1.304   8.557 -0.2232 -1.0458  0.6162
  121OSM   C17S12833   2.035   1.173   8.527  0.2206 -0.1769 -0.4316
  121OSM   H17S12834   1.974   1.081   8.511 -0.0649  0.1402 -1.2228
  121OSM   H17T12835   2.111   1.132   8.596  3.2885  1.6868 -2.4785
  121OSM   C18S12836   2.086   1.230   8.399  0.3810  0.1662  0.0585
  121OSM   H18S12837   2.133   1.330   8.413 -0.0258  0.6911 -1.9465
  121OSM   H18T12838   2.004   1.246   8.326  1.0048  0.1139 -0.6674
  121OSM   H18U12839   2.154   1.160   8.347 -1.4345 -0.9312 -0.9398
  121OSM    C1F12840   2.191   0.168   9.787  1.0464  0.6554 -0.1150
  121OSM     OF12841   2.105   0.078   9.827 -1.1504 -0.4380 -0.1028
  121OSM    C2F12842   2.313   0.116   9.722 -0.4965  0.4554 -0.4982
  121OSM    H2F12843   2.361   0.045   9.793 -2.4934 -0.7490 -0.2449
  121OSM    H2G12844   2.385   0.196   9.695  0.3741 -0.3168 -0.5331
  121OSM    C3F12845   2.274   0.047   9.591  0.7621  0.6725  0.3812
  121OSM    H3F12846   2.207   0.116   9.536  0.2214  1.2246  1.6996
  121OSM    H3G12847   2.214  -0.044   9.613 -0.8557  2.0153  1.8169
  121OSM    C4F12848   2.395  -0.004   9.519 -0.4529 -0.1529  0.6313
  121OSM    H4F12849   2.475  -0.056   9.577  1.0137  1.8277  0.4746
  121OSM    H4G12850   2.449   0.080   9.471 -0.6043  0.9101  2.2297
  121OSM    C5F12851   2.364  -0.100   9.408  0.5261  0.3652  0.0090
  121OSM    H5F12852   2.298  -0.184   9.440  1.2446 -0.3988 -0.4898
  121OSM    H5G12853   2.455  -0.154   9.374  0.3714  0.1392 -0.0459
  121OSM    C6F12854   2.285  -0.023   9.297 -0.2498  0.0488  0.0791
  121OSM    H6F12855   2.329   0.073   9.260  0.3000  0.6175  2.0940
  121OSM    H6G12856   2.189   0.014   9.340  0.3690  1.6274  0.1885
  121OSM    C7F12857   2.238  -0.116   9.184  0.5659 -0.9588  0.6615
  121OSM    H7F12858   2.160  -0.178   9.232 -2.6193  0.0961 -2.6680
  121OSM    H7G12859   2.318  -0.178   9.137 -1.2984 -1.6235 -1.8665
  121OSM    C8F12860   2.181  -0.035   9.066 -0.3588  0.7487  0.6102
  121OSM    H8F12861   2.265   0.028   9.030 -0.2739  0.2436 -0.1044
  121OSM    H8G12862   2.102   0.033   9.102 -1.2222  0.4563 -0.6439
  121OSM    C9F12863   2.127  -0.124   8.952  0.0288 -0.7151 -0.2851
  121OSM    H9F12864   2.088  -0.223   8.979 -0.7514  0.0479  1.5518
  121OSM   C10F12865   2.135  -0.092   8.821  0.5917 -0.4453  0.1572
  121OSM   H10F12866   2.082  -0.159   8.752  0.7194  1.0125 -1.4270
  121OSM   C11F12867   2.173   0.046   8.765  0.5118 -0.2181  0.2228
  121OSM   H11F12868   2.278   0.037   8.729  0.3455 -2.7193  0.1612
  121OSM   H11G12869   2.186   0.123   8.844  0.7266  1.0370 -1.0058
  121OSM   C12F12870   2.088   0.094   8.645  0.1463  0.1764 -0.6811
  121OSM   H12F12871   2.007   0.163   8.677 -0.6632  0.0065 -2.2697
  121OSM   H12G12872   2.044   0.004   8.596 -0.1718  0.3639 -0.7409
  121OSM   C13F12873   2.172   0.175   8.538 -0.0764  0.0748 -0.2976
  121OSM   H13F12874   2.244   0.105   8.491  1.6781  0.1466  2.0751
  121OSM   H13G12875   2.234   0.250   8.590 -1.3066 -0.2176  1.7028
  121OSM   C14F12876   2.078   0.233   8.430 -0.4766  0.4425 -0.1718
  121OSM   H14F12877   2.012   0.312   8.471  0.0922  0.9936 -0.3117
  121OSM   H14G12878   2.009   0.152   8.398  0.1764  0.2211 -1.0349
  121OSM   C15F12879   2.160   0.285   8.312  0.0248  0.1737  0.0322
  121OSM   H15F12880   2.229   0.200   8.293  1.4535  1.0165  1.1845
  121OSM   H15G12881   2.206   0.378   8.354 -0.5319  0.5004 -0.0655
  121OSM   C16F12882   2.077   0.319   8.186  0.4048  0.3780  0.8735
  121OSM   H16F12883   2.009   0.233   8.169  3.2060 -1.7889 -0.0701
  121OSM   H16G12884   2.139   0.345   8.097  2.8972 -0.0671  2.3710
  121OSM   C17F12885   1.985   0.439   8.199 -0.1996 -0.5461  0.2309
  121OSM   H17F12886   2.072   0.507   8.214  0.4729 -1.3799  0.2210
  121OSM   H17G12887   1.919   0.449   8.287 -0.0621  2.6582  0.0847
  121OSM   C18F12888   1.913   0.469   8.067 -0.2009 -0.9292  0.2445
  121OSM   H18F12889   1.946   0.401   7.985 -0.8720  1.6833 -2.3894
  121OSM   H18G12890   1.932   0.572   8.029 -2.6977 -0.0597  1.1336
  121OSM   H18H12891   1.802   0.463   8.072 -0.3364  1.4637  1.7696
  122OSM      N12892   3.183   5.933  10.433 -0.1234  1.1051  0.0875
  122OSM    C1512893   3.303   5.901  10.362 -0.5966 -0.2206  0.2441
  122OSM   H15A12894   3.288   5.845  10.271  3.4760 -0.8826 -0.2406
  122OSM   H15B12895   3.378   5.842  10.414  0.3453  0.4524 -0.3077
  122OSM   H15C12896   3.357   5.991  10.336 -1.8632  0.7856  1.0161
  122OSM    C1412897   3.122   5.805  10.470  0.9196  0.5034  0.2447
  122OSM   H14A12898   3.080   5.754  10.385  1.9076  0.7024 -0.3696
  122OSM   H14B12899   3.039   5.823  10.537  1.3784  0.2689  0.8910
  122OSM   H14C12900   3.188   5.737  10.522  1.0528 -0.2033 -0.8146
  122OSM    C1312901   3.226   6.000  10.565 -0.1130 -0.0150  0.0833
  122OSM   H13A12902   3.284   6.086  10.536  0.9730 -1.2106 -1.4924
  122OSM   H13B12903   3.279   5.929  10.627 -2.4763 -1.0731  1.0036
  122OSM   H13C12904   3.141   6.017  10.628  0.6893 -1.7872  1.7484
  122OSM    C1212905   3.082   6.019  10.355 -0.5630  0.4338  0.6644
  122OSM   H12A12906   3.059   5.980  10.257  2.5120 -0.6487  0.2527
  122OSM   H12B12907   3.140   6.107  10.334  1.0744 -0.8102 -0.3077
  122OSM    C1112908   2.954   6.063  10.421 -0.4853 -0.0428  0.9457
  122OSM   H11A12909   2.899   6.122  10.345  0.9236  0.9865  0.6963
  122OSM   H11B12910   2.965   6.123  10.513 -3.7856  0.4946  1.1173
  122OSM      P12911   2.737   5.916  10.399  0.4680 -0.2291  0.0552
  122OSM    O1312912   2.690   5.785  10.459 -0.2422 -0.7398 -0.1671
  122OSM    O1412913   2.638   6.031  10.401  0.5004 -0.7390 -0.1633
  122OSM    O1112914   2.787   5.891  10.249  0.1011  0.0402  0.0188
  122OSM    O1212915   2.870   5.950  10.467 -0.5839  0.7070 -0.2979
  122OSM    C1S12916   2.726   5.774  10.184  0.7811 -0.7770 -0.3600
  122OSM    H1S12917   2.615   5.778  10.187  0.7814 -0.4673 -0.6619
  122OSM    H1T12918   2.754   5.683  10.241  1.5495  1.5565  3.2832
  122OSM     NF12919   2.747   5.617   9.995 -0.1517  0.0668 -0.4315
  122OSM    HNF12920   2.814   5.544   9.990 -0.2828 -0.2781  1.7624
  122OSM    C2S12921   2.795   5.744  10.038 -0.0750 -0.6786 -0.3387
  122OSM    H2S12922   2.745   5.818   9.972 -1.1847 -2.3036 -1.3981
  122OSM    C3S12923   2.948   5.766  10.031  0.4580 -0.2013  0.2709
  122OSM    H3S12924   2.988   5.676  10.082 -0.6578  0.1166  1.7755
  122OSM     O312925   2.989   5.887  10.094  0.1918  0.3011 -0.5475
  122OSM    HO312926   2.917   5.907  10.154  0.1535 -2.2594  0.3830
  122OSM    C4S12927   3.003   5.762   9.886  0.1873  0.4743 -0.7616
  122OSM    H4S12928   2.954   5.838   9.823 -0.6531  0.0567 -0.6211
  122OSM    C5S12929   3.092   5.674   9.822  0.3986  0.0654  0.5143
  122OSM    H5S12930   3.134   5.584   9.869  0.1227 -0.6152 -0.5120
  122OSM    C6S12931   3.134   5.694   9.677 -0.0569  0.2256 -0.8835
  122OSM    H6S12932   3.234   5.648   9.662 -0.3854  0.3236 -3.8744
  122OSM    H6T12933   3.159   5.800   9.659  1.1864  0.7849  3.0670
  122OSM    C7S12934   3.027   5.645   9.577 -0.4085  0.2933 -0.3832
  122OSM    H7S12935   2.935   5.707   9.590 -0.2893  0.3759  0.0904
  122OSM    H7T12936   3.001   5.538   9.594  0.5612 -0.0577 -1.0264
  122OSM    C8S12937   3.087   5.649   9.432  0.0553 -0.6559  0.3974
  122OSM    H8S12938   3.186   5.600   9.443  1.9907  2.6371 -0.9122
  122OSM    H8T12939   3.104   5.755   9.402  0.8767 -0.6029  1.0253
  122OSM    C9S12940   3.001   5.563   9.342  0.4445 -0.5979 -0.1732
  122OSM    H9S12941   2.899   5.605   9.326  1.4069  1.6583 -0.8766
  122OSM    H9T12942   2.998   5.461   9.384 -0.5703 -1.0565 -1.3009
  122OSM   C10S12943   3.050   5.543   9.191  0.6492  0.1552  0.4315
  122OSM   H10S12944   3.029   5.441   9.150 -1.4544 -0.0065  1.7260
  122OSM   H10T12945   3.159   5.561   9.191  0.6586  0.1930 -1.3929
  122OSM   C11S12946   2.988   5.647   9.094  0.2869 -0.6101 -0.0247
  122OSM   H11S12947   3.019   5.744   9.137  0.3575 -0.8464  0.4615
  122OSM   H11T12948   2.877   5.643   9.084  0.3288 -0.5036 -0.5836
  122OSM   C12S12949   3.040   5.637   8.954 -0.6378  0.3943 -0.1510
  122OSM   H12S12950   3.053   5.530   8.925  2.1317  0.7610 -0.6127
  122OSM   H12T12951   3.139   5.689   8.949 -1.2471  1.5257 -0.8995
  122OSM   C13S12952   2.950   5.710   8.852 -0.6727 -0.1389 -0.5989
  122OSM   H13S12953   2.978   5.817   8.861  4.4682 -1.3717  1.9535
  122OSM   H13T12954   2.840   5.694   8.860 -0.9362  0.3857 -2.6034
  122OSM   C14S12955   2.993   5.689   8.704 -0.2870 -0.5514  1.3373
  122OSM   H14S12956   2.963   5.583   8.693 -2.7243  0.2346 -0.7183
  122OSM   H14T12957   3.101   5.713   8.695 -0.7578  2.6671  2.6131
  122OSM   C15S12958   2.907   5.770   8.601 -0.0189 -1.0745 -0.4850
  122OSM   H15S12959   2.948   5.741   8.502  1.6560  2.2370 -0.9254
  122OSM   H15T12960   2.925   5.878   8.618  0.6731 -1.2247 -0.2610
  122OSM   C16S12961   2.756   5.727   8.600  0.5862 -0.0849  0.2773
  122OSM   H16S12962   2.706   5.745   8.698 -2.0534 -0.5355 -0.9142
  122OSM   H16T12963   2.757   5.618   8.582  1.6388 -0.1090  0.4443
  122OSM   C17S12964   2.672   5.795   8.495 -0.0575 -0.7740  0.2427
  122OSM   H17S12965   2.684   5.905   8.509  2.7813 -0.8063 -1.2789
  122OSM   H17T12966   2.563   5.779   8.510 -0.0476  0.7919  2.4355
  122OSM   C18S12967   2.716   5.770   8.354 -0.5158 -0.1023 -0.2269
  122OSM   H18S12968   2.649   5.823   8.282  1.1732  2.7752  0.1819
  122OSM   H18T12969   2.717   5.660   8.337  1.6723 -0.3611  1.2759
  122OSM   H18U12970   2.817   5.807   8.327  0.3141 -3.3032 -1.9574
  122OSM    C1F12971   2.618   5.582   9.968 -0.3414  0.1919  0.2993
  122OSM     OF12972   2.542   5.678   9.943  1.0187  0.4966  0.3694
  122OSM    C2F12973   2.586   5.436   9.963 -0.5992 -0.8422 -0.3386
  122OSM    H2F12974   2.537   5.423  10.061  2.2910 -1.2705  1.1451
  122OSM    H2G12975   2.675   5.373   9.946 -0.2932 -0.9664  1.5140
  122OSM    C3F12976   2.486   5.411   9.844  0.2519  0.3434  0.4346
  122OSM    H3F12977   2.412   5.493   9.855 -1.6192 -1.2253  0.0994
  122OSM    H3G12978   2.440   5.310   9.854 -0.5583  0.9067  3.9177
  122OSM    C4F12979   2.554   5.417   9.706 -0.8480 -0.4720  0.1236
  122OSM    H4F12980   2.627   5.334   9.703 -0.1611  0.0760  0.9908
  122OSM    H4G12981   2.600   5.518   9.695 -0.3289 -0.7777 -0.6082
  122OSM    C5F12982   2.466   5.402   9.585 -0.2592  0.0489  0.0726
  122OSM    H5F12983   2.392   5.484   9.591  1.2847  1.4888  0.1835
  122OSM    H5G12984   2.430   5.296   9.584  1.1595 -0.4748  0.9359
  122OSM    C6F12985   2.533   5.420   9.443  0.3557  0.6331 -0.5330
  122OSM    H6F12986   2.571   5.521   9.419  2.3586 -0.1342 -0.7582
  122OSM    H6G12987   2.445   5.407   9.377 -0.0217 -1.5122  0.2817
  122OSM    C7F12988   2.642   5.311   9.420  0.4394  0.3120  0.3561
  122OSM    H7F12989   2.617   5.224   9.483  1.2648  1.4953  2.4009
  122OSM    H7G12990   2.746   5.336   9.451  0.4112 -0.1908  0.8593
  122OSM    C8F12991   2.646   5.265   9.271 -0.3949 -0.4300  0.1659
  122OSM    H8F12992   2.546   5.229   9.241  0.6746 -1.9654 -1.8437
  122OSM    H8G12993   2.712   5.176   9.264  0.1639  0.0171 -0.3982
  122OSM    C9F12994   2.695   5.387   9.188 -0.3446 -0.4919 -0.2727
  122OSM    H9F12995   2.800   5.404   9.216 -0.1819 -0.4141 -0.9102
  122OSM   C10F12996   2.625   5.459   9.093  0.1728  0.1705 -0.3433
  122OSM   H10F12997   2.679   5.541   9.043 -1.4113  1.7463  0.4117
  122OSM   C11F12998   2.479   5.441   9.054 -0.3416  0.3121 -0.0031
  122OSM   H11F12999   2.426   5.538   9.053 -0.8395  0.0431 -0.7735
  122OSM   H11G13000   2.438   5.372   9.131  0.8687 -0.1897  0.2154
  122OSM   C12F13001   2.470   5.364   8.916  0.1077  0.2732 -0.5491
  122OSM   H12F13002   2.382   5.297   8.921  0.5233 -0.2645 -0.3369
  122OSM   H12G13003   2.558   5.305   8.884 -0.9067 -0.7777 -1.4835
  122OSM   C13F13004   2.455   5.462   8.801  0.4866  0.0692  0.6462
  122OSM   H13F13005   2.535   5.539   8.808  1.4884 -0.7197 -1.4831
  122OSM   H13G13006   2.368   5.521   8.837 -0.2760 -1.7892  1.9999
  122OSM   C14F13007   2.428   5.406   8.663 -0.2804  0.4004  0.0472
  122OSM   H14F13008   2.350   5.327   8.663 -0.7544  0.7971 -2.3587
  122OSM   H14G13009   2.523   5.358   8.630 -1.1483 -0.5656 -1.1569
  122OSM   C15F13010   2.382   5.508   8.559  0.6035 -0.0504  0.5919
  122OSM   H15F13011   2.462   5.583   8.539 -0.1280  0.1987 -1.7010
  122OSM   H15G13012   2.282   5.550   8.579 -0.5558 -2.8529  1.0946
  122OSM   C16F13013   2.366   5.448   8.417  0.4379  0.1806 -0.1016
  122OSM   H16F13014   2.270   5.393   8.422  0.6777 -0.2145  0.2880
  122OSM   H16G13015   2.429   5.357   8.405 -2.2465 -1.8875  0.4837
  122OSM   C17F13016   2.366   5.541   8.293 -0.1546  0.2825  0.0059
  122OSM   H17F13017   2.472   5.573   8.283  0.7079 -2.9186 -2.9517
  122OSM   H17G13018   2.318   5.634   8.332  0.1920  0.0116  1.1356
  122OSM   C18F13019   2.304   5.482   8.167 -0.0480  0.1606  0.1177
  122OSM   H18F13020   2.202   5.438   8.178 -1.0991  2.3502 -0.2460
  122OSM   H18G13021   2.364   5.402   8.118 -1.6460 -0.0401 -1.6408
  122OSM   H18H13022   2.313   5.562   8.091 -0.0859 -1.2282 -1.4213
  123OSM      N13023   2.367   3.654   5.629  0.0133 -0.0714  0.0362
  123OSM    C1513024   2.254   3.571   5.574 -0.0437  0.6123 -0.2359
  123OSM   H15A13025   2.276   3.510   5.487 -0.2910 -0.1452  0.2225
  123OSM   H15B13026   2.165   3.619   5.534 -2.6450 -1.8210  2.1235
  123OSM   H15C13027   2.215   3.514   5.657  0.5284  1.8463  0.8963
  123OSM    C1413028   2.468   3.556   5.670 -0.7105  0.1263  0.5579
  123OSM   H14A13029   2.556   3.611   5.702  0.4752 -0.9654 -0.7021
  123OSM   H14B13030   2.497   3.486   5.593 -0.5021  0.8482 -0.0353
  123OSM   H14C13031   2.433   3.499   5.754 -0.8076  0.1104  0.5061
  123OSM    C1313032   2.409   3.747   5.521 -0.2562  0.2477  0.6880
  123OSM   H13A13033   2.502   3.797   5.542  1.4456 -3.2687  2.4834
  123OSM   H13B13034   2.338   3.822   5.489 -0.0793 -0.4785 -1.6219
  123OSM   H13C13035   2.428   3.685   5.435  0.6280 -0.5200  1.4197
  123OSM    C1213036   2.329   3.743   5.746 -0.1033 -0.4348 -0.7928
  123OSM   H12A13037   2.246   3.811   5.732 -0.4519 -0.3744  1.1565
  123OSM   H12B13038   2.414   3.803   5.775 -1.0646 -0.0995  1.6166
  123OSM    C1113039   2.281   3.674   5.875  0.3874  0.0818 -0.2619
  123OSM   H11A13040   2.285   3.745   5.961  0.0794  0.4587 -0.5553
  123OSM   H11B13041   2.356   3.597   5.904 -0.3615 -0.3409  0.6172
  123OSM      P13042   2.032   3.693   5.917 -0.1946  0.2025 -0.0597
  123OSM    O1313043   2.049   3.841   5.891 -0.1980  0.0624 -0.1782
  123OSM    O1413044   1.904   3.630   5.868  0.1017 -0.1519 -0.0659
  123OSM    O1113045   2.033   3.672   6.075 -0.2095 -0.4730 -0.2037
  123OSM    O1213046   2.152   3.614   5.861 -0.1413  0.3556  0.4673
  123OSM    C1S13047   2.093   3.559   6.143  0.6828  0.0213  0.5334
  123OSM    H1S13048   2.202   3.555   6.121  0.8094  0.8279  0.9632
  123OSM    H1T13049   2.050   3.464   6.105  0.1592  0.6487 -0.4602
  123OSM     NF13050   2.166   3.496   6.369 -0.1464 -0.6415 -0.3257
  123OSM    HNF13051   2.126   3.413   6.406  2.5801 -1.3188  1.3129
  123OSM    C2S13052   2.072   3.577   6.296  0.3114  0.6948  0.0794
  123OSM    H2S13053   2.086   3.683   6.326 -1.8409  1.3990 -1.1988
  123OSM    C3S13054   1.918   3.543   6.320 -0.2089  0.1295  0.4672
  123OSM    H3S13055   1.914   3.432   6.309 -1.5440  0.3711 -1.9840
  123OSM     O313056   1.824   3.595   6.228  0.0652 -0.0424  0.2492
  123OSM    HO313057   1.884   3.635   6.165  1.2843 -1.6308  0.3429
  123OSM    C4S13058   1.877   3.581   6.462 -0.6999 -0.0686  0.6661
  123OSM    H4S13059   1.891   3.689   6.478 -0.5036  0.0445 -0.1758
  123OSM    C5S13060   1.846   3.496   6.561  0.5976  0.2226  0.6381
  123OSM    H5S13061   1.841   3.387   6.546  0.2136  0.2924  0.2394
  123OSM    C6S13062   1.814   3.543   6.700  0.1158  0.3839  0.0969
  123OSM    H6S13063   1.732   3.491   6.752  0.8539 -0.9049  0.0002
  123OSM    H6T13064   1.783   3.650   6.697 -2.0071 -0.1954 -0.2308
  123OSM    C7S13065   1.935   3.532   6.799 -0.3696 -0.0171  0.3832
  123OSM    H7S13066   2.022   3.592   6.764 -2.4374  2.8699 -0.1689
  123OSM    H7T13067   1.966   3.426   6.809  2.0824  0.5030 -0.9343
  123OSM    C8S13068   1.890   3.584   6.933  0.3180  0.4840 -0.2557
  123OSM    H8S13069   1.970   3.556   7.004 -1.2967 -0.5535  1.2312
  123OSM    H8T13070   1.802   3.536   6.982  0.5949 -0.4999 -0.6996
  123OSM    C9S13071   1.874   3.732   6.948 -0.4309  0.1312 -0.2524
  123OSM    H9S13072   1.789   3.754   6.880  0.0719 -0.2422 -1.0170
  123OSM    H9T13073   1.965   3.786   6.914  0.3661 -0.9486  0.1372
  123OSM   C10S13074   1.846   3.789   7.084  0.4840 -0.8515 -0.1714
  123OSM   H10S13075   1.937   3.775   7.147  1.0264  1.0692 -0.4411
  123OSM   H10T13076   1.767   3.728   7.132  0.6882 -1.5644 -0.7427
  123OSM   C11S13077   1.808   3.932   7.102  0.4290  0.2024 -0.1514
  123OSM   H11S13078   1.707   3.951   7.059 -0.7716  0.6897  2.6906
  123OSM   H11T13079   1.882   4.004   7.060  0.8978  1.9367  3.3305
  123OSM   C12S13080   1.785   3.957   7.252 -0.2569 -0.0134 -0.5187
  123OSM   H12S13081   1.889   3.957   7.290 -0.2693  3.8025 -0.0780
  123OSM   H12T13082   1.732   3.887   7.320  0.0248  0.2478 -0.0257
  123OSM   C13S13083   1.741   4.103   7.289  0.0880  0.1701  0.1855
  123OSM   H13S13084   1.641   4.122   7.244  0.3581 -1.9645 -1.4737
  123OSM   H13T13085   1.812   4.175   7.244 -1.6447  1.0467 -1.2932
  123OSM   C14S13086   1.731   4.135   7.440  1.0691 -0.2530  0.4177
  123OSM   H14S13087   1.656   4.071   7.491  0.2397  2.6322  3.1487
  123OSM   H14T13088   1.686   4.237   7.434 -0.9770 -1.1601 -0.4986
  123OSM   C15S13089   1.863   4.131   7.512  0.1561  0.5931  0.1116
  123OSM   H15S13090   1.928   4.210   7.468 -0.5914  1.4065  0.4234
  123OSM   H15T13091   1.914   4.033   7.503 -1.5891 -0.4939  1.4491
  123OSM   C16S13092   1.850   4.158   7.657  0.2072  0.3656  0.3278
  123OSM   H16S13093   1.785   4.080   7.700  0.5834  0.3108  0.8046
  123OSM   H16T13094   1.792   4.249   7.682 -2.5080 -0.6054 -1.9298
  123OSM   C17S13095   1.982   4.162   7.738  0.1514 -0.3997 -0.2437
  123OSM   H17S13096   1.962   4.217   7.832 -1.7935  0.0419 -0.8680
  123OSM   H17T13097   2.044   4.229   7.675 -2.8699  1.1787 -1.8028
  123OSM   C18S13098   2.049   4.034   7.769 -0.4662  0.3133 -0.4140
  123OSM   H18S13099   2.159   4.047   7.771 -0.0028 -2.6797 -1.1836
  123OSM   H18T13100   2.036   3.965   7.683 -1.2229  0.0349 -0.0857
  123OSM   H18U13101   2.021   3.982   7.863  3.3587 -0.4114  0.5033
  123OSM    C1F13102   2.298   3.510   6.359 -0.3971 -0.4925 -0.7290
  123OSM     OF13103   2.357   3.608   6.310 -0.2539 -0.0772  0.4017
  123OSM    C2F13104   2.377   3.397   6.415 -0.2104 -0.5427  0.4643
  123OSM    H2F13105   2.447   3.357   6.338  0.2301 -1.2876  1.2441
  123OSM    H2G13106   2.308   3.312   6.433 -0.9735  0.6018  3.4786
  123OSM    C3F13107   2.460   3.426   6.541  0.4070 -0.1776  0.5402
  123OSM    H3F13108   2.533   3.506   6.516 -0.7483  1.1665  1.3544
  123OSM    H3G13109   2.512   3.333   6.574  1.6537  1.0374  2.1994
  123OSM    C4F13110   2.380   3.482   6.664 -0.0150  0.9972  0.5988
  123OSM    H4F13111   2.290   3.419   6.680  0.4764  0.2768  0.5379
  123OSM    H4G13112   2.342   3.582   6.634 -1.0214  0.1824 -1.0267
  123OSM    C5F13113   2.445   3.483   6.794 -0.5747 -1.2745 -0.1469
  123OSM    H5F13114   2.377   3.520   6.874 -0.6739 -2.0536  0.1432
  123OSM    H5G13115   2.529   3.555   6.794 -1.3868 -0.2563  1.6423
  123OSM    C6F13116   2.506   3.351   6.841  0.4385  0.3995 -0.5565
  123OSM    H6F13117   2.591   3.323   6.776 -0.3015  0.0468 -1.4101
  123OSM    H6G13118   2.441   3.263   6.823 -0.3525  0.7792  0.3412
  123OSM    C7F13119   2.552   3.353   6.991  0.0019  0.2823 -0.0748
  123OSM    H7F13120   2.596   3.451   7.019 -0.0377  0.7366 -1.5181
  123OSM    H7G13121   2.643   3.290   6.999  2.0818  2.9915 -0.8933
  123OSM    C8F13122   2.433   3.317   7.078 -0.5572 -0.2375  0.3667
  123OSM    H8F13123   2.406   3.215   7.044  0.5706 -1.4875  2.9870
  123OSM    H8G13124   2.349   3.383   7.047  0.5546  1.4751  0.8687
  123OSM    C9F13125   2.459   3.303   7.227  0.0329 -1.2724  0.3221
  123OSM    H9F13126   2.531   3.221   7.239  0.5206 -0.9423 -0.2387
  123OSM   C10F13127   2.410   3.376   7.329 -0.1532  0.0426 -0.9565
  123OSM   H10F13128   2.447   3.345   7.428 -0.0308  0.3298 -0.9121
  123OSM   C11F13129   2.310   3.495   7.329  0.4698  0.1426 -0.0266
  123OSM   H11F13130   2.233   3.472   7.252  1.0556 -1.2966 -0.2105
  123OSM   H11G13131   2.359   3.590   7.302  1.2827 -0.3772 -0.4118
  123OSM   C12F13132   2.236   3.519   7.466  0.4458  0.4524  0.1550
  123OSM   H12F13133   2.306   3.540   7.550 -0.8268  1.5602  0.9744
  123OSM   H12G13134   2.179   3.425   7.485  1.6560 -0.3119  0.1433
  123OSM   C13F13135   2.131   3.635   7.460 -0.2632 -0.3652 -0.0976
  123OSM   H13F13136   2.073   3.626   7.366 -1.6956  2.2344  0.4531
  123OSM   H13G13137   2.170   3.739   7.460  0.1765 -0.5125  0.9191
  123OSM   C14F13138   2.031   3.635   7.577  0.6017  0.4576  0.6190
  123OSM   H14F13139   2.073   3.680   7.669 -1.0407 -0.6014  1.9285
  123OSM   H14G13140   2.012   3.531   7.609  1.5156  0.5185  1.4047
  123OSM   C15F13141   1.895   3.701   7.553  0.0829  0.3156  0.7483
  123OSM   H15F13142   1.860   3.668   7.453 -3.5072  2.3614  1.1455
  123OSM   H15G13143   1.917   3.808   7.536  1.3897 -0.3191 -2.0420
  123OSM   C16F13144   1.781   3.678   7.656  0.1321 -0.0366  0.1926
  123OSM   H16F13145   1.761   3.569   7.655  2.3312 -0.5335 -2.0641
  123OSM   H16G13146   1.692   3.735   7.621 -1.3522 -2.0920  0.4616
  123OSM   C17F13147   1.826   3.713   7.795 -0.2055  0.2520 -0.9490
  123OSM   H17F13148   1.869   3.815   7.784  2.4960 -0.5977  0.7761
  123OSM   H17G13149   1.897   3.629   7.812  0.3777  0.8952 -0.1520
  123OSM   C18F13150   1.717   3.712   7.895  0.1175 -0.5655  0.3060
  123OSM   H18F13151   1.739   3.752   7.997 -1.2882 -0.1014  0.4506
  123OSM   H18G13152   1.688   3.607   7.918 -1.1761 -0.2732  0.0565
  123OSM   H18H13153   1.627   3.767   7.862 -0.6455 -1.7527  0.3748
  124OSM      N13154   3.444   2.961   6.320 -0.3492 -0.3114 -1.0787
  124OSM    C1513155   3.487   3.089   6.386 -0.3365  0.1272 -0.3023
  124OSM   H15A13156   3.411   3.114   6.458  1.4352 -2.0748  2.5528
  124OSM   H15B13157   3.510   3.174   6.323  0.8300  0.1092  0.0797
  124OSM   H15C13158   3.582   3.083   6.436  0.1070  0.5978 -1.0679
  124OSM    C1413159   3.555   2.922   6.225  1.0973 -0.2527  0.1265
  124OSM   H14A13160   3.651   2.922   6.274  0.8149  1.2475  0.7312
  124OSM   H14B13161   3.550   2.985   6.138 -6.3689 -1.8364 -1.2824
  124OSM   H14C13162   3.539   2.819   6.196 -1.8016  0.1854 -0.1376
  124OSM    C1313163   3.413   2.858   6.426 -0.2402  0.5282 -0.2059
  124OSM   H13A13164   3.499   2.831   6.486  0.2789  2.5528  0.0339
  124OSM   H13B13165   3.385   2.770   6.371 -1.4823  1.0261 -0.4135
  124OSM   H13C13166   3.328   2.887   6.487  0.4070  0.4350  0.7628
  124OSM    C1213167   3.322   3.005   6.235  0.4030  0.3627 -0.0889
  124OSM   H12A13168   3.358   3.070   6.156 -0.1853  1.4606  0.5162
  124OSM   H12B13169   3.247   3.060   6.290 -1.3776  0.1663 -2.1905
  124OSM    C1113170   3.234   2.882   6.169  0.3238 -0.7030 -0.5204
  124OSM   H11A13171   3.159   2.935   6.107  0.4781  0.5303  0.3213
  124OSM   H11B13172   3.184   2.824   6.249  1.9641 -0.0747  1.0288
  124OSM      P13173   3.323   2.644   6.104 -0.1081 -0.3664  0.4154
  124OSM    O1313174   3.200   2.570   6.062  0.5085 -0.3097  0.2373
  124OSM    O1413175   3.440   2.597   6.032 -0.0273 -0.2672 -0.3157
  124OSM    O1113176   3.348   2.614   6.261 -0.1419 -0.2780 -0.0827
  124OSM    O1213177   3.311   2.799   6.094  0.2661  0.0071 -0.0598
  124OSM    C1S13178   3.348   2.481   6.308 -0.4771  0.6753  0.0760
  124OSM    H1S13179   3.419   2.422   6.246  0.2424  1.5676  0.0295
  124OSM    H1T13180   3.252   2.425   6.306  0.0217 -0.1787 -1.2023
  124OSM     NF13181   3.456   2.334   6.482 -0.6391 -0.2100  0.1574
  124OSM    HNF13182   3.396   2.264   6.519 -0.4997  0.7729  2.3874
  124OSM    C2S13183   3.400   2.465   6.451  0.0730 -0.0016 -0.3933
  124OSM    H2S13184   3.476   2.543   6.471 -0.4762  0.2895  0.6258
  124OSM    C3S13185   3.281   2.507   6.544 -0.6607  0.2045 -0.5889
  124OSM    H3S13186   3.197   2.437   6.522 -1.2801  1.2444 -1.7239
  124OSM     O313187   3.214   2.630   6.510  0.0557  0.0482 -0.2553
  124OSM    HO313188   3.266   2.664   6.437 -1.1390  1.1239 -0.6626
  124OSM    C4S13189   3.308   2.488   6.691  1.0333  0.1379 -0.4993
  124OSM    H4S13190   3.264   2.393   6.724 -0.7870  0.5774 -1.5381
  124OSM    C5S13191   3.345   2.576   6.782  0.4100  0.5301 -0.1525
  124OSM    H5S13192   3.381   2.677   6.758  1.7369  0.1739  0.2659
  124OSM    C6S13193   3.338   2.547   6.934 -0.1050  0.3175 -0.0352
  124OSM    H6S13194   3.279   2.621   6.993 -0.3449 -0.2586  0.4530
  124OSM    H6T13195   3.445   2.553   6.964 -0.0422 -1.0172  0.0687
  124OSM    C7S13196   3.287   2.405   6.980  0.4516 -0.2986 -0.2742
  124OSM    H7S13197   3.345   2.330   6.922  3.6699  1.6601  0.1993
  124OSM    H7T13198   3.182   2.391   6.944  0.0941  0.8964  0.2452
  124OSM    C8S13199   3.305   2.387   7.131 -0.2119  0.3629  0.3810
  124OSM    H8S13200   3.281   2.478   7.189 -2.5117 -0.0730  0.1969
  124OSM    H8T13201   3.415   2.381   7.149  0.0682  0.5500 -1.1194
  124OSM    C9S13202   3.244   2.258   7.186  0.2606  1.2147  0.5375
  124OSM    H9S13203   3.270   2.168   7.126  1.6341  0.6142  1.9263
  124OSM    H9T13204   3.136   2.275   7.173  0.0163 -0.1267  0.6094
  124OSM   C10S13205   3.273   2.224   7.338  1.0099  0.1509 -0.2848
  124OSM   H10S13206   3.382   2.200   7.342  0.7606 -1.0797 -0.3777
  124OSM   H10T13207   3.231   2.121   7.347 -2.0740  1.1657 -1.6655
  124OSM   C11S13208   3.229   2.316   7.452  1.0327  0.4861  0.2032
  124OSM   H11S13209   3.128   2.354   7.425  1.2412  0.0659 -1.2197
  124OSM   H11T13210   3.290   2.409   7.453  1.6434  0.0957  1.2304
  124OSM   C12S13211   3.223   2.244   7.590 -0.5095  0.2495  0.2256
  124OSM   H12S13212   3.326   2.206   7.605  0.3931  1.9353 -1.3051
  124OSM   H12T13213   3.148   2.164   7.573 -0.2736  0.4084 -1.9456
  124OSM   C13S13214   3.179   2.339   7.700 -0.2987  0.1107  0.4068
  124OSM   H13S13215   3.076   2.380   7.690 -0.6165 -0.7113  0.2228
  124OSM   H13T13216   3.235   2.435   7.696 -1.1654  0.6218  0.3023
  124OSM   C14S13217   3.204   2.286   7.838 -0.4226  0.5459 -0.3270
  124OSM   H14S13218   3.314   2.294   7.849 -0.3602  1.6884 -1.6476
  124OSM   H14T13219   3.171   2.180   7.843 -1.6171  0.8718 -0.8874
  124OSM   C15S13220   3.137   2.354   7.958 -0.9318 -0.4562 -0.1392
  124OSM   H15S13221   3.042   2.392   7.915 -0.5937 -0.8811 -1.2994
  124OSM   H15T13222   3.198   2.442   7.987  0.1025 -0.9310 -0.8465
  124OSM   C16S13223   3.115   2.265   8.077 -0.0013  0.3474  0.6761
  124OSM   H16S13224   3.215   2.229   8.109 -0.4333 -0.6387  0.9613
  124OSM   H16T13225   3.057   2.173   8.054  1.3017 -0.3445  0.0619
  124OSM   C17S13226   3.037   2.326   8.194 -0.4580  0.0598  0.3145
  124OSM   H17S13227   2.991   2.249   8.259 -1.2291  0.9551  0.8434
  124OSM   H17T13228   2.943   2.373   8.159 -1.2107 -2.6788 -1.6615
  124OSM   C18S13229   3.121   2.418   8.281  0.5099 -0.3414 -0.4917
  124OSM   H18S13230   3.047   2.466   8.348  0.2974  0.1424 -1.0607
  124OSM   H18T13231   3.164   2.500   8.219  1.3428 -0.2423  0.2086
  124OSM   H18U13232   3.201   2.383   8.349  0.5224  0.3852 -0.1276
  124OSM    C1F13233   3.588   2.308   6.439  0.2492  0.3206 -0.3964
  124OSM     OF13234   3.642   2.367   6.354 -0.3336  0.0364 -0.0906
  124OSM    C2F13235   3.660   2.200   6.513  0.2193 -0.0145 -0.2626
  124OSM    H2F13236   3.766   2.231   6.521 -0.2448  1.8423 -0.7338
  124OSM    H2G13237   3.661   2.105   6.456 -0.6088 -1.0907  1.4536
  124OSM    C3F13238   3.607   2.167   6.657  0.1816 -0.0107 -0.4023
  124OSM    H3F13239   3.512   2.110   6.647  0.3436 -0.3048 -0.2853
  124OSM    H3G13240   3.588   2.259   6.716  1.6393  0.3496 -0.4459
  124OSM    C4F13241   3.695   2.064   6.732  0.5971 -0.1459 -0.7686
  124OSM    H4F13242   3.797   2.107   6.740  0.9681 -1.1986  0.8788
  124OSM    H4G13243   3.703   1.972   6.670 -1.1107  1.1452 -3.0192
  124OSM    C5F13244   3.636   2.035   6.870  0.3135  0.2218  0.0217
  124OSM    H5F13245   3.674   1.934   6.899  0.2478  0.0878 -0.3500
  124OSM    H5G13246   3.526   2.024   6.859 -0.1986  1.1941  3.0935
  124OSM    C6F13247   3.678   2.131   6.977  0.3276 -0.2925  0.3910
  124OSM    H6F13248   3.620   2.225   6.965  1.1199  0.2187  0.4824
  124OSM    H6G13249   3.780   2.167   6.951 -0.6393  2.5037  0.1248
  124OSM    C7F13250   3.678   2.077   7.125  0.1509  0.1591 -0.0475
  124OSM    H7F13251   3.716   1.973   7.123  2.0749  0.7079  2.3435
  124OSM    H7G13252   3.572   2.083   7.158  0.0014  1.9180 -0.7695
  124OSM    C8F13253   3.778   2.162   7.218  0.0243  1.1161  0.2525
  124OSM    H8F13254   3.879   2.136   7.181 -1.0241  0.5143 -2.4151
  124OSM    H8G13255   3.782   2.115   7.318  0.8883  0.0691 -0.2592
  124OSM    C9F13256   3.744   2.309   7.225  0.3096  0.0297 -0.4572
  124OSM    H9F13257   3.764   2.368   7.135 -1.4294  1.1658 -0.1552
  124OSM   C10F13258   3.714   2.378   7.337 -0.4214 -0.4647  0.2112
  124OSM   H10F13259   3.700   2.485   7.319  0.4936 -0.5424 -1.1032
  124OSM   C11F13260   3.693   2.327   7.479  1.3325 -0.7961 -0.4863
  124OSM   H11F13261   3.791   2.312   7.530  0.4213 -0.3592  1.4647
  124OSM   H11G13262   3.656   2.223   7.467  3.0064 -1.5064  0.2061
  124OSM   C12F13263   3.597   2.403   7.576  0.2383  0.9303  0.0942
  124OSM   H12F13264   3.493   2.382   7.543 -0.2578  4.2082 -0.7955
  124OSM   H12G13265   3.604   2.513   7.564  0.6171  0.9672  0.6173
  124OSM   C13F13266   3.609   2.374   7.720 -0.5980  0.4089 -0.5458
  124OSM   H13F13267   3.717   2.372   7.743 -0.1108  0.6931 -2.6693
  124OSM   H13G13268   3.559   2.276   7.737 -0.4997  0.6804  1.6864
  124OSM   C14F13269   3.546   2.484   7.807  0.4908 -0.2510 -0.0113
  124OSM   H14F13270   3.440   2.491   7.775  0.6360  0.7171 -0.3054
  124OSM   H14G13271   3.590   2.581   7.778  0.0873 -0.8902 -3.1171
  124OSM   C15F13272   3.550   2.457   7.962  0.2840  0.3241 -0.1905
  124OSM   H15F13273   3.653   2.462   8.003 -0.8694  0.1398  3.0025
  124OSM   H15G13274   3.506   2.356   7.980  1.5161 -0.0107  1.0927
  124OSM   C16F13275   3.472   2.559   8.048  0.1552 -0.6665  0.0056
  124OSM   H16F13276   3.376   2.585   7.997 -1.1662 -1.8200  1.7879
  124OSM   H16G13277   3.522   2.658   8.050 -0.2507 -0.4080 -1.2346
  124OSM   C17F13278   3.435   2.519   8.194 -0.7927 -0.2558 -0.4920
  124OSM   H17F13279   3.383   2.421   8.193 -1.8124  0.2622  0.0277
  124OSM   H17G13280   3.367   2.600   8.228 -0.8784 -0.1754 -0.8518
  124OSM   C18F13281   3.568   2.519   8.273  0.3268 -0.0004  0.1976
  124OSM   H18F13282   3.640   2.443   8.235  0.1949 -0.0194 -0.0196
  124OSM   H18G13283   3.539   2.488   8.375 -2.1824  1.9011  0.1412
  124OSM   H18H13284   3.622   2.616   8.278 -0.9775  1.0787 -3.4713
  125OSM      N13285   4.514   3.130   6.222  0.7824  0.6654  1.3019
  125OSM    C1513286   4.412   3.236   6.180 -0.0983  0.1671  0.5307
  125OSM   H15A13287   4.329   3.179   6.141  0.3184  0.1276 -0.3320
  125OSM   H15B13288   4.450   3.300   6.102  0.1150  1.5912  1.7612
  125OSM   H15C13289   4.375   3.287   6.268  0.3322  2.1331 -0.3711
  125OSM    C1413290   4.568   3.064   6.102  0.1223  0.4402  0.5280
  125OSM   H14A13291   4.654   3.008   6.136 -0.9377 -0.7674  1.3050
  125OSM   H14B13292   4.584   3.135   6.022  1.1802 -0.5224 -0.1418
  125OSM   H14C13293   4.498   2.994   6.060  1.4648 -0.9542  0.5122
  125OSM    C1313294   4.636   3.182   6.288 -0.3930  0.1570 -0.0218
  125OSM   H13A13295   4.698   3.100   6.323  1.7595  1.4686 -0.5877
  125OSM   H13B13296   4.608   3.238   6.376  1.6628 -1.0338  1.4790
  125OSM   H13C13297   4.691   3.248   6.223  0.2037  0.9282  1.2234
  125OSM    C1213298   4.453   3.027   6.318  0.0249  0.1108  0.4135
  125OSM   H12A13299   4.384   3.079   6.384 -1.6169 -4.0026  2.3653
  125OSM   H12B13300   4.538   2.996   6.377  0.4145  0.7380  0.1903
  125OSM    C1113301   4.367   2.905   6.265  0.0690  0.2519  0.0477
  125OSM   H11A13302   4.315   2.863   6.353  1.0842  0.1577  0.6180
  125OSM   H11B13303   4.438   2.828   6.226  2.4998  2.3673  0.0274
  125OSM      P13304   4.126   2.976   6.188 -0.1903  0.1701  0.2273
  125OSM    O1313305   4.104   3.118   6.203 -0.6156 -0.1077  0.7461
  125OSM    O1413306   4.053   2.914   6.074  0.1399 -0.5498  0.0324
  125OSM    O1113307   4.084   2.901   6.318  0.2081  0.2998 -0.0375
  125OSM    O1213308   4.278   2.944   6.156  0.3696  0.7360 -0.3615
  125OSM    C1S13309   4.067   2.961   6.447  0.6150 -0.1393  0.0481
  125OSM    H1S13310   4.027   3.065   6.441 -0.9677 -0.7305 -0.1456
  125OSM    H1T13311   4.163   2.984   6.498  0.9510  1.7677 -1.3370
  125OSM     NF13312   3.942   2.942   6.662  0.6933 -0.2702 -0.0544
  125OSM    HNF13313   3.988   2.929   6.749 -0.1177  1.2710  0.6187
  125OSM    C2S13314   3.985   2.875   6.546 -0.2355 -0.3136 -0.2954
  125OSM    H2S13315   3.894   2.837   6.496 -1.6992  1.2588  1.0156
  125OSM    C3S13316   4.068   2.750   6.571 -0.2478 -0.5646 -0.1308
  125OSM    H3S13317   4.158   2.781   6.629 -1.1125  0.3701  0.7480
  125OSM     O313318   4.133   2.688   6.462 -0.1317  0.3261  0.5031
  125OSM    HO313319   4.122   2.744   6.385 -3.4736 -2.2183 -1.1178
  125OSM    C4S13320   4.007   2.644   6.660 -0.0177 -0.1330 -0.3509
  125OSM    H4S13321   4.017   2.658   6.769 -0.1481  0.2584 -0.3857
  125OSM    C5S13322   3.930   2.540   6.621  0.9224  0.5716 -0.0883
  125OSM    H5S13323   3.909   2.525   6.514 -1.9576  0.8586  0.3656
  125OSM    C6S13324   3.854   2.438   6.706  0.0220  0.3772  0.6127
  125OSM    H6S13325   3.901   2.342   6.675  0.0300  0.5705  0.0114
  125OSM    H6T13326   3.748   2.434   6.674  0.2669 -2.4932 -0.0912
  125OSM    C7S13327   3.878   2.454   6.858 -0.2242 -0.6505  0.1637
  125OSM    H7S13328   3.987   2.453   6.878  0.1554 -0.7878 -1.7311
  125OSM    H7T13329   3.834   2.361   6.900  0.1656 -1.6308 -1.5013
  125OSM    C8S13330   3.810   2.574   6.916  0.8327  0.5777 -0.2908
  125OSM    H8S13331   3.705   2.544   6.935  0.5587  1.4363 -0.4234
  125OSM    H8T13332   3.807   2.656   6.841  2.2619  0.0972 -0.9116
  125OSM    C9S13333   3.877   2.619   7.046  0.6375 -0.3487 -0.2956
  125OSM    H9S13334   3.965   2.685   7.027  0.2411  0.9641  1.9669
  125OSM    H9T13335   3.905   2.537   7.114 -3.4578 -0.1964  1.9159
  125OSM   C10S13336   3.794   2.712   7.144 -0.0743 -0.0344 -0.0056
  125OSM   H10S13337   3.688   2.680   7.139 -0.7427  2.1661 -1.2009
  125OSM   H10T13338   3.792   2.818   7.109 -0.8866  0.0129  0.1634
  125OSM   C11S13339   3.847   2.713   7.287 -0.3074  0.3683  0.8048
  125OSM   H11S13340   3.951   2.752   7.285  0.7728 -2.2738 -0.0888
  125OSM   H11T13341   3.855   2.606   7.317  1.9680  0.7323  1.6969
  125OSM   C12S13342   3.762   2.777   7.390  0.4222 -0.6497  0.3101
  125OSM   H12S13343   3.662   2.731   7.387  1.2765 -2.5455 -0.6203
  125OSM   H12T13344   3.748   2.885   7.370  1.6929 -0.0754  2.1288
  125OSM   C13S13345   3.845   2.767   7.521 -0.1516  0.0469 -0.2074
  125OSM   H13S13346   3.951   2.790   7.497 -0.2375 -2.5559 -3.9133
  125OSM   H13T13347   3.836   2.665   7.563 -1.6944  1.1386  2.3420
  125OSM   C14S13348   3.788   2.864   7.621 -0.4199 -0.1676  0.1848
  125OSM   H14S13349   3.677   2.864   7.624 -0.4062 -0.2768  0.9315
  125OSM   H14T13350   3.827   2.967   7.608 -2.4396  0.8026  1.2713
  125OSM   C15S13351   3.815   2.823   7.767  1.2174 -0.1887  0.0776
  125OSM   H15S13352   3.925   2.808   7.774  1.1805 -0.8085 -0.5657
  125OSM   H15T13353   3.764   2.724   7.779 -0.0576  0.4218 -0.0809
  125OSM   C16S13354   3.756   2.921   7.871 -0.6317 -0.0156 -0.1662
  125OSM   H16S13355   3.648   2.933   7.848 -1.2527 -1.7264  1.5794
  125OSM   H16T13356   3.810   3.018   7.880  0.9746 -0.9747  1.4906
  125OSM   C17S13357   3.766   2.865   8.014 -0.1356  0.6176  0.3143
  125OSM   H17S13358   3.872   2.860   8.049  0.7204  3.1706 -1.5510
  125OSM   H17T13359   3.722   2.763   8.022 -0.7923  0.9945  1.7855
  125OSM   C18S13360   3.673   2.940   8.108 -0.7056 -0.6527  0.5831
  125OSM   H18S13361   3.579   2.959   8.051 -0.6848 -2.0486  0.0449
  125OSM   H18T13362   3.706   3.045   8.120 -1.4744 -0.2312 -0.7394
  125OSM   H18U13363   3.655   2.903   8.211 -2.4849  1.0858  0.9438
  125OSM    C1F13364   3.850   3.041   6.654  0.2357 -0.6929  0.3879
  125OSM     OF13365   3.784   3.063   6.555  0.1159  0.0958  0.6124
  125OSM    C2F13366   3.822   3.117   6.784 -0.7672  0.4231  0.3589
  125OSM    H2F13367   3.873   3.216   6.782  0.3674 -0.1634 -0.9847
  125OSM    H2G13368   3.862   3.063   6.872 -0.0041 -0.3576 -0.4445
  125OSM    C3F13369   3.671   3.135   6.799 -0.3366  0.3184  0.2367
  125OSM    H3F13370   3.647   3.204   6.715  2.0411  2.6929  1.3651
  125OSM    H3G13371   3.649   3.181   6.897  1.2151  0.3182  0.6029
  125OSM    C4F13372   3.588   2.999   6.781  0.4416  0.8014 -0.3684
  125OSM    H4F13373   3.625   2.908   6.831  0.4286  0.9456 -0.0961
  125OSM    H4G13374   3.580   2.978   6.672 -0.9674 -1.0187  0.0521
  125OSM    C5F13375   3.443   3.022   6.838 -0.3446 -0.3835  0.5806
  125OSM    H5F13376   3.382   2.950   6.778 -0.8017  0.2853  0.2248
  125OSM    H5G13377   3.405   3.121   6.805  0.4454 -0.0257  0.7323
  125OSM    C6F13378   3.410   2.987   6.988 -0.4782  0.2449  0.6255
  125OSM    H6F13379   3.501   3.012   7.046 -0.2510  0.6341  0.1072
  125OSM    H6G13380   3.399   2.876   6.984  2.9113 -0.1507 -0.2374
  125OSM    C7F13381   3.288   3.052   7.058 -0.2967  0.6406  0.0580
  125OSM    H7F13382   3.198   3.038   6.994  0.2590 -0.7761 -0.4660
  125OSM    H7G13383   3.306   3.161   7.062  0.7095  0.5113 -0.5012
  125OSM    C8F13384   3.248   2.991   7.196 -0.7148 -0.2199  0.2775
  125OSM    H8F13385   3.215   2.887   7.175 -0.4671  0.0873 -1.7596
  125OSM    H8G13386   3.163   3.042   7.247 -0.3925  1.3420 -0.7183
  125OSM    C9F13387   3.364   3.000   7.291 -0.2868  1.3059 -0.1646
  125OSM    H9F13388   3.438   3.080   7.278  0.4695  0.6419 -0.0006
  125OSM   C10F13389   3.394   2.906   7.386 -0.3281 -0.4214 -0.5448
  125OSM   H10F13390   3.484   2.923   7.447 -1.8788  2.8554  1.1342
  125OSM   C11F13391   3.321   2.784   7.432 -0.1462 -0.2546  0.8890
  125OSM   H11F13392   3.344   2.693   7.372  0.8445 -0.9195  2.2272
  125OSM   H11G13393   3.214   2.800   7.405  0.6479  1.4492 -1.5632
  125OSM   C12F13394   3.341   2.756   7.585 -0.1287  0.8413  0.9644
  125OSM   H12F13395   3.444   2.731   7.618 -0.9267 -1.1686  2.1010
  125OSM   H12G13396   3.274   2.675   7.623  0.1127  0.3376  0.3317
  125OSM   C13F13397   3.294   2.872   7.670 -0.0903  0.4591  0.2850
  125OSM   H13F13398   3.196   2.907   7.632 -0.0672 -0.1777 -0.3901
  125OSM   H13G13399   3.368   2.955   7.667  0.1920  0.5439  4.1250
  125OSM   C14F13400   3.278   2.815   7.817 -0.4665  0.0911  0.9538
  125OSM   H14F13401   3.375   2.769   7.845 -0.2113  0.1294  0.1510
  125OSM   H14G13402   3.196   2.743   7.836 -0.8944  0.2894 -0.1075
  125OSM   C15F13403   3.259   2.927   7.919 -0.3071 -0.3956  0.1908
  125OSM   H15F13404   3.158   2.973   7.908  0.1338  1.5288  3.2060
  125OSM   H15G13405   3.340   2.997   7.890  0.4709 -1.5604 -0.5371
  125OSM   C16F13406   3.274   2.865   8.058 -0.0632 -0.4629  0.1819
  125OSM   H16F13407   3.380   2.830   8.051  0.3406  1.0096 -2.0619
  125OSM   H16G13408   3.205   2.778   8.069 -0.4226 -0.4302 -1.5920
  125OSM   C17F13409   3.282   2.974   8.168  0.3310 -0.1759  0.1577
  125OSM   H17F13410   3.201   3.044   8.138  0.2419 -0.8234 -1.1795
  125OSM   H17G13411   3.369   3.044   8.167 -0.5214  0.9686  2.1086
  125OSM   C18F13412   3.261   2.920   8.308 -0.2834 -0.1363  0.1896
  125OSM   H18F13413   3.263   3.007   8.377 -0.4699 -0.7576  0.9891
  125OSM   H18G13414   3.350   2.860   8.336  1.1921  1.6233 -0.4320
  125OSM   H18H13415   3.173   2.857   8.329  0.5028 -2.0976 -1.9075
  126OSM      N13416   1.716   2.054   5.358 -0.5456 -0.1886  0.2931
  126OSM    C1513417   1.701   2.090   5.211  0.6547  0.0390  0.6021
  126OSM   H15A13418   1.598   2.106   5.180 -0.1937  1.4884  3.7797
  126OSM   H15B13419   1.739   2.005   5.156  0.6611 -0.7919  1.8514
  126OSM   H15C13420   1.760   2.179   5.197  0.4724  0.6641  3.2437
  126OSM    C1413421   1.663   1.919   5.368 -0.2353 -0.2513  0.2148
  126OSM   H14A13422   1.646   1.889   5.471 -0.7997 -0.6231  0.0174
  126OSM   H14B13423   1.729   1.842   5.331 -0.9004 -1.3292  1.1925
  126OSM   H14C13424   1.569   1.914   5.316 -0.9495  0.7263  1.3442
  126OSM    C1313425   1.861   2.054   5.389  0.0521 -0.1441 -0.0604
  126OSM   H13A13426   1.898   2.155   5.381 -1.8595  0.5902  0.0042
  126OSM   H13B13427   1.915   1.998   5.315  1.5147  0.1048  0.7712
  126OSM   H13C13428   1.884   2.021   5.490 -0.2888  1.7559  0.6877
  126OSM    C1213429   1.635   2.153   5.450  0.1105  1.1352 -0.7897
  126OSM   H12A13430   1.540   2.164   5.399  0.2874 -1.0634 -1.7038
  126OSM   H12B13431   1.696   2.241   5.451 -0.3379  1.4486 -0.1133
  126OSM    C1113432   1.602   2.103   5.601  0.3959  0.0121 -0.4588
  126OSM   H11A13433   1.560   2.183   5.666  1.6314 -0.5850  1.1204
  126OSM   H11B13434   1.695   2.063   5.646 -1.8874 -1.2276  3.6044
  126OSM      P13435   1.368   1.990   5.657 -0.0098  0.0458  0.2321
  126OSM    O1313436   1.303   2.114   5.611  0.8450  0.1507 -0.1453
  126OSM    O1413437   1.302   1.864   5.622 -0.6461  0.4463 -0.9894
  126OSM    O1113438   1.387   1.994   5.808  0.2966  0.3666 -0.2706
  126OSM    O1213439   1.512   1.993   5.599 -0.6866 -0.5017 -0.2802
  126OSM    C1S13440   1.508   1.967   5.885 -0.4035 -0.9728 -0.6805
  126OSM    H1S13441   1.573   2.055   5.865 -2.2324  0.3394 -1.1276
  126OSM    H1T13442   1.563   1.880   5.842 -1.8346 -1.8951 -0.7068
  126OSM     NF13443   1.608   1.968   6.117  0.0128  0.0240 -0.0571
  126OSM    HNF13444   1.650   1.886   6.157  0.9629  0.3014 -0.4693
  126OSM    C2S13445   1.487   1.962   6.036  1.0165  0.0824 -0.5391
  126OSM    H2S13446   1.421   2.045   6.068 -0.2311 -0.6230 -1.2153
  126OSM    C3S13447   1.403   1.834   6.066 -0.1279 -0.2468  0.9571
  126OSM    H3S13448   1.466   1.747   6.040 -0.3875 -1.1754  3.2332
  126OSM     O313449   1.286   1.817   5.982 -0.0076 -0.0183 -0.2794
  126OSM    HO313450   1.304   1.886   5.917  2.4177  1.3087  1.6311
  126OSM    C4S13451   1.374   1.821   6.215  0.5991  0.7046 -0.4103
  126OSM    H4S13452   1.459   1.767   6.259  0.5856  0.6528 -0.4478
  126OSM    C5S13453   1.286   1.875   6.294  0.9083 -0.3954 -0.2102
  126OSM    H5S13454   1.208   1.938   6.249 -0.4125 -0.8466  1.3502
  126OSM    C6S13455   1.277   1.870   6.446  0.1996  0.2749 -0.7212
  126OSM    H6S13456   1.203   1.799   6.489 -1.3264  2.9005  1.3432
  126OSM    H6T13457   1.260   1.970   6.492  0.2500  1.0882 -2.3715
  126OSM    C7S13458   1.410   1.825   6.512 -0.0483  0.4322  0.0905
  126OSM    H7S13459   1.484   1.890   6.461 -0.7229  0.8705 -0.3492
  126OSM    H7T13460   1.431   1.719   6.485  1.0171  1.1681 -2.2679
  126OSM    C8S13461   1.439   1.855   6.662  0.8020  0.2518 -0.3177
  126OSM    H8S13462   1.350   1.825   6.722  0.8628 -0.6430 -0.6556
  126OSM    H8T13463   1.433   1.966   6.665 -0.4575  0.2669 -1.9799
  126OSM    C9S13464   1.571   1.800   6.715  0.6882 -0.5697 -0.2436
  126OSM    H9S13465   1.649   1.854   6.657 -0.5051  0.2295 -1.1463
  126OSM    H9T13466   1.585   1.690   6.707 -1.7446 -0.9254 -0.2543
  126OSM   C10S13467   1.576   1.845   6.858  0.5349 -0.2422 -0.8179
  126OSM   H10S13468   1.499   1.791   6.917 -0.3832  0.7780 -1.0507
  126OSM   H10T13469   1.566   1.954   6.875  0.5696 -0.4541  0.7471
  126OSM   C11S13470   1.713   1.796   6.915 -0.6975  0.3103  0.0162
  126OSM   H11S13471   1.797   1.836   6.855 -1.1033 -1.4532 -1.8226
  126OSM   H11T13472   1.706   1.686   6.907 -2.1922  0.4321 -0.5240
  126OSM   C12S13473   1.730   1.846   7.066 -0.0230  0.2734  0.2035
  126OSM   H12S13474   1.680   1.945   7.074 -2.4811 -0.6672 -2.2440
  126OSM   H12T13475   1.837   1.859   7.094  0.0829 -0.0762 -0.0446
  126OSM   C13S13476   1.669   1.756   7.170  0.1454  0.4856  0.0102
  126OSM   H13S13477   1.712   1.654   7.157  0.3687  0.5156  0.4979
  126OSM   H13T13478   1.561   1.752   7.145  0.4856 -0.9007 -1.4494
  126OSM   C14S13479   1.688   1.793   7.313 -0.1178  0.8410  0.2516
  126OSM   H14S13480   1.648   1.708   7.374  2.0233 -1.0197 -0.7813
  126OSM   H14T13481   1.645   1.886   7.356 -2.3983  0.4113 -0.9083
  126OSM   C15S13482   1.843   1.787   7.348  0.3183 -0.0647  0.6733
  126OSM   H15S13483   1.897   1.875   7.309 -2.8882  2.5647  1.6750
  126OSM   H15T13484   1.882   1.694   7.301 -0.7766  0.0662 -0.5711
  126OSM   C16S13485   1.867   1.782   7.500 -0.2656 -0.0577 -0.4774
  126OSM   H16S13486   1.795   1.863   7.527 -1.2993 -0.0514 -2.9620
  126OSM   H16T13487   1.968   1.820   7.526 -0.8178  1.1682 -0.0743
  126OSM   C17S13488   1.831   1.652   7.575  0.0113  0.2548  1.4614
  126OSM   H17S13489   1.886   1.566   7.530 -1.5247  0.2976 -0.6820
  126OSM   H17T13490   1.723   1.630   7.559  0.1692  0.7670 -0.7307
  126OSM   C18S13491   1.862   1.654   7.720  0.5647 -0.1571 -0.2174
  126OSM   H18S13492   1.951   1.718   7.739 -0.7448  1.2456  1.6410
  126OSM   H18T13493   1.888   1.554   7.761 -1.5742 -0.0408  1.5738
  126OSM   H18U13494   1.780   1.694   7.783 -0.4178  0.4487 -1.8253
  126OSM    C1F13495   1.683   2.075   6.136 -0.0259 -0.0993 -0.3079
  126OSM     OF13496   1.665   2.187   6.085 -0.2920  0.1302 -0.1811
  126OSM    C2F13497   1.795   2.060   6.231  0.2022  0.0785  0.7935
  126OSM    H2F13498   1.866   2.144   6.216  0.2334 -0.2598 -1.2299
  126OSM    H2G13499   1.850   1.970   6.197  0.9028 -0.2780  2.7092
  126OSM    C3F13500   1.745   2.038   6.374 -0.0934  0.1057 -0.1909
  126OSM    H3F13501   1.820   1.987   6.437  0.5665  0.0734 -0.9839
  126OSM    H3G13502   1.653   1.976   6.371 -1.0799  1.4938 -3.5535
  126OSM    C4F13503   1.715   2.169   6.438  0.9550 -0.1526 -0.6838
  126OSM    H4F13504   1.630   2.222   6.391 -1.9386 -1.2470  2.8451
  126OSM    H4G13505   1.809   2.229   6.431  0.2834  0.9532 -0.4099
  126OSM    C5F13506   1.690   2.142   6.593  0.1934 -0.2774 -0.4523
  126OSM    H5F13507   1.786   2.120   6.644  0.0462  3.2186  1.6597
  126OSM    H5G13508   1.631   2.053   6.622  1.4044 -0.6229  1.0753
  126OSM    C6F13509   1.632   2.268   6.662 -0.5756  0.4003 -0.4104
  126OSM    H6F13510   1.545   2.299   6.601 -2.7922 -1.1254  1.7759
  126OSM    H6G13511   1.715   2.342   6.662 -0.3094  0.1046 -0.1622
  126OSM    C7F13512   1.593   2.248   6.811 -0.7325 -0.0666 -0.0227
  126OSM    H7F13513   1.507   2.178   6.821 -0.4709 -0.9092 -2.7731
  126OSM    H7G13514   1.553   2.348   6.838  0.0269 -0.1880  1.6589
  126OSM    C8F13515   1.705   2.213   6.915  0.7431  0.0328 -0.0196
  126OSM    H8F13516   1.766   2.127   6.881  0.8827  0.7928 -1.7760
  126OSM    H8G13517   1.650   2.169   7.001  0.2284 -0.3068 -0.5206
  126OSM    C9F13518   1.789   2.332   6.970  0.2193  0.9964  0.2405
  126OSM    H9F13519   1.813   2.414   6.902 -0.2197  0.2809 -0.8140
  126OSM   C10F13520   1.838   2.330   7.099  1.2051 -0.1537  0.0878
  126OSM   H10F13521   1.890   2.416   7.143  0.9506 -0.7144  1.5270
  126OSM   C11F13522   1.821   2.225   7.206 -0.6215  0.2718  0.3982
  126OSM   H11F13523   1.914   2.171   7.233 -1.1506 -1.0553 -0.3461
  126OSM   H11G13524   1.748   2.146   7.176 -0.7512  0.6853 -0.3971
  126OSM   C12F13525   1.771   2.295   7.331 -0.5882 -0.3376  0.3358
  126OSM   H12F13526   1.662   2.276   7.339 -0.6620  0.6681  2.3430
  126OSM   H12G13527   1.786   2.405   7.329  3.1202 -0.7008 -1.7492
  126OSM   C13F13528   1.832   2.230   7.458  0.3787 -0.0953 -0.5968
  126OSM   H13F13529   1.937   2.252   7.485 -0.2989  1.2338  1.1277
  126OSM   H13G13530   1.817   2.122   7.434  0.8400 -0.4451  0.6257
  126OSM   C14F13531   1.754   2.252   7.585  0.3170 -0.6669 -0.7862
  126OSM   H14F13532   1.645   2.241   7.571  0.0211  1.4613 -0.4896
  126OSM   H14G13533   1.773   2.350   7.634 -0.7790 -1.4205  1.3093
  126OSM   C15F13534   1.789   2.144   7.693  0.3979 -0.3229  0.4736
  126OSM   H15F13535   1.894   2.106   7.700  0.1744 -1.7782 -2.4283
  126OSM   H15G13536   1.748   2.050   7.650  0.6732 -0.3348  0.2307
  126OSM   C16F13537   1.729   2.178   7.829  0.5272 -0.1434 -0.4295
  126OSM   H16F13538   1.706   2.090   7.893 -1.4110  1.1660  0.7861
  126OSM   H16G13539   1.629   2.226   7.834  0.3899 -0.5870  2.7547
  126OSM   C17F13540   1.828   2.259   7.902 -0.0180  0.2230 -0.2896
  126OSM   H17F13541   1.853   2.361   7.864  1.3356  1.1136  2.6872
  126OSM   H17G13542   1.925   2.205   7.913 -0.5547 -0.3196  2.3680
  126OSM   C18F13543   1.780   2.286   8.042  1.2208  0.7393 -0.3952
  126OSM   H18F13544   1.783   2.191   8.100 -0.5247 -0.1661 -1.6641
  126OSM   H18G13545   1.674   2.320   8.043  1.0564  0.2709 -1.0290
  126OSM   H18H13546   1.839   2.366   8.091  0.0840  2.1628 -1.2874
  127OSM      N13547   4.833   5.895   5.729 -0.8178  0.4562 -0.5102
  127OSM    C1513548   4.810   5.981   5.607 -0.5754  0.6692  0.4892
  127OSM   H15A13549   4.879   5.959   5.527 -1.8961 -1.4109 -0.1778
  127OSM   H15B13550   4.831   6.081   5.641 -1.2110  0.9089  0.2091
  127OSM   H15C13551   4.709   5.987   5.570 -0.1304  1.7001 -0.6148
  127OSM    C1413552   4.980   5.888   5.754 -0.8587  0.3959  0.8971
  127OSM   H14A13553   5.025   5.982   5.781 -0.6949  0.3999  0.6085
  127OSM   H14B13554   5.033   5.870   5.662  0.5814  0.3802  1.7026
  127OSM   H14C13555   5.014   5.816   5.827 -0.1833  1.4705  1.6647
  127OSM    C1313556   4.776   5.965   5.846  0.3287 -0.1327 -0.1294
  127OSM   H13A13557   4.798   5.904   5.932  0.3360  1.2800  0.9046
  127OSM   H13B13558   4.669   5.965   5.829  0.3082 -0.6468 -0.0138
  127OSM   H13C13559   4.818   6.064   5.848  0.0177 -0.0113  0.7287
  127OSM    C1213560   4.780   5.755   5.715  0.0672  0.1119 -0.8820
  127OSM   H12A13561   4.829   5.694   5.640 -0.9441 -0.6405 -0.9559
  127OSM   H12B13562   4.675   5.759   5.689 -0.2130 -0.8353  0.0185
  127OSM    C1113563   4.774   5.668   5.840 -0.0583  0.3296 -1.3923
  127OSM   H11A13564   4.704   5.708   5.916  1.4894  1.0153 -0.2694
  127OSM   H11B13565   4.871   5.669   5.894 -1.7856  0.9225  1.9281
  127OSM      P13566   4.838   5.419   5.823 -0.0152 -0.2124  0.1685
  127OSM    O1313567   4.776   5.294   5.776  0.8012  0.0396 -0.3964
  127OSM    O1413568   4.971   5.458   5.770  0.8690  0.2325  0.1019
  127OSM    O1113569   4.843   5.401   5.980 -0.0677  0.4841 -0.4247
  127OSM    O1213570   4.743   5.539   5.796 -0.3250  0.4724 -0.1089
  127OSM    C1S13571   4.723   5.419   6.057 -0.3394 -0.1709 -0.3375
  127OSM    H1S13572   4.645   5.354   6.013 -0.3368  1.2477 -2.6026
  127OSM    H1T13573   4.677   5.520   6.050 -0.0605 -0.0199 -0.0359
  127OSM     NF13574   4.635   5.372   6.291  0.0407 -0.5535  0.2940
  127OSM    HNF13575   4.598   5.446   6.346 -0.8669 -1.1931  0.5717
  127OSM    C2S13576   4.754   5.394   6.205  0.0968  0.2545 -0.1192
  127OSM    H2S13577   4.830   5.314   6.216 -0.0646  0.1318  0.0953
  127OSM    C3S13578   4.839   5.517   6.254 -0.4885 -0.2310 -0.0577
  127OSM    H3S13579   4.770   5.604   6.255  0.0944  0.2872 -1.5201
  127OSM     O313580   4.953   5.554   6.174 -0.2394 -0.0818  0.1603
  127OSM    HO313581   4.940   5.497   6.098 -0.7475  0.0193  0.1717
  127OSM    C4S13582   4.897   5.480   6.393  0.0715 -0.4753  0.1865
  127OSM    H4S13583   4.966   5.394   6.387  0.0385 -0.5579  0.8948
  127OSM    C5S13584   4.870   5.539   6.511  0.0297  0.1358 -0.6171
  127OSM    H5S13585   4.795   5.619   6.519  0.8590  0.7690  2.1639
  127OSM    C6S13586   4.943   5.513   6.641 -0.0714 -0.2803  0.3292
  127OSM    H6S13587   5.040   5.470   6.608 -1.1392 -1.9814 -0.7865
  127OSM    H6T13588   4.886   5.447   6.711  0.0262 -0.4603  0.2397
  127OSM    C7S13589   4.982   5.642   6.726 -0.0943 -0.8846  0.6820
  127OSM    H7S13590   4.919   5.731   6.704 -0.1203 -0.8995  0.6963
  127OSM    H7T13591   5.088   5.671   6.708  0.5910 -3.7094 -0.4878
  127OSM    C8S13592   4.972   5.609   6.877 -0.1503 -0.0125 -0.0196
  127OSM    H8S13593   5.010   5.505   6.886  2.9350  0.9936 -0.2680
  127OSM    H8T13594   4.867   5.605   6.913 -0.8157  2.6102 -1.3967
  127OSM    C9S13595   5.060   5.697   6.966  0.3498  0.1089 -0.3643
  127OSM    H9S13596   5.045   5.804   6.944  0.5487  0.4289  0.9847
  127OSM    H9T13597   5.166   5.671   6.944  0.7283  1.6974 -0.4899
  127OSM   C10S13598   5.029   5.647   7.114 -0.2716 -0.4828  0.0423
  127OSM   H10S13599   5.060   5.540   7.118  1.2430 -0.0345  1.8149
  127OSM   H10T13600   4.919   5.656   7.127 -0.4122  3.1603 -2.3306
  127OSM   C11S13601   5.105   5.726   7.218  0.0865 -0.2014  0.0575
  127OSM   H11S13602   5.202   5.773   7.191 -0.5272  1.8617  1.1619
  127OSM   H11T13603   5.111   5.666   7.312  2.9884  1.3477  0.9975
  127OSM   C12S13604   5.019   5.846   7.269  0.0304  0.0775  0.1632
  127OSM   H12S13605   4.919   5.803   7.293  0.9191 -2.7807 -0.7846
  127OSM   H12T13606   5.008   5.914   7.182  0.5002  0.4942  0.4262
  127OSM   C13S13607   5.063   5.927   7.392  0.2731 -0.3925  0.3465
  127OSM   H13S13608   5.169   5.959   7.389 -0.1850  1.2940  0.7487
  127OSM   H13T13609   5.046   5.872   7.487 -1.7543 -0.0114  0.2500
  127OSM   C14S13610   4.980   6.053   7.408 -0.2871  0.2718 -0.1417
  127OSM   H14S13611   4.878   6.017   7.433 -0.4797  0.3791 -0.7402
  127OSM   H14T13612   4.965   6.118   7.318 -3.8363  2.2275  1.6135
  127OSM   C15S13613   5.006   6.141   7.533 -0.7393  0.4928  0.1880
  127OSM   H15S13614   4.923   6.215   7.531 -0.3277  0.9851  0.9559
  127OSM   H15T13615   5.103   6.191   7.512 -0.1371 -0.5647  0.3937
  127OSM   C16S13616   5.009   6.054   7.660 -0.5229  0.8316  0.7075
  127OSM   H16S13617   5.091   5.980   7.651 -1.1585  0.1550  0.3772
  127OSM   H16T13618   4.914   5.997   7.658  0.2238 -0.4510 -0.2484
  127OSM   C17S13619   5.022   6.145   7.787  0.0273 -0.2227  1.5494
  127OSM   H17S13620   4.923   6.195   7.794 -0.2102 -0.5174  0.5170
  127OSM   H17T13621   5.096   6.226   7.774 -0.9192  0.8695  2.7028
  127OSM   C18S13622   5.049   6.057   7.907 -0.2539  0.1655  0.6414
  127OSM   H18S13623   5.029   6.125   7.992 -2.8626  0.5556 -0.2079
  127OSM   H18T13624   5.155   6.024   7.910 -0.3680 -0.1818  0.9766
  127OSM   H18U13625   4.985   5.967   7.920  0.5207 -0.1848  2.2675
  127OSM    C1F13626   4.560   5.259   6.286  0.3780 -0.0124 -0.0582
  127OSM     OF13627   4.594   5.162   6.225  0.4955 -0.5020 -0.0593
  127OSM    C2F13628   4.429   5.262   6.356  0.2759 -0.9595  0.5593
  127OSM    H2F13629   4.358   5.315   6.289  1.8573  0.6181  0.0704
  127OSM    H2G13630   4.440   5.342   6.432  0.8510  0.6274 -1.1242
  127OSM    C3F13631   4.381   5.142   6.435 -0.2705 -0.2442 -0.0514
  127OSM    H3F13632   4.327   5.075   6.366  0.6207  0.4366 -1.4455
  127OSM    H3G13633   4.304   5.185   6.504  2.1519  1.6540  1.6786
  127OSM    C4F13634   4.484   5.078   6.513  0.3864 -0.4629 -0.3031
  127OSM    H4F13635   4.544   5.149   6.573  0.2581 -0.3469 -0.3136
  127OSM    H4G13636   4.542   5.014   6.443 -2.8128 -1.0990 -2.5969
  127OSM    C5F13637   4.420   4.986   6.622  0.3585  0.5358  0.0373
  127OSM    H5F13638   4.480   4.897   6.648 -2.2320 -0.8267  1.7640
  127OSM    H5G13639   4.327   4.946   6.576 -1.3549  3.3689  0.7577
  127OSM    C6F13640   4.393   5.054   6.759 -0.1542 -0.1085  0.4349
  127OSM    H6F13641   4.343   5.149   6.728 -0.4373 -0.6755 -0.9098
  127OSM    H6G13642   4.490   5.083   6.804 -0.1441  1.8393 -0.7270
  127OSM    C7F13643   4.299   4.966   6.843  0.0143 -0.0099  0.2209
  127OSM    H7F13644   4.340   4.865   6.824 -0.1848  0.3942 -2.7463
  127OSM    H7G13645   4.193   4.968   6.811  0.5706  1.1859 -1.7094
  127OSM    C8F13646   4.313   5.005   6.994 -0.6290 -0.0903  0.1261
  127OSM    H8F13647   4.421   5.023   7.013 -0.4601  0.1656 -1.0082
  127OSM    H8G13648   4.285   4.914   7.051  0.2388  0.1852  1.0112
  127OSM    C9F13649   4.242   5.129   7.043 -1.2516 -0.8481  0.0312
  127OSM    H9F13650   4.271   5.219   6.986 -0.3739  0.0807  1.8614
  127OSM   C10F13651   4.140   5.134   7.124 -0.6853  0.1964 -0.3206
  127OSM   H10F13652   4.107   5.234   7.155  0.5057  0.6027 -0.3164
  127OSM   C11F13653   4.093   5.023   7.218  0.9542 -0.2624  0.0384
  127OSM   H11F13654   4.106   4.921   7.175 -2.2898  0.7807 -4.0274
  127OSM   H11G13655   3.985   5.021   7.241  1.1318  1.2540  1.1657
  127OSM   C12F13656   4.156   5.018   7.363  0.0456 -0.6086 -0.0569
  127OSM   H12F13657   4.266   5.033   7.361  0.0138 -0.2334  0.6206
  127OSM   H12G13658   4.134   4.921   7.412  0.8897 -0.5893  0.3809
  127OSM   C13F13659   4.098   5.120   7.457  1.1446 -0.2084  0.4273
  127OSM   H13F13660   3.992   5.134   7.428  1.0419 -3.1919 -1.0429
  127OSM   H13G13661   4.145   5.220   7.452  1.2264 -0.1070  2.5121
  127OSM   C14F13662   4.110   5.078   7.602  0.8413  0.3991  0.1506
  127OSM   H14F13663   4.218   5.088   7.625  1.1740  0.2366 -1.2364
  127OSM   H14G13664   4.083   4.972   7.622  1.3180  0.4730  1.2366
  127OSM   C15F13665   4.033   5.173   7.700 -0.2520 -0.1946 -0.6042
  127OSM   H15F13666   3.925   5.147   7.710 -0.3661 -0.0824 -1.4519
  127OSM   H15G13667   4.036   5.274   7.655 -1.1243  0.8748  1.5887
  127OSM   C16F13668   4.084   5.152   7.840  0.5417 -0.3080 -0.7880
  127OSM   H16F13669   4.191   5.180   7.842  0.4754  0.0054 -1.5921
  127OSM   H16G13670   4.066   5.045   7.866 -2.1522  0.3380  0.2880
  127OSM   C17F13671   4.010   5.247   7.946  0.5781 -0.6274  0.2758
  127OSM   H17F13672   3.977   5.333   7.885 -1.6682 -0.9004  1.0067
  127OSM   H17G13673   4.087   5.268   8.024  1.3449 -3.0206  0.2625
  127OSM   C18F13674   3.888   5.186   8.012  0.1010 -0.3053 -0.1957
  127OSM   H18F13675   3.842   5.250   8.090 -0.9916  0.4369 -1.4257
  127OSM   H18G13676   3.934   5.096   8.058  1.7262  0.0288 -1.1026
  127OSM   H18H13677   3.816   5.162   7.931  0.3298  0.9400 -0.7897
  128OSM      N13678   6.620   3.807   6.063 -0.4133  0.0630 -0.4851
  128OSM    C1513679   6.712   3.906   5.991 -0.1813 -0.4666 -0.0267
  128OSM   H15A13680   6.813   3.867   5.986  1.2001  2.7893 -0.1898
  128OSM   H15B13681   6.723   3.997   6.049  4.8173  1.0522 -2.7365
  128OSM   H15C13682   6.677   3.946   5.898 -0.7047 -0.3244  0.2275
  128OSM    C1413683   6.619   3.683   5.965 -0.0194  0.1549 -0.1817
  128OSM   H14A13684   6.582   3.711   5.867 -0.0233 -0.7901 -0.4633
  128OSM   H14B13685   6.544   3.620   6.011 -0.7388 -0.4772 -2.1273
  128OSM   H14C13686   6.715   3.637   5.949  0.3854  0.8180  0.3105
  128OSM    C1313687   6.675   3.767   6.193  0.1998 -0.7731  0.8277
  128OSM   H13A13688   6.772   3.720   6.196  0.2760 -0.8843 -1.5016
  128OSM   H13B13689   6.613   3.694   6.242  0.1747 -0.3843  1.3833
  128OSM   H13C13690   6.674   3.860   6.248  0.3158  0.6789 -1.4887
  128OSM    C1213691   6.483   3.872   6.075  0.2919  0.5509  0.2418
  128OSM   H12A13692   6.497   3.961   6.135  0.9992  0.1230  0.7233
  128OSM   H12B13693   6.414   3.804   6.122 -0.0839  0.8910  0.1846
  128OSM    C1113694   6.412   3.916   5.936 -0.1152 -0.4065 -0.7136
  128OSM   H11A13695   6.484   3.970   5.871 -1.0612  1.3218 -0.3939
  128OSM   H11B13696   6.347   4.003   5.961  0.6997 -0.0506  0.2324
  128OSM      P13697   6.229   3.743   5.931 -0.5673  0.0622  0.2997
  128OSM    O1313698   6.137   3.677   5.836  0.0077 -0.6974  0.4389
  128OSM    O1413699   6.278   3.656   6.037  0.7303  0.5462  0.0487
  128OSM    O1113700   6.159   3.860   6.003  0.7628 -0.1664  0.2239
  128OSM    O1213701   6.350   3.810   5.859 -0.4438 -0.2048 -0.5264
  128OSM    C1S13702   6.027   3.874   6.067 -0.7483  0.3189 -0.5644
  128OSM    H1S13703   5.952   3.808   6.019 -0.8686 -1.1306  1.5238
  128OSM    H1T13704   5.975   3.972   6.061 -1.9555 -0.1550  1.2136
  128OSM     NF13705   5.919   3.842   6.286 -0.5899 -0.6176  0.3919
  128OSM    HNF13706   5.871   3.926   6.309  1.7532  1.6027 -2.2002
  128OSM    C2S13707   6.051   3.850   6.221 -0.0056 -0.4473  0.5170
  128OSM    H2S13708   6.095   3.748   6.236 -0.6942 -0.7876  0.2483
  128OSM    C3S13709   6.134   3.967   6.286 -0.1594  0.1386 -0.1625
  128OSM    H3S13710   6.078   4.063   6.288 -0.0248  0.2935 -2.0032
  128OSM     O313711   6.255   3.996   6.211  0.4271  0.3101 -0.1852
  128OSM    HO313712   6.252   3.941   6.133  1.9638 -1.0847  0.6465
  128OSM    C4S13713   6.167   3.951   6.433  0.6837  0.4489  0.3019
  128OSM    H4S13714   6.074   3.962   6.492 -0.2379 -0.4734 -0.9151
  128OSM    C5S13715   6.270   3.895   6.497 -0.2092 -0.0076 -0.8788
  128OSM    H5S13716   6.367   3.872   6.449 -0.3130  0.7948 -1.4909
  128OSM    C6S13717   6.267   3.854   6.644 -0.1386 -0.1537 -0.8149
  128OSM    H6S13718   6.332   3.923   6.702 -0.1410 -1.0181  0.2476
  128OSM    H6T13719   6.316   3.755   6.655  0.3064  0.2867  1.7820
  128OSM    C7S13720   6.124   3.845   6.699  0.0093 -0.7108 -0.0426
  128OSM    H7S13721   6.068   3.764   6.647 -1.7692 -0.7623  1.8196
  128OSM    H7T13722   6.065   3.934   6.671  1.2356 -0.8498 -3.4888
  128OSM    C8S13723   6.114   3.803   6.846  0.7465  0.3361  0.0596
  128OSM    H8S13724   6.160   3.705   6.871 -1.3002 -1.1207 -1.4782
  128OSM    H8T13725   6.006   3.786   6.867  0.8075  0.4037  0.4419
  128OSM    C9S13726   6.152   3.914   6.944 -0.0601  0.0384 -0.2142
  128OSM    H9S13727   6.121   4.017   6.917  2.5436  0.6463 -1.2573
  128OSM    H9T13728   6.263   3.924   6.941 -0.1326  0.8375 -1.0960
  128OSM   C10S13729   6.099   3.889   7.086  0.2183 -0.1237  0.1246
  128OSM   H10S13730   6.074   3.781   7.088 -0.2071 -0.0262  0.1806
  128OSM   H10T13731   6.004   3.945   7.099  0.9171  1.3054 -0.6667
  128OSM   C11S13732   6.194   3.937   7.198  0.9149  0.3788  0.2582
  128OSM   H11S13733   6.180   4.046   7.212 -0.0348  0.3890 -0.6078
  128OSM   H11T13734   6.296   3.917   7.157  0.6638 -0.2570 -0.0833
  128OSM   C12S13735   6.183   3.865   7.332 -0.8741 -0.0463 -0.3861
  128OSM   H12S13736   6.210   3.758   7.325 -0.3956 -0.0334  1.0305
  128OSM   H12T13737   6.075   3.861   7.356 -0.9842  0.4771 -0.7586
  128OSM   C13S13738   6.282   3.931   7.442  0.2256 -0.1177 -0.2613
  128OSM   H13S13739   6.256   4.036   7.466  1.1062 -0.2155  1.2644
  128OSM   H13T13740   6.384   3.936   7.396  0.7183  1.0611  0.9079
  128OSM   C14S13741   6.287   3.842   7.572 -0.0442 -0.9488 -0.1926
  128OSM   H14S13742   6.380   3.872   7.625 -1.4327  1.0168  1.2559
  128OSM   H14T13743   6.294   3.735   7.544  1.5615 -0.6518 -1.0461
  128OSM   C15S13744   6.163   3.861   7.664 -0.4469  0.2293 -0.4844
  128OSM   H15S13745   6.068   3.837   7.610 -1.1519  0.2599  0.7007
  128OSM   H15T13746   6.160   3.964   7.705  1.1911 -0.3793  1.2949
  128OSM   C16S13747   6.166   3.773   7.787  0.3767  0.2816 -0.2272
  128OSM   H16S13748   6.152   3.669   7.751  0.6625 -0.1867  0.9516
  128OSM   H16T13749   6.074   3.792   7.846  0.3167 -4.1106  1.4752
  128OSM   C17S13750   6.290   3.783   7.880 -0.1153  0.1027  0.1712
  128OSM   H17S13751   6.317   3.891   7.882  1.5939 -0.3100  0.9682
  128OSM   H17T13752   6.375   3.729   7.833  0.9238 -1.1564  3.1708
  128OSM   C18S13753   6.262   3.741   8.025  0.2364 -0.0371  0.7466
  128OSM   H18S13754   6.198   3.651   8.011  2.1679 -1.0990 -2.2212
  128OSM   H18T13755   6.202   3.815   8.082 -1.0030  0.1567 -0.7329
  128OSM   H18U13756   6.351   3.705   8.080  0.4890 -0.8720 -0.1772
  128OSM    C1F13757   5.844   3.729   6.290  0.5044 -0.2670 -0.3158
  128OSM     OF13758   5.893   3.631   6.231  0.1794 -0.2549 -0.2180
  128OSM    C2F13759   5.710   3.730   6.359  0.1913 -0.5556  0.2433
  128OSM    H2F13760   5.638   3.727   6.275 -0.0646  0.1202  0.4338
  128OSM    H2G13761   5.683   3.826   6.409 -1.9262 -0.6426 -0.6500
  128OSM    C3F13762   5.683   3.613   6.456 -0.0870  0.9262  0.2341
  128OSM    H3F13763   5.712   3.517   6.409 -2.1297  0.5336 -0.3205
  128OSM    H3G13764   5.575   3.606   6.481  0.1227 -2.2131  0.5670
  128OSM    C4F13765   5.749   3.623   6.594 -0.4028 -0.5131  0.3859
  128OSM    H4F13766   5.845   3.676   6.579 -0.9447  0.4348  0.2228
  128OSM    H4G13767   5.780   3.521   6.626  0.7839 -0.1728  0.3450
  128OSM    C5F13768   5.663   3.692   6.700 -0.2544  0.5668 -0.0553
  128OSM    H5F13769   5.591   3.621   6.746 -1.8270  1.6864 -0.6895
  128OSM    H5G13770   5.610   3.777   6.652  0.1857  0.4816 -0.7019
  128OSM    C6F13771   5.760   3.757   6.793  0.0675  0.0523 -0.2589
  128OSM    H6F13772   5.833   3.815   6.734  0.3129 -0.0589 -0.0663
  128OSM    H6G13773   5.816   3.676   6.845  1.0924 -0.3511 -1.9264
  128OSM    C7F13774   5.685   3.829   6.904  0.2240  0.0846 -0.4671
  128OSM    H7F13775   5.594   3.871   6.856  1.1220  3.6476  0.6378
  128OSM    H7G13776   5.727   3.925   6.941  0.7866 -1.2846  2.7479
  128OSM    C8F13777   5.655   3.736   7.020  0.2488  0.5594  0.1641
  128OSM    H8F13778   5.750   3.705   7.069 -1.6040 -1.7876  2.4890
  128OSM    H8G13779   5.623   3.640   6.975 -0.2466  1.0959 -0.6675
  128OSM    C9F13780   5.562   3.802   7.117  0.2509  0.0500  0.5137
  128OSM    H9F13781   5.465   3.828   7.072  0.4515 -0.0227  0.0398
  128OSM   C10F13782   5.582   3.832   7.247 -0.5658 -0.3666  0.5885
  128OSM   H10F13783   5.513   3.901   7.299 -1.0277  0.1121 -0.6180
  128OSM   C11F13784   5.707   3.808   7.330 -0.5556 -0.4561 -0.3387
  128OSM   H11F13785   5.762   3.904   7.336  0.4359 -0.9984 -0.4751
  128OSM   H11G13786   5.771   3.731   7.280 -1.0587 -0.6782 -0.6526
  128OSM   C12F13787   5.678   3.770   7.475  0.1961  0.1352  0.9277
  128OSM   H12F13788   5.604   3.845   7.511  0.7266  0.7401  0.7724
  128OSM   H12G13789   5.767   3.780   7.541  0.3250  1.5297  0.5769
  128OSM   C13F13790   5.600   3.634   7.496 -0.1771  0.1540  0.3103
  128OSM   H13F13791   5.653   3.564   7.429 -0.3439 -0.6457  0.9939
  128OSM   H13G13792   5.498   3.648   7.455  0.1088  0.3654 -0.3363
  128OSM   C14F13793   5.603   3.590   7.642  0.2593 -0.0760  0.5196
  128OSM   H14F13794   5.701   3.625   7.681  0.0274  3.2392 -1.4788
  128OSM   H14G13795   5.589   3.480   7.640  1.1999 -0.2187 -2.3599
  128OSM   C15F13796   5.501   3.665   7.724 -0.0499  0.2054  0.2232
  128OSM   H15F13797   5.395   3.647   7.694 -0.3411 -0.9577  1.7908
  128OSM   H15G13798   5.527   3.770   7.698  0.5833 -0.7569 -3.5275
  128OSM   C16F13799   5.530   3.643   7.874 -0.1796  0.0831 -0.8094
  128OSM   H16F13800   5.637   3.673   7.884  0.0364 -1.3822  2.0101
  128OSM   H16G13801   5.524   3.534   7.890  0.3540  0.4286  2.2121
  128OSM   C17F13802   5.444   3.711   7.983 -1.0136 -0.1094  0.4607
  128OSM   H17F13803   5.466   3.820   7.985  0.5246 -0.3990  2.3514
  128OSM   H17G13804   5.473   3.663   8.078  1.6813 -1.0917 -0.7693
  128OSM   C18F13805   5.298   3.671   7.967  0.5326 -0.5099 -0.2595
  128OSM   H18F13806   5.299   3.565   7.931  3.2787  0.1864 -2.5844
  128OSM   H18G13807   5.246   3.737   7.894  2.2568  1.2328  0.0290
  128OSM   H18H13808   5.242   3.685   8.062  1.7675 -1.5511  0.6523
  129OSM      N13809   6.548   0.136   6.103  0.2860  0.5263 -0.2942
  129OSM    C1513810   6.485   0.255   6.031 -0.2015  0.5579  0.2058
  129OSM   H15A13811   6.380   0.266   6.053  0.2902  1.3830  2.3701
  129OSM   H15B13812   6.489   0.230   5.926 -0.8910 -1.4922  0.6206
  129OSM   H15C13813   6.534   0.351   6.035 -2.5398  1.9360 -1.5305
  129OSM    C1413814   6.672   0.110   6.025  0.4628  0.3492  0.6978
  129OSM   H14A13815   6.648   0.065   5.930  0.6957  1.1482  0.2536
  129OSM   H14B13816   6.718   0.026   6.076 -1.2733  0.4682  2.6128
  129OSM   H14C13817   6.730   0.199   6.008 -1.1768  1.0107 -2.0526
  129OSM    C1313818   6.580   0.177   6.242  0.1365  0.0776  0.4514
  129OSM   H13A13819   6.659   0.250   6.227  0.1120 -0.5127 -3.8633
  129OSM   H13B13820   6.610   0.093   6.302 -1.2668 -2.4592 -2.1164
  129OSM   H13C13821   6.494   0.217   6.294 -0.2305 -0.7547  0.4930
  129OSM    C1213822   6.449   0.023   6.104 -0.2534 -0.0735 -0.2877
  129OSM   H12A13823   6.437  -0.003   6.000 -0.1044  1.6202 -0.7524
  129OSM   H12B13824   6.358   0.060   6.150 -0.3915  0.2095 -0.7890
  129OSM    C1113825   6.489  -0.106   6.181 -0.4242  0.0653  0.3223
  129OSM   H11A13826   6.402  -0.174   6.167 -0.7244  0.0735  1.9684
  129OSM   H11B13827   6.494  -0.075   6.287 -0.9994  1.4123 -0.0131
  129OSM      P13828   6.611  -0.270   6.020  0.3264 -0.0344 -0.0569
  129OSM    O1313829   6.496  -0.255   5.932  1.0351 -0.1894 -0.0485
  129OSM    O1413830   6.745  -0.301   5.961 -0.4712  0.3091  0.2010
  129OSM    O1113831   6.582  -0.387   6.117  0.2004 -0.1477  0.1306
  129OSM    O1213832   6.617  -0.146   6.122 -0.1305  0.2832 -0.1772
  129OSM    C1S13833   6.653  -0.413   6.240  0.7361 -0.5985 -0.2154
  129OSM    H1S13834   6.658  -0.324   6.307 -0.5771  0.8034 -1.8933
  129OSM    H1T13835   6.758  -0.444   6.224  0.6488 -0.8485 -0.2943
  129OSM     NF13836   6.622  -0.526   6.455 -0.1701 -0.2837  0.2626
  129OSM    HNF13837   6.691  -0.590   6.489 -1.2872 -1.0679  1.1087
  129OSM    C2S13838   6.577  -0.525   6.323  0.0913  0.2305  0.6909
  129OSM    H2S13839   6.469  -0.499   6.326  0.1431  0.8059 -1.3835
  129OSM    C3S13840   6.587  -0.652   6.235  0.5328  0.7112 -0.1026
  129OSM    H3S13841   6.695  -0.674   6.219  0.4900  2.2479 -3.3248
  129OSM     O313842   6.529  -0.649   6.105 -0.7418 -0.6078 -0.8522
  129OSM    HO313843   6.514  -0.555   6.090 -1.0439 -0.7251 -1.3008
  129OSM    C4S13844   6.528  -0.767   6.320  0.7749  0.3516 -0.1789
  129OSM    H4S13845   6.605  -0.817   6.381  0.7389 -1.3049 -1.4411
  129OSM    C5S13846   6.400  -0.802   6.332 -0.0044 -0.2426 -0.0846
  129OSM    H5S13847   6.326  -0.736   6.285  1.4345  2.1141  0.7687
  129OSM    C6S13848   6.335  -0.908   6.416 -0.1668  0.4358 -0.6373
  129OSM    H6S13849   6.308  -0.984   6.341  0.0019 -1.0655  0.7523
  129OSM    H6T13850   6.239  -0.877   6.463 -1.2218 -1.3680 -1.5240
  129OSM    C7S13851   6.437  -0.983   6.511 -0.2391 -0.4549  0.8006
  129OSM    H7S13852   6.515  -1.017   6.440 -1.7060 -0.4029 -0.8925
  129OSM    H7T13853   6.384  -1.071   6.554 -1.2433 -0.2123  0.0760
  129OSM    C8S13854   6.503  -0.898   6.624  0.1124  0.6107  0.0369
  129OSM    H8S13855   6.426  -0.877   6.702 -2.6650 -0.8502 -2.1429
  129OSM    H8T13856   6.523  -0.796   6.585 -0.5562  0.4196 -0.8337
  129OSM    C9S13857   6.623  -0.971   6.678 -0.1669  0.1388 -0.5818
  129OSM    H9S13858   6.698  -0.997   6.601  1.3856 -2.6837  1.6906
  129OSM    H9T13859   6.571  -1.065   6.705 -0.1784 -0.3524 -2.2073
  129OSM   C10S13860   6.699  -0.914   6.805  0.2751  0.1958  0.4036
  129OSM   H10S13861   6.768  -0.836   6.767  0.2502 -1.1229 -2.6716
  129OSM   H10T13862   6.762  -0.995   6.847  0.7981 -0.4033 -1.4342
  129OSM   C11S13863   6.614  -0.865   6.918  0.0727 -0.7360  0.0398
  129OSM   H11S13864   6.563  -0.951   6.967 -1.1453 -1.3946 -2.2239
  129OSM   H11T13865   6.539  -0.789   6.888 -0.3134 -1.0317  0.2382
  129OSM   C12S13866   6.704  -0.796   7.020 -0.0794 -1.2149 -0.6166
  129OSM   H12S13867   6.770  -0.722   6.971  1.1094 -0.7963  1.5136
  129OSM   H12T13868   6.787  -0.862   7.053 -0.4339 -1.1474  0.4707
  129OSM   C13S13869   6.637  -0.739   7.150  0.6805 -0.2097  0.0788
  129OSM   H13S13870   6.556  -0.667   7.123  1.7351  1.3807  1.0228
  129OSM   H13T13871   6.700  -0.684   7.223  0.8750  0.4517 -0.5685
  129OSM   C14S13872   6.578  -0.854   7.232  0.5551  0.0311 -0.2304
  129OSM   H14S13873   6.514  -0.920   7.170 -0.0772 -1.7035  2.1359
  129OSM   H14T13874   6.511  -0.814   7.310 -0.4749  0.1960 -1.1743
  129OSM   C15S13875   6.685  -0.943   7.295 -0.1626  0.0450 -0.1115
  129OSM   H15S13876   6.763  -0.889   7.353 -1.2747 -0.2046  1.7116
  129OSM   H15T13877   6.729  -1.004   7.214  1.7492  3.9557 -2.2794
  129OSM   C16S13878   6.618  -1.046   7.391 -0.2454  0.2468 -0.4449
  129OSM   H16S13879   6.574  -1.128   7.330  0.3826 -0.4402  0.0180
  129OSM   H16T13880   6.538  -1.009   7.459 -1.3336 -1.8953 -0.4425
  129OSM   C17S13881   6.718  -1.110   7.490  0.2865 -0.6447  0.1080
  129OSM   H17S13882   6.666  -1.203   7.522  0.0051 -0.6021 -0.2167
  129OSM   H17T13883   6.726  -1.048   7.582 -1.8329 -1.3402  0.8372
  129OSM   C18S13884   6.846  -1.159   7.425  0.2425  0.2815 -0.4328
  129OSM   H18S13885   6.902  -1.226   7.494 -0.3114 -0.0515 -0.2945
  129OSM   H18T13886   6.913  -1.074   7.400  0.0486 -0.1669 -2.6525
  129OSM   H18U13887   6.819  -1.218   7.335 -0.1522 -0.4614  0.1571
  129OSM    C1F13888   6.588  -0.430   6.543 -1.0124  0.7277 -0.5545
  129OSM     OF13889   6.537  -0.328   6.516  0.4250 -0.6583 -0.3013
  129OSM    C2F13890   6.625  -0.468   6.687  0.5286 -0.1497  0.2089
  129OSM    H2F13891   6.733  -0.492   6.698  0.8038 -0.0480 -1.9887
  129OSM    H2G13892   6.565  -0.560   6.704  0.5786 -0.7142 -2.3785
  129OSM    C3F13893   6.580  -0.361   6.790  0.6141 -0.0005 -0.1276
  129OSM    H3F13894   6.472  -0.341   6.775  0.2803  0.1828  2.1880
  129OSM    H3G13895   6.622  -0.260   6.773 -2.1172  1.3120  0.3649
  129OSM    C4F13896   6.622  -0.407   6.930 -0.5194 -0.0400  0.2788
  129OSM    H4F13897   6.581  -0.508   6.951 -0.0956 -0.2657  0.0538
  129OSM    H4G13898   6.582  -0.339   7.009  1.7276  1.0088  0.5997
  129OSM    C5F13899   6.773  -0.405   6.955 -0.1264 -0.9455 -0.3558
  129OSM    H5F13900   6.828  -0.338   6.885  2.0609 -1.3387  0.8748
  129OSM    H5G13901   6.809  -0.509   6.942  0.9673 -0.6648  0.2336
  129OSM    C6F13902   6.800  -0.367   7.104 -1.3780  0.2305 -0.1685
  129OSM    H6F13903   6.729  -0.428   7.164  0.4050 -2.3034 -0.4399
  129OSM    H6G13904   6.788  -0.257   7.112  0.4940  0.3386  2.0066
  129OSM    C7F13905   6.938  -0.399   7.143 -1.1446  0.2541 -0.1924
  129OSM    H7F13906   6.981  -0.342   7.228  0.8110  2.6719 -2.6547
  129OSM    H7G13907   7.001  -0.377   7.054 -1.2955  1.1886 -0.0795
  129OSM    C8F13908   6.947  -0.554   7.172  0.6434  0.0199 -0.0660
  129OSM    H8F13909   6.908  -0.605   7.081  0.8354 -0.3156  0.0368
  129OSM    H8G13910   6.880  -0.580   7.257  0.8880 -1.1363 -0.2133
  129OSM    C9F13911   7.086  -0.607   7.205 -0.1436 -0.1564 -0.4709
  129OSM    H9F13912   7.145  -0.642   7.119  1.3033 -0.0347  0.4418
  129OSM   C10F13913   7.141  -0.597   7.325  0.1492 -0.1846  0.2898
  129OSM   H10F13914   7.243  -0.630   7.350 -0.0959  0.0106  1.6264
  129OSM   C11F13915   7.070  -0.530   7.442  1.2993  0.2748  0.6012
  129OSM   H11F13916   6.982  -0.468   7.417 -0.1463 -2.1167 -0.6142
  129OSM   H11G13917   7.135  -0.463   7.502  0.5772  0.5778  1.0608
  129OSM   C12F13918   7.026  -0.633   7.554  0.1371  0.1641  0.4228
  129OSM   H12F13919   7.108  -0.699   7.590 -1.2223 -1.2746  1.0025
  129OSM   H12G13920   6.961  -0.707   7.503 -0.9595  2.2883 -1.4767
  129OSM   C13F13921   6.963  -0.571   7.678 -0.0442  0.0421  0.3666
  129OSM   H13F13922   6.867  -0.535   7.635  0.4641  0.4955 -0.4198
  129OSM   H13G13923   7.028  -0.486   7.708 -0.7910 -0.3999  3.5616
  129OSM   C14F13924   6.938  -0.666   7.796 -0.4188  0.1705  0.3513
  129OSM   H14F13925   6.940  -0.757   7.732  0.3366  2.0012 -2.4474
  129OSM   H14G13926   6.833  -0.654   7.827 -0.1489 -0.1081  1.3945
  129OSM   C15F13927   7.018  -0.656   7.923 -0.6020  0.1402 -0.1413
  129OSM   H15F13928   6.996  -0.572   7.993  2.4056  2.2517 -1.5557
  129OSM   H15G13929   7.127  -0.658   7.900 -0.2091  0.7148  1.5087
  129OSM   C16F13930   6.991  -0.774   8.012 -0.1360 -0.4295  0.5974
  129OSM   H16F13931   7.032  -0.862   7.957  1.2100  0.1178  0.6858
  129OSM   H16G13932   6.880  -0.776   8.022 -0.4421  1.8411 -1.4607
  129OSM   C17F13933   7.039  -0.753   8.153 -0.5161 -0.1259 -0.5519
  129OSM   H17F13934   7.032  -0.646   8.185 -2.1780 -0.0221 -1.1507
  129OSM   H17G13935   7.143  -0.791   8.155 -0.3256  0.3263 -1.4725
  129OSM   C18F13936   6.948  -0.817   8.261  0.2032 -0.8509  0.1878
  129OSM   H18F13937   6.926  -0.925   8.249 -0.5961 -0.7285  0.5386
  129OSM   H18G13938   6.855  -0.760   8.242  0.6036  0.0549  0.8600
  129OSM   H18H13939   6.974  -0.791   8.365  0.9567 -0.6642 -0.0374
  130OSM      N13940   0.448   3.379   5.610 -0.3783 -0.6800  0.4077
  130OSM    C1513941   0.524   3.473   5.696 -0.7660 -0.2856 -0.1960
  130OSM   H15A13942   0.544   3.564   5.641 -1.6641 -0.8380 -1.4737
  130OSM   H15B13943   0.621   3.438   5.728 -1.0970 -0.6939  0.3618
  130OSM   H15C13944   0.463   3.488   5.784  0.4907  1.3437  0.4578
  130OSM    C1413945   0.301   3.410   5.625 -0.7164  0.3008 -0.2750
  130OSM   H14A13946   0.274   3.375   5.723  1.6514  1.6106  0.9113
  130OSM   H14B13947   0.248   3.347   5.555 -1.0174 -0.8236  0.9239
  130OSM   H14C13948   0.267   3.512   5.621 -0.3659  0.4596  0.6480
  130OSM    C1313949   0.498   3.410   5.470  0.3044 -0.3031  0.3707
  130OSM   H13A13950   0.470   3.513   5.456 -3.4078 -1.1554  0.5317
  130OSM   H13B13951   0.465   3.355   5.383  1.7779  0.8459 -0.9665
  130OSM   H13C13952   0.606   3.406   5.463  0.4520  2.4873  0.2401
  130OSM    C1213953   0.486   3.233   5.642  0.5920 -0.0951  0.2481
  130OSM   H12A13954   0.577   3.209   5.588 -0.6527 -1.5392 -1.3040
  130OSM   H12B13955   0.419   3.163   5.595  1.2589  0.2855 -1.3300
  130OSM    C1113956   0.501   3.192   5.794 -0.2775 -0.4773  0.1063
  130OSM   H11A13957   0.590   3.247   5.831 -1.6169  1.4209  0.5976
  130OSM   H11B13958   0.527   3.084   5.801 -1.1356 -0.7344 -0.5530
  130OSM      P13959   0.270   3.145   5.911  0.2825 -0.1382  0.1452
  130OSM    O1313960   0.183   3.210   6.013 -0.4813  0.0068  0.0949
  130OSM    O1413961   0.207   3.104   5.782 -0.2732 -1.0807  0.1228
  130OSM    O1113962   0.325   3.013   5.982 -0.1689  0.2374  0.2398
  130OSM    O1213963   0.391   3.230   5.876 -0.8316 -0.2035 -0.8267
  130OSM    C1S13964   0.423   3.018   6.086  0.3605  0.5777  0.1538
  130OSM    H1S13965   0.472   3.118   6.086 -0.3315  0.9370 -1.0964
  130OSM    H1T13966   0.493   2.933   6.074 -2.2932 -1.4994 -1.5159
  130OSM     NF13967   0.445   3.015   6.340 -0.5081  0.0345 -0.1657
  130OSM    HNF13968   0.491   2.943   6.391 -1.0144 -0.4755 -0.4174
  130OSM    C2S13969   0.359   2.979   6.226 -0.5102 -0.2102 -0.1100
  130OSM    H2S13970   0.269   3.044   6.229 -0.9880 -0.7571 -1.6779
  130OSM    C3S13971   0.292   2.840   6.226 -1.2686 -0.1259 -0.4543
  130OSM    H3S13972   0.359   2.757   6.195 -1.7392 -0.7904  0.2745
  130OSM     O313973   0.189   2.829   6.125 -0.1439 -0.0125  0.4094
  130OSM    HO313974   0.201   2.900   6.061 -3.9403  0.2319 -0.2722
  130OSM    C4S13975   0.237   2.798   6.369  0.6947 -0.0411 -0.0330
  130OSM    H4S13976   0.163   2.872   6.403  0.3754  0.1499 -1.1043
  130OSM    C5S13977   0.266   2.684   6.439 -0.2519 -1.2438 -0.3016
  130OSM    H5S13978   0.348   2.628   6.392  0.8191 -0.5695  0.7016
  130OSM    C6S13979   0.211   2.633   6.574  0.9210  0.1542  0.2676
  130OSM    H6S13980   0.188   2.525   6.575 -0.3607  0.4114  0.1469
  130OSM    H6T13981   0.112   2.682   6.583  1.0191  0.1747  1.3373
  130OSM    C7S13982   0.287   2.681   6.695 -0.3611  0.9500  0.4342
  130OSM    H7S13983   0.313   2.789   6.694 -0.9715  1.1590 -3.2095
  130OSM    H7T13984   0.373   2.611   6.699 -0.3161  0.9293 -0.8020
  130OSM    C8S13985   0.200   2.648   6.826 -0.5760 -0.2628  0.2270
  130OSM    H8S13986   0.168   2.542   6.812  0.5000 -0.7924  1.4965
  130OSM    H8T13987   0.114   2.717   6.833 -0.5084 -0.1825  0.2719
  130OSM    C9S13988   0.290   2.658   6.948  0.2730  0.0725 -0.0390
  130OSM    H9S13989   0.319   2.765   6.943  1.0680 -0.0212  1.8809
  130OSM    H9T13990   0.382   2.594   6.946  0.0695 -0.2311 -1.9622
  130OSM   C10S13991   0.211   2.636   7.077  1.0422  0.2361  0.1957
  130OSM   H10S13992   0.105   2.663   7.061  0.5824 -2.2265 -1.4698
  130OSM   H10T13993   0.234   2.693   7.169 -1.6193  3.0649 -0.7613
  130OSM   C11S13994   0.195   2.487   7.120  0.0289  0.6715  0.4987
  130OSM   H11S13995   0.281   2.473   7.190  0.7557 -3.5617 -0.9552
  130OSM   H11T13996   0.201   2.427   7.027  1.3929  0.6477  0.5709
  130OSM   C12S13997   0.068   2.444   7.202 -0.5913  0.6266  0.5895
  130OSM   H12S13998  -0.019   2.454   7.133  0.1704 -0.8360 -0.6597
  130OSM   H12T13999   0.054   2.509   7.290 -0.2256  1.3265  0.1371
  130OSM   C13S14000   0.078   2.301   7.251  0.8592  0.4837 -0.4954
  130OSM   H13S14001   0.152   2.293   7.333 -0.3683  2.2728  0.8718
  130OSM   H13T14002   0.113   2.251   7.158 -0.4221 -3.2497  0.8441
  130OSM   C14S14003  -0.059   2.261   7.312  0.2233 -0.4457 -1.3063
  130OSM   H14S14004  -0.066   2.152   7.291 -0.7652 -0.3192 -1.6503
  130OSM   H14T14005  -0.141   2.315   7.262 -0.8999 -2.6243 -1.9536
  130OSM   C15S14006  -0.051   2.302   7.459 -1.0484  0.0492  0.2672
  130OSM   H15S14007  -0.025   2.410   7.465  0.6565 -0.2636 -0.7874
  130OSM   H15T14008   0.008   2.234   7.523 -1.0026 -1.2816 -1.1378
  130OSM   C16S14009  -0.195   2.296   7.528  0.0972  0.7239  0.0366
  130OSM   H16S14010  -0.221   2.189   7.546  0.8630  0.4124 -0.6920
  130OSM   H16T14011  -0.264   2.339   7.453  1.1151 -0.2932 -1.5355
  130OSM   C17S14012  -0.199   2.365   7.660 -0.1573 -0.7648 -0.5900
  130OSM   H17S14013  -0.306   2.390   7.679  0.0639 -0.4769  0.3215
  130OSM   H17T14014  -0.150   2.464   7.654 -0.3931 -0.6605 -0.8355
  130OSM   C18S14015  -0.148   2.290   7.783 -1.5755 -0.2084  0.1489
  130OSM   H18S14016  -0.156   2.336   7.884 -2.6655 -0.6766  0.2923
  130OSM   H18T14017  -0.041   2.265   7.770 -1.6584 -1.0945  1.0139
  130OSM   H18U14018  -0.205   2.194   7.779 -3.8454  1.0432  0.7297
  130OSM    C1F14019   0.478   3.141   6.378  0.1626  0.3076 -0.2252
  130OSM     OF14020   0.458   3.235   6.305 -0.2897 -0.0334  0.6046
  130OSM    C2F14021   0.536   3.151   6.513  0.0397 -0.4838  0.0812
  130OSM    H2F14022   0.644   3.132   6.495 -0.1459  0.0593 -1.6861
  130OSM    H2G14023   0.503   3.076   6.588  1.5789  1.4991  2.9550
  130OSM    C3F14024   0.525   3.296   6.564  0.2804  0.3725  0.4971
  130OSM    H3F14025   0.419   3.329   6.569  0.2706  0.3667  0.3481
  130OSM    H3G14026   0.576   3.364   6.492  1.0693 -0.0097  0.6799
  130OSM    C4F14027   0.576   3.314   6.711  0.3075  0.5218 -0.4424
  130OSM    H4F14028   0.682   3.280   6.708  0.1786  0.1527 -1.8615
  130OSM    H4G14029   0.517   3.247   6.778 -0.3030  1.5532  0.0766
  130OSM    C5F14030   0.569   3.443   6.775 -0.3468 -0.2490  0.0752
  130OSM    H5F14031   0.465   3.482   6.767 -0.5036 -0.8530 -1.1746
  130OSM    H5G14032   0.639   3.506   6.717  0.1720  1.5969  2.5625
  130OSM    C6F14033   0.611   3.450   6.922 -0.3059  0.2550  0.0501
  130OSM    H6F14034   0.527   3.400   6.975 -1.6628  3.1541  0.8688
  130OSM    H6G14035   0.598   3.556   6.956 -0.5758  0.2297  0.0268
  130OSM    C7F14036   0.739   3.376   6.958 -0.0760  0.1983  0.0745
  130OSM    H7F14037   0.822   3.439   6.918 -0.3301  0.0734 -0.6749
  130OSM    H7G14038   0.752   3.278   6.905  0.2904 -0.6743  1.7139
  130OSM    C8F14039   0.742   3.345   7.109  0.3723 -0.4100  0.2161
  130OSM    H8F14040   0.712   3.435   7.166 -0.7126 -0.3158 -0.4669
  130OSM    H8G14041   0.848   3.313   7.122  0.3465 -0.4706  0.2803
  130OSM    C9F14042   0.653   3.231   7.144 -0.3714  0.1221 -0.6242
  130OSM    H9F14043   0.613   3.178   7.057 -1.3213 -0.3245  0.0744
  130OSM   C10F14044   0.624   3.196   7.270  0.9137 -0.5917  0.2395
  130OSM   H10F14045   0.559   3.108   7.280  0.1996 -0.1477 -0.3688
  130OSM   C11F14046   0.660   3.267   7.394  0.6116 -0.3400 -0.3415
  130OSM   H11F14047   0.601   3.360   7.402  0.0020 -0.7787  0.3877
  130OSM   H11G14048   0.763   3.308   7.391  0.3036  0.4037 -3.0845
  130OSM   C12F14049   0.640   3.190   7.532  0.2109  0.3021 -0.0786
  130OSM   H12F14050   0.700   3.098   7.517  0.7458  0.8183 -1.2639
  130OSM   H12G14051   0.534   3.161   7.545  0.3459 -0.5411 -0.7928
  130OSM   C13F14052   0.683   3.265   7.654 -0.6421  0.1587  0.4070
  130OSM   H13F14053   0.624   3.359   7.657 -1.8800 -0.4862 -1.5822
  130OSM   H13G14054   0.789   3.296   7.639 -0.9104  0.1198 -2.0541
  130OSM   C14F14055   0.685   3.197   7.790 -0.0510 -0.4435  0.4410
  130OSM   H14F14056   0.755   3.112   7.783 -1.0278 -1.1704 -1.2043
  130OSM   H14G14057   0.580   3.167   7.810 -0.3002  0.4298  0.5163
  130OSM   C15F14058   0.726   3.280   7.908 -0.4618 -0.6075  0.1591
  130OSM   H15F14059   0.660   3.366   7.930 -0.6259 -0.6750 -0.0593
  130OSM   H15G14060   0.824   3.331   7.898 -2.1985  3.6913  2.4406
  130OSM   C16F14061   0.747   3.189   8.036  0.3040  0.4812  0.2616
  130OSM   H16F14062   0.845   3.137   8.037  0.7756  1.3537  1.5643
  130OSM   H16G14063   0.673   3.106   8.037  0.6187  0.1230 -1.4755
  130OSM   C17F14064   0.745   3.257   8.176  0.1693  0.7409  0.3304
  130OSM   H17F14065   0.824   3.335   8.181  0.3600  0.6627 -1.0192
  130OSM   H17G14066   0.773   3.177   8.248 -0.5021  0.4797  0.3052
  130OSM   C18F14067   0.617   3.322   8.218  0.3623 -0.0485 -0.3158
  130OSM   H18F14068   0.526   3.263   8.193  0.5134 -1.2120  1.6295
  130OSM   H18G14069   0.612   3.425   8.178 -2.3413  0.1793  0.3874
  130OSM   H18H14070   0.615   3.326   8.329 -0.8755  0.6938 -0.3428
  131OSM      N14071   6.760   5.333   5.956 -0.6023  0.5531 -0.1862
  131OSM    C1514072   6.671   5.417   5.864  0.4111  0.0434  0.3136
  131OSM   H15A14073   6.692   5.398   5.760  1.2159  1.6563  0.1422
  131OSM   H15B14074   6.694   5.523   5.872 -3.3495  0.9474  1.1603
  131OSM   H15C14075   6.566   5.402   5.887  0.4041 -2.3526 -0.9885
  131OSM    C1414076   6.700   5.199   5.985 -0.2321 -0.3241  0.2717
  131OSM   H14A14077   6.776   5.164   6.054  1.7394  0.6605 -1.3108
  131OSM   H14B14078   6.681   5.138   5.898 -2.0591  2.0096 -1.0861
  131OSM   H14C14079   6.611   5.205   6.046  0.4046 -0.1339  1.2110
  131OSM    C1314080   6.894   5.325   5.888 -0.9941 -0.5527  0.0566
  131OSM   H13A14081   6.891   5.252   5.809  1.7398 -0.5030 -0.2071
  131OSM   H13B14082   6.978   5.297   5.950  0.7881 -0.6329 -2.2380
  131OSM   H13C14083   6.934   5.414   5.841  0.8590 -1.6009 -0.4430
  131OSM    C1214084   6.785   5.411   6.083 -0.0514 -0.2002 -0.5064
  131OSM   H12A14085   6.861   5.356   6.138  1.5428  0.4722 -1.9317
  131OSM   H12B14086   6.694   5.410   6.141  0.4333  3.4473  0.5872
  131OSM    C1114087   6.839   5.562   6.080 -0.7106  0.1339 -0.2913
  131OSM   H11A14088   6.801   5.624   5.996 -0.2702  0.9491  0.1012
  131OSM   H11B14089   6.945   5.546   6.052 -0.1892 -2.2859  2.6059
  131OSM      P14090   6.706   5.714   6.245 -0.4743  0.2952  0.0976
  131OSM    O1314091   6.657   5.803   6.133 -0.3382  0.4317 -0.1820
  131OSM    O1414092   6.614   5.619   6.310 -0.0409 -0.3750 -0.4873
  131OSM    O1114093   6.756   5.806   6.363 -0.4167 -0.3405 -0.8081
  131OSM    O1214094   6.837   5.640   6.202  0.3356  0.6065  0.1006
  131OSM    C1S14095   6.866   5.894   6.342 -0.4532 -0.5162 -0.4299
  131OSM    H1S14096   6.826   5.995   6.321  0.3290 -0.2034 -0.4296
  131OSM    H1T14097   6.924   5.859   6.254  0.0767 -0.1551 -0.2286
  131OSM     NF14098   7.038   6.032   6.480  0.1535 -0.1687  0.4426
  131OSM    HNF14099   7.133   6.027   6.449  0.3466 -0.0257  1.0017
  131OSM    C2S14100   6.968   5.904   6.467  0.1228 -0.8523 -0.3645
  131OSM    H2S14101   6.909   5.907   6.561 -1.6414  2.0663 -1.4273
  131OSM    C3S14102   7.061   5.775   6.488  0.5249  0.5437  0.4237
  131OSM    H3S14103   7.121   5.760   6.395 -0.5438 -1.2129 -0.0273
  131OSM     O314104   6.976   5.655   6.501 -0.3166  0.0016 -0.1353
  131OSM    HO314105   6.892   5.681   6.463 -0.0592  1.6857  0.3658
  131OSM    C4S14106   7.136   5.787   6.616  0.1477 -0.2072  0.4503
  131OSM    H4S14107   7.244   5.804   6.602 -0.1297  0.5180 -0.9065
  131OSM    C5S14108   7.085   5.790   6.747  0.3553  0.6460 -0.6920
  131OSM    H5S14109   6.980   5.775   6.777  0.0242  0.0141 -2.0882
  131OSM    C6S14110   7.177   5.801   6.866  0.1778  0.0517 -1.0959
  131OSM    H6S14111   7.230   5.899   6.866  3.4382 -1.5615  0.7298
  131OSM    H6T14112   7.259   5.727   6.856  1.0471  1.0279 -1.3758
  131OSM    C7S14113   7.106   5.780   7.001  0.2279  0.0203  0.0131
  131OSM    H7S14114   7.078   5.672   7.004  2.1262 -0.4865  0.8592
  131OSM    H7T14115   7.011   5.836   7.019 -0.1638 -0.7978  0.5637
  131OSM    C8S14116   7.215   5.802   7.115 -0.3645  0.6035  0.3258
  131OSM    H8S14117   7.262   5.902   7.101  0.2896  0.4771  1.4983
  131OSM    H8T14118   7.293   5.724   7.103 -1.1219  0.1286 -1.9660
  131OSM    C9S14119   7.147   5.790   7.251 -0.4789 -0.2696 -0.1708
  131OSM    H9S14120   7.092   5.694   7.258  1.4581 -1.3951  0.3788
  131OSM    H9T14121   7.066   5.865   7.255 -1.6948 -1.5695  0.6238
  131OSM   C10S14122   7.241   5.808   7.368 -0.2379  0.1478 -0.5877
  131OSM   H10S14123   7.293   5.906   7.363  1.1342 -0.6112 -2.1104
  131OSM   H10T14124   7.318   5.728   7.374 -1.7290 -1.3170 -0.2655
  131OSM   C11S14125   7.173   5.814   7.509  0.5333 -0.2966 -0.8263
  131OSM   H11S14126   7.137   5.709   7.518 -0.1464 -0.0553 -0.7302
  131OSM   H11T14127   7.086   5.883   7.506  0.8284  0.0630 -3.5702
  131OSM   C12S14128   7.264   5.829   7.630 -1.2196 -0.0373 -0.9132
  131OSM   H12S14129   7.328   5.919   7.623 -1.4852  0.4073  1.5803
  131OSM   H12T14130   7.341   5.749   7.642 -0.2374  1.1159  0.8123
  131OSM   C13S14131   7.189   5.839   7.765 -0.8400 -0.5163  0.6138
  131OSM   H13S14132   7.131   5.933   7.766 -1.4289 -0.8606 -0.1951
  131OSM   H13T14133   7.267   5.837   7.845  0.0257  1.1416 -0.1471
  131OSM   C14S14134   7.095   5.722   7.791  0.3223  0.8960 -0.1621
  131OSM   H14S14135   7.145   5.630   7.755 -0.0416  0.6172  0.0315
  131OSM   H14T14136   7.003   5.740   7.731 -0.7032 -0.3334  0.9862
  131OSM   C15S14137   7.051   5.693   7.934 -0.0740  0.4508  0.2439
  131OSM   H15S14138   6.975   5.767   7.969  0.7702  1.2675  0.3839
  131OSM   H15T14139   7.134   5.719   8.003  1.5957 -0.4413 -1.3618
  131OSM   C16S14140   7.002   5.548   7.964  0.3645 -0.5106  0.2223
  131OSM   H16S14141   6.958   5.544   8.066  0.1201 -0.2090  0.1316
  131OSM   H16T14142   7.085   5.474   7.963 -1.4976 -2.7022  0.8277
  131OSM   C17S14143   6.902   5.498   7.860  0.4000 -0.3575  0.2086
  131OSM   H17S14144   6.860   5.402   7.897 -0.7466 -0.8007 -2.0540
  131OSM   H17T14145   6.936   5.478   7.756 -2.8350 -3.9053 -0.4049
  131OSM   C18S14146   6.778   5.585   7.865 -0.3453 -0.1746 -0.1469
  131OSM   H18S14147   6.761   5.646   7.956 -5.9503  1.1840 -1.7139
  131OSM   H18T14148   6.682   5.532   7.846  0.1002 -1.8500  1.8905
  131OSM   H18U14149   6.776   5.661   7.783  0.6339  1.9116  1.6582
  131OSM    C1F14150   6.976   6.150   6.487  0.4097  0.3245  0.0106
  131OSM     OF14151   6.860   6.148   6.526  0.1972  0.1793 -0.1319
  131OSM    C2F14152   7.062   6.262   6.435 -0.2887 -0.3201 -0.2163
  131OSM    H2F14153   7.026   6.291   6.335  2.1865  0.4649 -0.9608
  131OSM    H2G14154   7.171   6.240   6.428  0.6345  2.7584  2.0426
  131OSM    C3F14155   7.068   6.375   6.544  0.0462  0.1294 -0.2004
  131OSM    H3F14156   6.961   6.405   6.555 -1.0826 -2.2031 -3.4494
  131OSM    H3G14157   7.118   6.463   6.497  0.4114  0.9865  1.6887
  131OSM    C4F14158   7.127   6.331   6.676 -0.4253  0.4010 -0.0835
  131OSM    H4F14159   7.229   6.286   6.672 -0.4317  0.4538 -0.8499
  131OSM    H4G14160   7.066   6.245   6.712 -3.3361  1.6497 -1.7129
  131OSM    C5F14161   7.107   6.431   6.783 -0.0096 -0.0256 -0.0811
  131OSM    H5F14162   7.089   6.380   6.880  2.5424  1.2784  1.1809
  131OSM    H5G14163   7.011   6.485   6.775 -0.4081 -0.7904 -0.6188
  131OSM    C6F14164   7.225   6.535   6.799 -0.9371 -0.4716 -0.6690
  131OSM    H6F14165   7.228   6.590   6.702 -0.3662 -0.8931 -0.8940
  131OSM    H6G14166   7.319   6.475   6.803  0.0430  1.0219 -0.3087
  131OSM    C7F14167   7.214   6.631   6.920 -0.3769  0.3144 -0.0248
  131OSM    H7F14168   7.216   6.576   7.017 -1.4058  2.4368  1.2623
  131OSM    H7G14169   7.115   6.681   6.913 -0.9374 -0.7853 -0.2213
  131OSM    C8F14170   7.324   6.737   6.924 -1.0669  0.8038  0.4000
  131OSM    H8F14171   7.331   6.783   6.823  0.3543 -2.0561 -0.9306
  131OSM    H8G14172   7.424   6.689   6.936 -0.9796  0.6860 -0.6768
  131OSM    C9F14173   7.293   6.843   7.023 -0.9150 -0.0488  0.8733
  131OSM    H9F14174   7.223   6.915   6.978 -3.2690 -2.9303 -0.4109
  131OSM   C10F14175   7.339   6.856   7.150 -0.9889 -0.2900 -0.1128
  131OSM   H10F14176   7.333   6.948   7.210 -0.6275 -0.4348  0.1474
  131OSM   C11F14177   7.436   6.760   7.216  0.4348 -0.0918 -0.1473
  131OSM   H11F14178   7.534   6.777   7.166 -0.0698  0.2626 -1.0378
  131OSM   H11G14179   7.406   6.662   7.174 -1.0912  0.9059 -1.5200
  131OSM   C12F14180   7.440   6.757   7.366 -0.2533 -0.4081  0.7629
  131OSM   H12F14181   7.479   6.858   7.389 -0.0503 -0.1948 -0.4310
  131OSM   H12G14182   7.518   6.683   7.395  0.0573 -0.3192  0.1750
  131OSM   C13F14183   7.294   6.744   7.417  0.3076 -0.9852  0.4090
  131OSM   H13F14184   7.236   6.677   7.350 -1.9429 -0.0605  1.3708
  131OSM   H13G14185   7.251   6.846   7.408 -2.7787 -2.1795  0.4904
  131OSM   C14F14186   7.288   6.698   7.559  0.2791 -0.1315 -0.4519
  131OSM   H14F14187   7.330   6.595   7.561 -0.6288 -0.5108 -0.0788
  131OSM   H14G14188   7.182   6.679   7.587  0.4915 -0.0844  0.4056
  131OSM   C15F14189   7.355   6.786   7.668  0.4099 -0.1240 -0.8591
  131OSM   H15F14190   7.336   6.896   7.661 -0.5957 -0.2811 -0.6369
  131OSM   H15G14191   7.466   6.775   7.661  0.5233 -0.8053  1.1935
  131OSM   C16F14192   7.336   6.733   7.812 -0.4988  0.0158 -0.1947
  131OSM   H16F14193   7.233   6.745   7.854 -0.5528  0.5365 -0.4687
  131OSM   H16G14194   7.406   6.782   7.883 -1.8904  1.4346  0.2594
  131OSM   C17F14195   7.362   6.580   7.824 -0.2304  0.0654 -0.2095
  131OSM   H17F14196   7.454   6.555   7.766  0.4091 -1.2525  1.2850
  131OSM   H17G14197   7.274   6.528   7.780  0.4401 -0.9870 -0.3558
  131OSM   C18F14198   7.373   6.522   7.967 -0.1564 -0.4149  0.1153
  131OSM   H18F14199   7.470   6.559   8.005  0.0082  0.6168 -1.1993
  131OSM   H18G14200   7.369   6.411   7.962 -0.2676 -0.4426 -4.9170
  131OSM   H18H14201   7.288   6.553   8.031  1.3286 -0.9372  2.4224
  132OSM      N14202   3.395   1.300   5.756  1.0309 -0.1595  0.2525
  132OSM    C1514203   3.474   1.183   5.795 -0.0279 -0.3544 -0.1297
  132OSM   H15A14204   3.542   1.206   5.876 -1.0187 -1.0938  0.9358
  132OSM   H15B14205   3.533   1.151   5.710  1.4690 -0.6541  0.9692
  132OSM   H15C14206   3.405   1.107   5.826 -1.3891  0.9911  0.2673
  132OSM    C1414207   3.488   1.403   5.697  0.0513 -0.4794 -0.2552
  132OSM   H14A14208   3.563   1.367   5.628  1.7985  0.0506  1.2724
  132OSM   H14B14209   3.538   1.444   5.784 -1.6022 -1.7048  1.3572
  132OSM   H14C14210   3.434   1.490   5.662  0.8524  1.1246  2.1897
  132OSM    C1314211   3.293   1.254   5.654  1.0528 -0.1292  0.2478
  132OSM   H13A14212   3.227   1.178   5.692  0.2700  1.0208  1.2707
  132OSM   H13B14213   3.339   1.206   5.569  2.1301  0.6953  0.3405
  132OSM   H13C14214   3.243   1.345   5.624 -0.8209 -1.2270 -0.0593
  132OSM    C1214215   3.317   1.359   5.874  0.1920  0.0353  0.0797
  132OSM   H12A14216   3.384   1.407   5.943 -0.5583  0.6858  0.3775
  132OSM   H12B14217   3.266   1.285   5.934 -0.8238  1.3669  0.9246
  132OSM    C1114218   3.210   1.467   5.827 -0.1038  0.0786  0.5741
  132OSM   H11A14219   3.245   1.525   5.739 -0.3771 -0.0670  0.3675
  132OSM   H11B14220   3.188   1.526   5.918 -0.5540  2.5202 -1.0191
  132OSM      P14221   2.950   1.425   5.830 -0.2693 -0.3435 -0.0313
  132OSM    O1314222   2.924   1.570   5.829  1.1532 -0.1798 -0.1163
  132OSM    O1414223   2.869   1.336   5.748 -0.2625  0.4330 -0.1526
  132OSM    O1114224   2.932   1.381   5.979  0.8327 -0.2372 -0.0958
  132OSM    O1214225   3.093   1.394   5.792  0.1305  0.1172  0.0123
  132OSM    C1S14226   2.959   1.244   6.009 -0.7886  0.3205 -0.0691
  132OSM    H1S14227   3.028   1.193   5.938 -1.2628 -1.9324  0.9964
  132OSM    H1T14228   2.877   1.169   6.011 -0.0586 -0.5546  3.6589
  132OSM     NF14229   3.091   1.081   6.154  0.3521  0.8135  0.3188
  132OSM    HNF14230   3.055   1.017   6.222  0.5169 -1.5592 -1.6900
  132OSM    C2S14231   3.032   1.217   6.152  0.7698 -0.1905  0.0158
  132OSM    H2S14232   3.114   1.292   6.149  1.4101 -0.8095  1.2440
  132OSM    C3S14233   2.929   1.243   6.273  0.0257  0.9068  0.1056
  132OSM    H3S14234   2.859   1.157   6.267  2.8908 -1.6357  0.4790
  132OSM     O314235   2.874   1.371   6.258  0.2880 -0.3901  0.2810
  132OSM    HO314236   2.911   1.395   6.173 -2.6414 -1.6104 -1.4977
  132OSM    C4S14237   3.000   1.229   6.410 -0.8444 -0.5049 -0.1761
  132OSM    H4S14238   3.001   1.129   6.455  1.2423 -0.8714 -0.9420
  132OSM    C5S14239   3.065   1.330   6.474  0.0621 -0.1233 -0.1413
  132OSM    H5S14240   3.064   1.435   6.443 -0.9292  0.1913  0.8974
  132OSM    C6S14241   3.145   1.311   6.600  0.0753 -0.4238 -0.1787
  132OSM    H6S14242   3.094   1.252   6.679  1.3055  0.6116  1.4504
  132OSM    H6T14243   3.163   1.405   6.656 -0.7071 -1.0534  1.1833
  132OSM    C7S14244   3.277   1.238   6.577 -0.3295 -0.3598  0.5214
  132OSM    H7S14245   3.349   1.296   6.516 -0.3532 -2.5996 -1.8046
  132OSM    H7T14246   3.259   1.151   6.510  0.7080  0.1088 -0.4059
  132OSM    C8S14247   3.327   1.164   6.699  0.3005 -0.5099 -0.6514
  132OSM    H8S14248   3.416   1.102   6.674  0.4525 -0.5717  0.0217
  132OSM    H8T14249   3.252   1.091   6.735  1.7787 -1.4099  0.7508
  132OSM    C9S14250   3.373   1.246   6.820  0.4761  0.1293  0.4316
  132OSM    H9S14251   3.420   1.344   6.798 -0.0613  0.2705 -0.0984
  132OSM    H9T14252   3.448   1.185   6.874  0.1024 -0.4997  0.2498
  132OSM   C10S14253   3.261   1.267   6.932  0.3290  0.1199  0.3823
  132OSM   H10S14254   3.212   1.169   6.946 -0.6790  0.9447  3.1710
  132OSM   H10T14255   3.189   1.332   6.878 -0.5209  1.2826  2.7858
  132OSM   C11S14256   3.308   1.333   7.067  0.0524  0.2388  0.6851
  132OSM   H11S14257   3.346   1.432   7.034  2.3745 -1.1899 -1.3762
  132OSM   H11T14258   3.394   1.278   7.111  0.6965  0.1885 -0.5768
  132OSM   C12S14259   3.201   1.352   7.168  0.3121  0.3786 -0.6280
  132OSM   H12S14260   3.179   1.252   7.210  2.2260 -2.3563 -5.3130
  132OSM   H12T14261   3.104   1.386   7.124  0.0010 -1.0237 -1.0643
  132OSM   C13S14262   3.247   1.456   7.272 -0.8419  0.0375 -0.1410
  132OSM   H13S14263   3.249   1.556   7.224 -0.9518  0.7653  1.3393
  132OSM   H13T14264   3.349   1.433   7.308 -1.7350 -1.8440  1.3560
  132OSM   C14S14265   3.149   1.465   7.389  0.4488 -0.5122 -0.8593
  132OSM   H14S14266   3.157   1.370   7.447  1.0947  0.0408  0.0021
  132OSM   H14T14267   3.042   1.470   7.361  0.4845 -2.5907 -1.5761
  132OSM   C15S14268   3.175   1.585   7.476 -0.4739  0.5107 -0.2129
  132OSM   H15S14269   3.140   1.685   7.442 -0.5649  0.5441 -0.0179
  132OSM   H15T14270   3.284   1.605   7.479 -0.6112  1.8438  4.9450
  132OSM   C16S14271   3.137   1.568   7.622 -0.3214  0.1229 -0.0118
  132OSM   H16S14272   3.199   1.644   7.674  0.7270 -0.0788 -0.9276
  132OSM   H16T14273   3.168   1.467   7.657  0.8413  0.3031 -0.4899
  132OSM   C17S14274   2.992   1.602   7.659 -0.1249  0.1553  0.8096
  132OSM   H17S14275   2.960   1.529   7.736 -0.1245 -1.0859 -0.3240
  132OSM   H17T14276   2.935   1.581   7.566 -0.4363 -0.0968  1.0548
  132OSM   C18S14277   2.971   1.747   7.703  0.4048  0.0692 -0.5686
  132OSM   H18S14278   2.986   1.817   7.618  0.6278 -0.2122 -0.7621
  132OSM   H18T14279   3.028   1.784   7.790  0.7685  0.6275 -1.0373
  132OSM   H18U14280   2.861   1.751   7.720  0.5149  1.0437 -0.0186
  132OSM    C1F14281   3.187   1.041   6.078 -0.1366 -0.0229  0.5467
  132OSM     OF14282   3.258   1.120   6.017 -0.2543 -0.0279 -0.3769
  132OSM    C2F14283   3.208   0.889   6.059 -1.1236 -0.4309 -0.0938
  132OSM    H2F14284   3.206   0.864   5.950 -0.4716 -0.8817 -0.0084
  132OSM    H2G14285   3.139   0.824   6.116  1.4332 -1.6659  1.8107
  132OSM    C3F14286   3.354   0.866   6.105 -0.3155  0.9870  0.4533
  132OSM    H3F14287   3.422   0.929   6.043 -0.5555  0.8573  0.0553
  132OSM    H3G14288   3.378   0.758   6.099 -2.6609  0.3352  1.5609
  132OSM    C4F14289   3.385   0.903   6.247 -0.8250 -0.1851 -0.6939
  132OSM    H4F14290   3.308   0.861   6.316  0.1809  1.0884  1.2843
  132OSM    H4G14291   3.386   1.012   6.266  2.4595  0.0460 -1.6181
  132OSM    C5F14292   3.527   0.865   6.302  0.6231  0.1782 -0.0116
  132OSM    H5F14293   3.598   0.928   6.245 -1.1337  2.4904  0.1874
  132OSM    H5G14294   3.560   0.770   6.257 -0.4693  2.0014 -5.3025
  132OSM    C6F14295   3.546   0.881   6.453 -0.2148  0.0408  0.2341
  132OSM    H6F14296   3.464   0.831   6.509  0.8884  0.3371  2.2181
  132OSM    H6G14297   3.541   0.990   6.475  2.0390  0.1972  0.1977
  132OSM    C7F14298   3.680   0.830   6.523  0.0693  0.8881  0.9454
  132OSM    H7F14299   3.752   0.875   6.452 -1.6730  1.2972 -0.6660
  132OSM    H7G14300   3.688   0.719   6.522 -0.1073  0.8755  0.8029
  132OSM    C8F14301   3.702   0.891   6.660 -0.4053 -0.1494  0.2615
  132OSM    H8F14302   3.631   0.863   6.740  1.0870 -0.0903  1.6491
  132OSM    H8G14303   3.689   1.000   6.644  1.1522 -0.1199 -1.1310
  132OSM    C9F14304   3.845   0.864   6.688  1.4518  0.1422 -0.4662
  132OSM    H9F14305   3.920   0.866   6.608  1.3385 -0.3829 -0.5916
  132OSM   C10F14306   3.898   0.855   6.808 -0.5270  0.2623 -0.6508
  132OSM   H10F14307   4.004   0.825   6.802 -0.8261 -0.9933  0.0482
  132OSM   C11F14308   3.831   0.886   6.942  0.1229  0.1279 -0.0808
  132OSM   H11F14309   3.840   0.803   7.016  0.3309  0.8653  0.7413
  132OSM   H11G14310   3.721   0.898   6.933  0.4812  4.0293 -1.0014
  132OSM   C12F14311   3.880   1.017   7.003 -0.9067 -0.1782 -0.6969
  132OSM   H12F14312   3.861   1.097   6.928 -1.3574 -2.1167 -2.7924
  132OSM   H12G14313   3.989   1.022   7.022 -0.5053  0.7553 -2.8673
  132OSM   C13F14314   3.817   1.056   7.139 -0.2598  0.5798 -0.5924
  132OSM   H13F14315   3.707   1.067   7.133 -0.6381 -1.1392  1.8612
  132OSM   H13G14316   3.868   1.153   7.159  1.0291 -0.0397 -0.7529
  132OSM   C14F14317   3.850   0.957   7.251 -0.2034  0.1886 -0.1146
  132OSM   H14F14318   3.958   0.931   7.252  0.2043  1.5634  2.9759
  132OSM   H14G14319   3.777   0.873   7.246  1.6996 -1.4845 -0.7121
  132OSM   C15F14320   3.834   1.024   7.393  0.0040 -0.0484  0.1689
  132OSM   H15F14321   3.733   1.070   7.393  0.2667  0.5391 -0.3749
  132OSM   H15G14322   3.897   1.115   7.404  1.7408 -1.1924  0.0670
  132OSM   C16F14323   3.845   0.935   7.520 -0.4862  0.0204 -0.4151
  132OSM   H16F14324   3.945   0.886   7.520  0.4088  1.5941  2.1967
  132OSM   H16G14325   3.764   0.860   7.514  0.8774 -1.5375 -0.0071
  132OSM   C17F14326   3.810   1.006   7.647 -0.3624  0.0958 -0.1750
  132OSM   H17F14327   3.708   1.049   7.638 -0.7821 -1.1533 -1.8593
  132OSM   H17G14328   3.876   1.094   7.664 -1.2914  0.4145  2.1828
  132OSM   C18F14329   3.824   0.916   7.771 -0.3455 -0.1264  0.1784
  132OSM   H18F14330   3.823   0.964   7.871 -0.5067 -0.2584  0.2397
  132OSM   H18G14331   3.925   0.869   7.767 -0.4614 -0.4242  0.7050
  132OSM   H18H14332   3.750   0.834   7.761 -0.3829  0.0121 -0.8352
  133OSM      N14333   3.213   6.405   6.022  0.2600 -0.2629  0.4822
  133OSM    C1514334   3.073   6.349   5.992 -0.2866  0.4454 -0.3734
  133OSM   H15A14335   3.022   6.324   6.084  0.3065  1.7151  0.3190
  133OSM   H15B14336   3.083   6.258   5.934  0.4901  0.1485  0.2011
  133OSM   H15C14337   3.013   6.419   5.937 -2.5223 -2.1536 -1.4544
  133OSM    C1414338   3.199   6.524   6.113  0.4866  0.8146 -0.4071
  133OSM   H14A14339   3.157   6.613   6.068 -1.9968 -0.6469 -1.1444
  133OSM   H14B14340   3.298   6.553   6.146  1.7168 -2.7050 -0.5703
  133OSM   H14C14341   3.133   6.504   6.195 -1.3079 -0.0644 -1.9849
  133OSM    C1314342   3.294   6.293   6.080 -0.3821 -0.0866 -0.0060
  133OSM   H13A14343   3.305   6.210   6.012 -0.7885 -1.4128  1.5047
  133OSM   H13B14344   3.248   6.250   6.168 -0.7314  1.0387  0.3895
  133OSM   H13C14345   3.394   6.325   6.108 -1.6208  1.5181  3.1383
  133OSM    C1214346   3.283   6.459   5.895 -0.5785 -0.2191  0.9333
  133OSM   H12A14347   3.210   6.514   5.838  0.9446  1.8258  0.8572
  133OSM   H12B14348   3.308   6.374   5.833 -0.2298  0.0970  0.6350
  133OSM    C1114349   3.417   6.546   5.904 -0.5403 -0.2196  0.0487
  133OSM   H11A14350   3.415   6.627   5.980  2.4513  1.2073 -1.2731
  133OSM   H11B14351   3.432   6.591   5.804 -0.2175  0.2314  0.2967
  133OSM      P14352   3.673   6.516   5.960 -0.2366 -0.1772  0.0326
  133OSM    O1314353   3.757   6.397   5.953  0.3030 -0.0299  0.3489
  133OSM    O1414354   3.697   6.633   5.864  0.2892  0.1078  0.1718
  133OSM    O1114355   3.669   6.571   6.109  0.2392  0.2292 -0.0698
  133OSM    O1214356   3.536   6.461   5.931 -0.0239 -0.2880  0.7597
  133OSM    C1S14357   3.665   6.475   6.215  0.0810 -0.0164 -0.4419
  133OSM    H1S14358   3.764   6.424   6.220 -0.9370 -2.0657 -0.3772
  133OSM    H1T14359   3.588   6.397   6.200  0.6128 -1.0580  1.6986
  133OSM     NF14360   3.679   6.454   6.458  0.5462 -0.9936  0.2585
  133OSM    HNF14361   3.613   6.391   6.498 -0.9212  0.8883  0.9376
  133OSM    C2S14362   3.636   6.545   6.349  0.1109  0.1959 -0.2353
  133OSM    H2S14363   3.699   6.637   6.352  0.3246  0.0558 -0.3524
  133OSM    C3S14364   3.481   6.590   6.344  0.2417  0.4634 -0.0848
  133OSM    H3S14365   3.428   6.492   6.347  1.5237 -0.2486  0.3605
  133OSM     O314366   3.450   6.657   6.217  0.1398  0.1682 -0.5030
  133OSM    HO314367   3.535   6.641   6.175  0.7687  2.2685 -0.1324
  133OSM    C4S14368   3.451   6.667   6.466 -0.2275 -0.5606 -0.5382
  133OSM    H4S14369   3.409   6.602   6.544  1.4375  0.1910  1.0972
  133OSM    C5S14370   3.468   6.802   6.491  0.7258  0.5351  1.2774
  133OSM    H5S14371   3.493   6.873   6.410 -1.2732 -0.6766 -0.5326
  133OSM    C6S14372   3.435   6.871   6.616  0.0441 -0.0195  0.0117
  133OSM    H6S14373   3.335   6.918   6.603 -0.5179 -0.8925  1.1171
  133OSM    H6T14374   3.506   6.951   6.646  1.2283 -1.6654  1.8616
  133OSM    C7S14375   3.445   6.784   6.739 -1.0580  0.3931 -1.0337
  133OSM    H7S14376   3.542   6.730   6.738  0.2386  2.4758  1.4276
  133OSM    H7T14377   3.364   6.707   6.743  1.0427 -1.9179  1.9386
  133OSM    C8S14378   3.431   6.862   6.868  0.1721 -0.2205 -0.2859
  133OSM    H8S14379   3.326   6.899   6.865  0.6422  1.4378  1.6533
  133OSM    H8T14380   3.499   6.949   6.868 -0.2347  0.1075 -1.3853
  133OSM    C9S14381   3.451   6.777   6.988 -0.1034  0.2676  0.5286
  133OSM    H9S14382   3.552   6.729   6.989  0.0435  0.5267  2.4330
  133OSM    H9T14383   3.367   6.707   7.009 -0.1710  0.3955  0.6854
  133OSM   C10S14384   3.446   6.862   7.110  0.4356  0.2471  0.0362
  133OSM   H10S14385   3.347   6.912   7.103  1.0935  1.5486 -0.2728
  133OSM   H10T14386   3.515   6.948   7.098 -1.8824  2.3055  0.5917
  133OSM   C11S14387   3.467   6.788   7.245  0.5317  0.1792 -0.6518
  133OSM   H11S14388   3.558   6.725   7.241  2.3371  2.7350 -2.2673
  133OSM   H11T14389   3.380   6.720   7.260 -0.7447  2.0574  1.0035
  133OSM   C12S14390   3.452   6.883   7.364 -0.1861  0.2091 -0.6610
  133OSM   H12S14391   3.379   6.959   7.330  0.1189 -0.5650 -3.2660
  133OSM   H12T14392   3.551   6.932   7.380 -1.0756  1.8921 -0.1979
  133OSM   C13S14393   3.420   6.819   7.502  0.0253 -0.4069 -0.4309
  133OSM   H13S14394   3.488   6.734   7.523  0.3857 -0.4216 -1.5921
  133OSM   H13T14395   3.313   6.788   7.501 -0.3195  0.7170 -0.3758
  133OSM   C14S14396   3.436   6.933   7.606 -0.2226 -0.0428 -0.0632
  133OSM   H14S14397   3.378   7.027   7.589  3.0893  2.1693 -0.0444
  133OSM   H14T14398   3.541   6.967   7.612 -0.7495  1.5327  1.2236
  133OSM   C15S14399   3.392   6.888   7.743  0.0087 -0.3070  0.4250
  133OSM   H15S14400   3.452   6.801   7.778  1.2531  0.9035  1.4105
  133OSM   H15T14401   3.285   6.863   7.732  0.2043 -0.9234 -0.1465
  133OSM   C16S14402   3.413   7.001   7.843  0.1644  0.2761  0.2232
  133OSM   H16S14403   3.517   7.038   7.834 -0.3377  1.5514 -0.7464
  133OSM   H16T14404   3.401   6.963   7.946  0.4628 -0.6591 -0.0816
  133OSM   C17S14405   3.309   7.114   7.831 -0.2414  0.3171  0.4873
  133OSM   H17S14406   3.215   7.077   7.787 -0.6692  0.4696  1.2587
  133OSM   H17T14407   3.350   7.185   7.755 -0.4056  0.3233  0.4039
  133OSM   C18S14408   3.283   7.193   7.959 -0.0116  0.8965  0.2667
  133OSM   H18S14409   3.378   7.233   7.999  0.8786 -1.6730  0.9102
  133OSM   H18T14410   3.254   7.122   8.040  1.0856 -1.2295 -1.1174
  133OSM   H18U14411   3.206   7.273   7.951 -0.0761  0.6630 -1.8097
  133OSM    C1F14412   3.809   6.443   6.486  0.7918  0.3588 -0.2360
  133OSM     OF14413   3.892   6.510   6.430  0.2155  0.3319 -0.0355
  133OSM    C2F14414   3.831   6.339   6.589  0.3472 -0.6130 -0.9190
  133OSM    H2F14415   3.912   6.272   6.552  2.0904 -0.4605  2.2604
  133OSM    H2G14416   3.739   6.280   6.609 -0.3137  0.7645  0.2329
  133OSM    C3F14417   3.884   6.384   6.727 -0.0835  0.6530 -0.4891
  133OSM    H3F14418   3.833   6.473   6.769 -0.5461  0.1568  0.0161
  133OSM    H3G14419   3.989   6.417   6.714  1.4476 -3.6760 -0.7325
  133OSM    C4F14420   3.878   6.270   6.838 -0.0527  0.6959  0.2019
  133OSM    H4F14421   3.964   6.203   6.816  1.1456  2.7259 -1.7665
  133OSM    H4G14422   3.783   6.216   6.823  1.3894 -1.4046 -2.1192
  133OSM    C5F14423   3.897   6.317   6.980 -0.3713  0.7705  0.1013
  133OSM    H5F14424   3.835   6.407   6.999 -1.0721  0.2010  0.5933
  133OSM    H5G14425   4.001   6.355   6.985 -0.4803  0.8731  2.2401
  133OSM    C6F14426   3.887   6.206   7.097 -0.0327  0.3471  0.5073
  133OSM    H6F14427   3.956   6.120   7.082 -1.5762 -1.2445  2.0153
  133OSM    H6G14428   3.780   6.178   7.082 -0.3969  2.6479 -2.0515
  133OSM    C7F14429   3.879   6.258   7.244 -0.0193  1.1037  0.8499
  133OSM    H7F14430   3.849   6.364   7.233 -4.7045 -0.2779 -4.0339
  133OSM    H7G14431   3.986   6.255   7.276  0.1906  0.7601  0.1460
  133OSM    C8F14432   3.786   6.186   7.344  0.4289 -0.0169 -0.2409
  133OSM    H8F14433   3.811   6.079   7.333  3.2764  0.7366 -2.3285
  133OSM    H8G14434   3.684   6.203   7.304 -0.3977 -0.5394  1.5323
  133OSM    C9F14435   3.801   6.244   7.486 -0.8866 -1.0030 -0.6905
  133OSM    H9F14436   3.747   6.338   7.504  2.8751  0.9208  1.5808
  133OSM   C10F14437   3.871   6.189   7.586  0.1610  0.5903 -0.2471
  133OSM   H10F14438   3.878   6.248   7.679 -3.1688 -1.0632  1.2271
  133OSM   C11F14439   3.953   6.069   7.585 -0.3919  0.0742 -0.4245
  133OSM   H11F14440   3.931   6.002   7.499 -1.0086  1.3238 -1.2593
  133OSM   H11G14441   3.934   6.020   7.682 -1.9454  2.5293  0.6047
  133OSM   C12F14442   4.099   6.110   7.603  0.0825  0.0835 -0.8718
  133OSM   H12F14443   4.114   6.175   7.692  3.1223 -3.7781  1.7570
  133OSM   H12G14444   4.119   6.180   7.518  0.4212  0.7287 -0.2735
  133OSM   C13F14445   4.199   5.995   7.610 -0.2975  0.0610 -0.6608
  133OSM   H13F14446   4.304   6.032   7.617 -0.6518  1.0322 -0.3044
  133OSM   H13G14447   4.199   5.954   7.507  1.2453 -0.5528 -0.4506
  133OSM   C14F14448   4.173   5.887   7.711 -0.4257  0.5172 -0.2687
  133OSM   H14F14449   4.250   5.813   7.680 -2.2179 -1.5343 -0.0761
  133OSM   H14G14450   4.074   5.838   7.704  0.4776 -1.6966  1.4578
  133OSM   C15F14451   4.191   5.954   7.848 -0.1374 -0.4765 -0.2647
  133OSM   H15F14452   4.108   6.028   7.855 -0.3002 -0.6377 -0.4664
  133OSM   H15G14453   4.293   5.997   7.841  0.2318 -1.2858  0.0191
  133OSM   C16F14454   4.190   5.851   7.961  0.1137  0.0827  0.2353
  133OSM   H16F14455   4.276   5.780   7.955 -0.0471 -0.2373  1.3831
  133OSM   H16G14456   4.088   5.806   7.960  0.3966 -0.5706 -0.8756
  133OSM   C17F14457   4.206   5.914   8.098 -0.1603 -0.2023  0.0571
  133OSM   H17F14458   4.123   5.987   8.104 -0.6737 -0.5784 -1.7769
  133OSM   H17G14459   4.300   5.974   8.103 -0.7708  1.0020 -1.9103
  133OSM   C18F14460   4.200   5.822   8.217  0.4780 -0.1463  0.2224
  133OSM   H18F14461   4.197   5.887   8.307 -3.3835 -0.3055  0.4052
  133OSM   H18G14462   4.284   5.750   8.220  0.3439 -0.3020  0.2026
  133OSM   H18H14463   4.108   5.759   8.220 -0.0466  0.6247  1.9415
  134OSM      N14464   0.885   1.901   6.032  0.3403  0.2149 -0.1271
  134OSM    C1514465   0.999   1.933   5.939  0.7497  0.4949 -0.1762
  134OSM   H15A14466   0.980   1.858   5.863 -2.1108  0.7004  0.2050
  134OSM   H15B14467   1.090   1.910   5.992  0.5775 -0.3205 -0.2193
  134OSM   H15C14468   0.992   2.033   5.898  0.4974  0.4357 -0.2817
  134OSM    C1414469   0.891   1.753   6.063  0.4420  0.1445 -0.0852
  134OSM   H14A14470   0.805   1.720   6.120 -0.5651  1.8983 -0.5273
  134OSM   H14B14471   0.983   1.730   6.115 -0.5566  1.0578  2.2689
  134OSM   H14C14472   0.896   1.696   5.972  0.1924 -0.7091  0.4267
  134OSM    C1314473   0.890   1.986   6.157 -0.2214 -0.0345  0.4268
  134OSM   H13A14474   0.792   2.014   6.191 -0.4167 -0.1476 -0.0310
  134OSM   H13B14475   0.944   2.077   6.136  1.1858 -1.0132 -0.3902
  134OSM   H13C14476   0.944   1.934   6.234  1.6398 -0.3171 -0.9927
  134OSM    C1214477   0.747   1.929   5.965 -0.1147 -0.8659 -0.0148
  134OSM   H12A14478   0.732   1.858   5.885  0.3011  0.4357 -1.2883
  134OSM   H12B14479   0.749   2.032   5.934  1.2341  0.3078  3.4437
  134OSM    C1114480   0.617   1.919   6.050 -0.1208  0.7508  0.1025
  134OSM   H11A14481   0.628   1.822   6.104 -0.2912 -0.0004 -1.1698
  134OSM   H11B14482   0.524   1.913   5.990 -1.7857  1.5560  2.4606
  134OSM      P14483   0.573   2.170   6.114  0.0790  0.1763  0.0393
  134OSM    O1314484   0.703   2.224   6.072  0.5868 -0.7479 -0.0827
  134OSM    O1414485   0.464   2.171   6.011 -0.2051 -0.0792  0.2411
  134OSM    O1114486   0.515   2.240   6.242 -0.3432 -0.2914 -0.1645
  134OSM    O1214487   0.598   2.020   6.151 -0.5639 -0.1390  0.0896
  134OSM    C1S14488   0.502   2.187   6.373  0.1407 -0.0086  0.5888
  134OSM    H1S14489   0.591   2.209   6.436  0.2897  1.3816 -0.0758
  134OSM    H1T14490   0.498   2.077   6.363 -1.7873  0.1077 -0.2156
  134OSM     NF14491   0.374   2.251   6.582 -0.0939 -0.0327 -0.5214
  134OSM    HNF14492   0.304   2.200   6.632 -0.8555  0.3463 -1.1906
  134OSM    C2S14493   0.372   2.255   6.442 -0.6185 -0.2468 -0.0534
  134OSM    H2S14494   0.380   2.362   6.415  0.5148 -0.4394 -0.5370
  134OSM    C3S14495   0.245   2.191   6.388 -0.0472  1.1073 -0.1245
  134OSM    H3S14496   0.242   2.091   6.436 -1.2589  1.7497  1.2227
  134OSM     O314497   0.236   2.142   6.257 -0.1333 -0.1340  0.0086
  134OSM    HO314498   0.314   2.180   6.216  0.9910 -2.9306 -0.6376
  134OSM    C4S14499   0.119   2.257   6.428 -0.3002 -0.0588  0.6869
  134OSM    H4S14500   0.082   2.222   6.526  2.0737 -0.9296  1.3363
  134OSM    C5S14501   0.046   2.349   6.359 -0.0686  0.0374 -0.2509
  134OSM    H5S14502   0.082   2.389   6.263  0.8884  0.7146  0.3818
  134OSM    C6S14503  -0.073   2.420   6.411 -0.3127 -0.7872 -0.1725
  134OSM    H6S14504  -0.137   2.450   6.325 -1.7891 -0.0139  1.1566
  134OSM    H6T14505  -0.049   2.523   6.446  0.3797 -0.5374 -1.3192
  134OSM    C7S14506  -0.161   2.358   6.528 -0.0442  0.4595  0.8737
  134OSM    H7S14507  -0.096   2.337   6.616 -0.3430  2.3901  1.6237
  134OSM    H7T14508  -0.234   2.282   6.494 -1.2756  1.5561  0.9549
  134OSM    C8S14509  -0.258   2.464   6.594 -0.3025 -0.1841 -0.0656
  134OSM    H8S14510  -0.353   2.463   6.537 -1.5502 -0.0657  1.9138
  134OSM    H8T14511  -0.201   2.559   6.599 -1.9015  0.8054 -0.2066
  134OSM    C9S14512  -0.307   2.426   6.737  0.6276  0.5202 -0.4202
  134OSM    H9S14513  -0.221   2.428   6.807 -1.3485  2.4669  2.1430
  134OSM    H9T14514  -0.345   2.321   6.736  1.2618  0.2461  1.2485
  134OSM   C10S14515  -0.430   2.505   6.785  0.3275 -0.0222 -0.0534
  134OSM   H10S14516  -0.521   2.487   6.723 -0.0709 -3.8364  1.3973
  134OSM   H10T14517  -0.408   2.614   6.788 -0.5303  0.1250  1.3018
  134OSM   C11S14518  -0.474   2.459   6.927 -0.2832  0.0262  0.7421
  134OSM   H11S14519  -0.380   2.449   6.985 -0.7811 -0.7395  1.4224
  134OSM   H11T14520  -0.524   2.361   6.921 -4.5496  1.9988  0.6776
  134OSM   C12S14521  -0.577   2.561   6.990 -0.7122 -0.4458 -0.2185
  134OSM   H12S14522  -0.675   2.547   6.941 -2.4847  2.2950  2.2046
  134OSM   H12T14523  -0.552   2.667   6.966 -0.5585 -0.7415 -1.4181
  134OSM   C13S14524  -0.585   2.516   7.141 -0.3582 -0.3792 -0.6070
  134OSM   H13S14525  -0.485   2.517   7.189 -1.5293 -2.1379  2.0937
  134OSM   H13T14526  -0.615   2.409   7.149  3.8919 -1.6913  0.2497
  134OSM   C14S14527  -0.675   2.600   7.226  0.1999 -0.5606 -0.2137
  134OSM   H14S14528  -0.777   2.604   7.184 -0.1572  1.4609  0.7236
  134OSM   H14T14529  -0.626   2.699   7.215  1.4954 -1.4991 -4.7502
  134OSM   C15S14530  -0.696   2.567   7.375 -0.4185  1.0681 -0.1050
  134OSM   H15S14531  -0.747   2.469   7.381 -0.0758  0.9161  0.3918
  134OSM   H15T14532  -0.761   2.648   7.414 -1.3397  0.7073 -0.8558
  134OSM   C16S14533  -0.573   2.558   7.463  0.0588 -0.2760  0.1196
  134OSM   H16S14534  -0.535   2.661   7.477  1.0486 -0.6234  0.0763
  134OSM   H16T14535  -0.497   2.498   7.409 -0.8907  0.0321 -1.5970
  134OSM   C17S14536  -0.605   2.492   7.601  0.5203 -0.9357  0.0226
  134OSM   H17S14537  -0.509   2.485   7.656 -0.3354 -1.9313  1.4613
  134OSM   H17T14538  -0.636   2.386   7.587  0.9429 -1.0435 -0.0961
  134OSM   C18S14539  -0.703   2.568   7.691 -0.8324 -0.3551 -0.7027
  134OSM   H18S14540  -0.669   2.658   7.748 -0.2882 -0.6294 -0.5927
  134OSM   H18T14541  -0.723   2.489   7.766  0.2271 -1.1293 -1.2125
  134OSM   H18U14542  -0.800   2.597   7.645 -0.7068  0.9428 -0.2126
  134OSM    C1F14543   0.474   2.309   6.661 -0.0079  0.2642 -0.0430
  134OSM     OF14544   0.571   2.362   6.616 -0.2950  0.4790  0.6899
  134OSM    C2F14545   0.441   2.299   6.811 -0.2577 -0.5034 -0.6396
  134OSM    H2F14546   0.381   2.209   6.838 -2.2721  0.5220 -1.4614
  134OSM    H2G14547   0.369   2.377   6.845 -0.6611 -0.6948 -1.0464
  134OSM    C3F14548   0.577   2.311   6.897  0.7487  0.3995  0.4129
  134OSM    H3F14549   0.610   2.416   6.883  0.2384  0.6797  1.2740
  134OSM    H3G14550   0.651   2.238   6.858  0.2551 -0.2955  0.7715
  134OSM    C4F14551   0.554   2.282   7.043  0.7040  0.3898 -0.0818
  134OSM    H4F14552   0.517   2.177   7.041  1.7109  0.0337 -0.8348
  134OSM    H4G14553   0.478   2.353   7.082  1.8355  1.4423  0.2827
  134OSM    C5F14554   0.680   2.292   7.117 -0.8631  0.2654  0.4495
  134OSM    H5F14555   0.723   2.392   7.096  0.0539  0.0465  1.2196
  134OSM    H5G14556   0.747   2.214   7.075 -1.7096 -0.0499 -0.3309
  134OSM    C6F14557   0.660   2.281   7.267 -0.3132 -0.2721 -0.2559
  134OSM    H6F14558   0.631   2.177   7.293 -3.5240 -0.0069 -2.2436
  134OSM    H6G14559   0.588   2.355   7.309  0.0521 -0.8064  1.3954
  134OSM    C7F14560   0.798   2.299   7.335  0.9818 -0.3707 -0.2165
  134OSM    H7F14561   0.835   2.400   7.307  0.0983  0.1839  0.5608
  134OSM    H7G14562   0.877   2.233   7.293  1.1209 -0.2892 -0.0836
  134OSM    C8F14563   0.793   2.270   7.486 -0.6506  0.4898 -0.3013
  134OSM    H8F14564   0.886   2.216   7.516 -1.6916  0.1558  2.6294
  134OSM    H8G14565   0.707   2.207   7.518  0.1501  0.3760  1.8153
  134OSM    C9F14566   0.776   2.400   7.559  0.9359 -0.2971  0.4285
  134OSM    H9F14567   0.810   2.487   7.502  1.5027 -0.0281  1.1645
  134OSM   C10F14568   0.746   2.406   7.688  0.0178 -0.1085  0.2704
  134OSM   H10F14569   0.736   2.510   7.722  2.2009  0.2500  0.0062
  134OSM   C11F14570   0.724   2.298   7.792 -0.7108 -0.1792 -0.0259
  134OSM   H11F14571   0.724   2.197   7.746  1.2218  0.3680 -1.3786
  134OSM   H11G14572   0.626   2.316   7.841 -0.2162 -0.0832  0.9567
  134OSM   C12F14573   0.811   2.292   7.913  0.4170 -0.1260  0.4225
  134OSM   H12F14574   0.763   2.233   7.994  0.7234 -1.3666 -0.2658
  134OSM   H12G14575   0.818   2.397   7.947  3.3222  0.3372 -1.2612
  134OSM   C13F14576   0.954   2.235   7.886  0.6554  0.5161  0.4045
  134OSM   H13F14577   1.017   2.274   7.969 -0.2020  0.0181  1.3218
  134OSM   H13G14578   0.996   2.272   7.791  1.6438  1.4719  1.1852
  134OSM   C14F14579   0.964   2.081   7.892 -0.2462 -0.1757 -0.6967
  134OSM   H14F14580   0.911   2.038   7.804  3.1616  1.3330 -3.7634
  134OSM   H14G14581   0.919   2.040   7.984  0.5253 -0.2072 -0.3200
  134OSM   C15F14582   1.102   2.021   7.890 -0.1946  0.0931  0.2703
  134OSM   H15F14583   1.153   2.048   7.795  0.8315 -0.1584  0.7470
  134OSM   H15G14584   1.088   1.911   7.894 -0.7287  0.1559  0.2453
  134OSM   C16F14585   1.198   2.071   7.997  0.4820  0.3347  0.0762
  134OSM   H16F14586   1.172   2.005   8.083 -0.2921  0.1941 -0.2573
  134OSM   H16G14587   1.182   2.178   8.024  0.6045  0.9477 -2.0955
  134OSM   C17F14588   1.343   2.040   7.971  0.2717  0.5683  0.2498
  134OSM   H17F14589   1.369   2.109   7.888 -1.4933  1.7056  0.5755
  134OSM   H17G14590   1.352   1.932   7.948 -0.3659  0.2143  1.5496
  134OSM   C18F14591   1.445   2.078   8.065 -0.3579  0.4203 -0.2811
  134OSM   H18F14592   1.433   2.179   8.110  0.4501  0.0875  0.7078
  134OSM   H18G14593   1.549   2.071   8.028  0.0591 -0.5827  1.0347
  134OSM   H18H14594   1.437   2.005   8.148  0.7812 -0.7519 -1.1581
  135OSM      N14595   1.009   2.740   5.818 -0.2458  0.4325  0.2864
  135OSM    C1514596   0.878   2.683   5.768 -0.3111 -0.1048  0.0565
  135OSM   H15A14597   0.868   2.699   5.661 -1.2615  1.6701  0.3705
  135OSM   H15B14598   0.796   2.740   5.810  0.5934 -0.2097  2.0404
  135OSM   H15C14599   0.851   2.583   5.798 -2.2716  0.4346  0.2579
  135OSM    C1414600   1.105   2.625   5.799 -0.4226  0.3357 -0.2803
  135OSM   H14A14601   1.122   2.599   5.695 -0.3201 -0.9924  0.0610
  135OSM   H14B14602   1.068   2.539   5.852 -1.7218  0.9225 -0.2158
  135OSM   H14C14603   1.200   2.662   5.835  0.1295 -1.3775  0.0929
  135OSM    C1314604   1.048   2.844   5.732  0.1973 -0.0896  0.2789
  135OSM   H13A14605   1.089   2.815   5.636  3.9961 -0.6760  1.9046
  135OSM   H13B14606   1.127   2.908   5.768  1.0806 -0.7326 -0.4623
  135OSM   H13C14607   0.974   2.921   5.712  1.7899  1.1476 -1.1986
  135OSM    C1214608   1.000   2.794   5.956 -0.3045 -0.5919  0.5376
  135OSM   H12A14609   0.912   2.856   5.967  0.9659  1.2543  0.5777
  135OSM   H12B14610   1.081   2.862   5.974 -0.0519 -1.1700  1.6799
  135OSM    C1114611   0.984   2.703   6.075 -0.2182 -0.1003 -0.5114
  135OSM   H11A14612   0.985   2.751   6.175 -0.4286 -1.1293 -0.0028
  135OSM   H11B14613   1.064   2.625   6.080  0.9862  1.1729  1.6389
  135OSM      P14614   0.721   2.699   6.100  0.1305 -0.3809 -0.3024
  135OSM    O1314615   0.711   2.831   6.036 -0.7101  0.6248  0.5215
  135OSM    O1414616   0.612   2.608   6.057 -0.6647  0.6275 -0.1173
  135OSM    O1114617   0.718   2.709   6.255 -0.0124 -0.1464 -0.5136
  135OSM    O1214618   0.859   2.629   6.063 -0.4077  0.3715  0.5751
  135OSM    C1S14619   0.744   2.591   6.334  0.2717  0.7163  0.3464
  135OSM    H1S14620   0.830   2.532   6.297 -0.3394  1.1911 -1.9985
  135OSM    H1T14621   0.656   2.523   6.331  1.5790 -0.9948 -1.6851
  135OSM     NF14622   0.799   2.494   6.551  0.4823  0.0405  0.2158
  135OSM    HNF14623   0.725   2.442   6.594  0.8170  0.2412  1.0642
  135OSM    C2S14624   0.755   2.616   6.494 -0.1710  1.1654 -0.5308
  135OSM    H2S14625   0.832   2.693   6.517 -1.0985  1.6773  0.9949
  135OSM    C3S14626   0.627   2.694   6.545  0.4196  0.5082  0.2882
  135OSM    H3S14627   0.538   2.630   6.527  0.2655  1.5212 -3.4883
  135OSM     O314628   0.598   2.816   6.471 -0.4058 -0.2887  0.5053
  135OSM    HO314629   0.644   2.808   6.387  0.4866 -1.0685  1.0479
  135OSM    C4S14630   0.634   2.718   6.693 -0.1496  0.5323  0.9816
  135OSM    H4S14631   0.573   2.651   6.755 -1.0236  0.7796  0.4066
  135OSM    C5S14632   0.711   2.818   6.740 -0.2733 -0.5380  0.5004
  135OSM    H5S14633   0.761   2.883   6.667 -0.5718 -2.0069 -1.0995
  135OSM    C6S14634   0.738   2.852   6.887 -0.2571  0.1722  0.5837
  135OSM    H6S14635   0.713   2.960   6.896 -0.1642  0.3549 -1.1595
  135OSM    H6T14636   0.846   2.844   6.913 -0.3676  1.9076  1.7071
  135OSM    C7S14637   0.663   2.765   6.989 -0.3339 -0.2262  0.2576
  135OSM    H7S14638   0.696   2.663   6.958  3.3029  0.6091  0.9547
  135OSM    H7T14639   0.552   2.769   6.978 -0.3867 -1.2269  0.3224
  135OSM    C8S14640   0.701   2.784   7.138 -0.4165  0.2632 -0.0878
  135OSM    H8S14641   0.705   2.890   7.169  2.6217 -0.3682  2.1532
  135OSM    H8T14642   0.805   2.744   7.146 -0.3369  0.7283  1.4917
  135OSM    C9S14643   0.609   2.711   7.231  0.3439 -0.3077 -1.0238
  135OSM    H9S14644   0.610   2.601   7.218 -0.8916 -0.4362 -0.1815
  135OSM    H9T14645   0.506   2.738   7.201 -0.4715  0.3525  2.0611
  135OSM   C10S14646   0.633   2.771   7.369 -0.0141  0.5534  0.1351
  135OSM   H10S14647   0.623   2.881   7.372 -1.4154  0.4738 -0.6552
  135OSM   H10T14648   0.738   2.750   7.397  0.6579  4.3570  1.0385
  135OSM   C11S14649   0.540   2.714   7.468  0.3927 -0.1012  0.5928
  135OSM   H11S14650   0.559   2.605   7.468 -2.5644 -0.7394 -1.7097
  135OSM   H11T14651   0.432   2.722   7.443  1.0382 -0.3167 -2.6504
  135OSM   C12S14652   0.553   2.755   7.619 -0.1450  0.0293  0.7902
  135OSM   H12S14653   0.509   2.857   7.621 -1.9195 -0.7148  1.1256
  135OSM   H12T14654   0.663   2.744   7.631  0.0753 -0.1438 -1.0564
  135OSM   C13S14655   0.485   2.656   7.712 -0.6707  0.2126  0.0744
  135OSM   H13S14656   0.519   2.551   7.705 -0.4398  0.3261 -0.5541
  135OSM   H13T14657   0.378   2.653   7.681 -0.8097 -1.9244  0.6398
  135OSM   C14S14658   0.490   2.700   7.858  0.2596 -0.1910 -0.5719
  135OSM   H14S14659   0.432   2.636   7.928 -0.5482  1.1489  0.0161
  135OSM   H14T14660   0.458   2.806   7.868 -0.2022 -0.4001  0.2688
  135OSM   C15S14661   0.632   2.683   7.907 -0.2376  0.0012  0.1510
  135OSM   H15S14662   0.693   2.737   7.831 -3.6065  0.4067 -2.5227
  135OSM   H15T14663   0.674   2.581   7.906  3.2187  1.2885 -0.7264
  135OSM   C16S14664   0.647   2.755   8.048  0.5985 -0.0871  0.4215
  135OSM   H16S14665   0.579   2.708   8.121  1.0636  0.2232  1.0713
  135OSM   H16T14666   0.625   2.863   8.034  0.7409  0.1484  1.9084
  135OSM   C17S14667   0.792   2.759   8.096 -0.6983 -0.1494 -0.3102
  135OSM   H17S14668   0.813   2.651   8.113  2.2999  0.4183  0.2265
  135OSM   H17T14669   0.793   2.822   8.187  1.5217  0.3921 -0.6479
  135OSM   C18S14670   0.902   2.805   8.007  0.4500 -0.3287  0.5930
  135OSM   H18S14671   1.001   2.791   8.055  0.1808 -1.1828  0.9061
  135OSM   H18T14672   0.888   2.911   7.975  0.2766 -0.3152  0.7103
  135OSM   H18U14673   0.909   2.744   7.914 -1.2016 -0.2392  0.3720
  135OSM    C1F14674   0.924   2.447   6.553  0.4791 -1.2232 -0.0177
  135OSM     OF14675   1.027   2.510   6.531  0.1812 -0.4328  0.1668
  135OSM    C2F14676   0.930   2.296   6.583  0.1862 -0.2638  0.3745
  135OSM    H2F14677   0.977   2.249   6.494  3.7076  1.8800  0.9474
  135OSM    H2G14678   0.827   2.259   6.606 -0.3041 -0.9403 -2.4915
  135OSM    C3F14679   1.017   2.263   6.708  0.5519 -0.7249  0.1514
  135OSM    H3F14680   0.955   2.291   6.795 -1.7592 -3.6892 -0.3816
  135OSM    H3G14681   1.106   2.329   6.700 -2.0776  3.1250  0.0510
  135OSM    C4F14682   1.063   2.124   6.711 -0.3051 -0.5232 -0.8561
  135OSM    H4F14683   1.100   2.103   6.609 -0.3734  0.8238 -1.1764
  135OSM    H4G14684   0.974   2.061   6.731 -0.6053  0.7860  2.6074
  135OSM    C5F14685   1.166   2.086   6.816 -0.1989  0.0127 -0.8338
  135OSM    H5F14686   1.213   2.180   6.852 -0.1859 -0.9670  1.8843
  135OSM    H5G14687   1.246   2.028   6.765  0.2210  0.5185 -0.7502
  135OSM    C6F14688   1.105   2.003   6.936 -0.4611  0.1540  0.2635
  135OSM    H6F14689   1.073   1.904   6.895 -0.5926  0.6272 -0.8058
  135OSM    H6G14690   1.017   2.055   6.979 -2.2599 -1.7364 -0.9325
  135OSM    C7F14691   1.212   1.958   7.039  0.5805  0.4849  0.2942
  135OSM    H7F14692   1.297   1.917   6.979 -0.5070 -0.6927 -0.4983
  135OSM    H7G14693   1.176   1.871   7.098  1.5314 -1.7386 -2.1796
  135OSM    C8F14694   1.278   2.051   7.136 -0.3642 -0.2964 -0.2741
  135OSM    H8F14695   1.309   2.142   7.080  0.7552 -1.5475 -1.7815
  135OSM    H8G14696   1.370   2.000   7.170 -0.0806 -1.1574 -2.2023
  135OSM    C9F14697   1.181   2.096   7.247 -0.4631  0.4625  0.1083
  135OSM    H9F14698   1.107   2.171   7.218  0.0993  1.2639  0.6815
  135OSM   C10F14699   1.179   2.053   7.377 -0.0181  0.2129  0.2616
  135OSM   H10F14700   1.099   2.089   7.444 -0.7565  2.3643 -1.6160
  135OSM   C11F14701   1.266   1.945   7.439 -0.1168 -0.5491 -0.4642
  135OSM   H11F14702   1.326   1.889   7.364  1.5028  2.4888 -1.5954
  135OSM   H11G14703   1.203   1.869   7.490  1.5969 -2.7697 -1.4689
  135OSM   C12F14704   1.371   2.008   7.539  0.4417  0.0793 -0.2596
  135OSM   H12F14705   1.310   2.062   7.615 -0.1538 -1.8478  0.7028
  135OSM   H12G14706   1.436   2.073   7.477 -1.7158  3.0091  0.3458
  135OSM   C13F14707   1.466   1.897   7.616  0.7209 -0.5726  0.5418
  135OSM   H13F14708   1.551   1.945   7.668  1.5906  0.2946 -1.5641
  135OSM   H13G14709   1.507   1.827   7.541 -1.9489 -2.4636  0.7156
  135OSM   C14F14710   1.398   1.805   7.715 -0.3029 -0.4826 -0.3203
  135OSM   H14F14711   1.367   1.713   7.660  1.1495  0.8152 -3.6318
  135OSM   H14G14712   1.308   1.862   7.747  0.2088  1.4323 -2.0456
  135OSM   C15F14713   1.496   1.759   7.828 -0.1102  0.4716 -0.0476
  135OSM   H15F14714   1.513   1.838   7.905 -3.1234  0.8901  0.3101
  135OSM   H15G14715   1.596   1.745   7.782 -0.4250 -1.5200 -0.2061
  135OSM   C16F14716   1.461   1.630   7.901  0.1961 -0.0384 -0.4564
  135OSM   H16F14717   1.492   1.542   7.841 -0.0926 -0.9774  0.7437
  135OSM   H16G14718   1.350   1.625   7.903  0.2588 -2.5972  0.1736
  135OSM   C17F14719   1.532   1.604   8.038  0.2515 -0.8240  0.0764
  135OSM   H17F14720   1.642   1.608   8.022  0.1764 -1.1576 -0.5223
  135OSM   H17G14721   1.501   1.500   8.061 -1.5177 -0.3607 -0.0223
  135OSM   C18F14722   1.494   1.703   8.151  0.1012 -0.3294  0.4536
  135OSM   H18F14723   1.573   1.780   8.166  0.4557 -0.4247 -0.8768
  135OSM   H18G14724   1.498   1.646   8.246  0.0270 -1.5488 -0.2591
  135OSM   H18H14725   1.391   1.743   8.152 -0.0510 -0.6116 -1.3990
  136OSM      N14726   3.808   5.023   5.616  0.6833  0.6036 -0.4164
  136OSM    C1514727   3.722   5.139   5.632  0.4967  0.2632  0.2638
  136OSM   H15A14728   3.622   5.116   5.667  1.4148 -2.7229  1.2243
  136OSM   H15B14729   3.705   5.186   5.536 -2.9123 -0.4521  0.3855
  136OSM   H15C14730   3.751   5.216   5.703 -0.1289  1.3428 -0.6252
  136OSM    C1414731   3.766   4.944   5.491 -0.1889 -0.2651  0.7015
  136OSM   H14A14732   3.835   4.863   5.475 -1.8983 -2.1941  2.4310
  136OSM   H14B14733   3.765   5.008   5.405 -0.8281 -1.3846 -0.1458
  136OSM   H14C14734   3.675   4.891   5.513 -0.5997  0.5487  1.0219
  136OSM    C1314735   3.940   5.080   5.598 -0.7293 -0.2311 -1.0337
  136OSM   H13A14736   4.016   5.009   5.570  1.1092  0.7539  1.1750
  136OSM   H13B14737   3.965   5.138   5.685 -0.9002 -0.4155 -0.8633
  136OSM   H13C14738   3.929   5.148   5.514 -0.8700  0.7158 -0.2615
  136OSM    C1214739   3.798   4.935   5.742 -0.7233  0.4061 -0.2445
  136OSM   H12A14740   3.802   4.997   5.830 -2.3689 -0.0651  0.1917
  136OSM   H12B14741   3.883   4.868   5.745 -1.3561 -0.3932  0.1383
  136OSM    C1114742   3.669   4.853   5.771  0.3953  1.1604  0.3474
  136OSM   H11A14743   3.685   4.800   5.867  1.6846 -0.1096 -0.5377
  136OSM   H11B14744   3.662   4.784   5.684 -1.5884  1.3296  0.3141
  136OSM      P14745   3.411   4.870   5.781  0.5449 -0.3506 -0.4357
  136OSM    O1314746   3.304   4.971   5.778  0.3132  0.1775 -0.2717
  136OSM    O1414747   3.413   4.771   5.670  0.1058  0.1154 -0.5718
  136OSM    O1114748   3.395   4.783   5.909 -0.7481 -0.4986 -0.1138
  136OSM    O1214749   3.558   4.939   5.779  0.4858  0.5347  0.4368
  136OSM    C1S14750   3.424   4.809   6.049 -0.0580 -0.4268 -0.2630
  136OSM    H1S14751   3.523   4.859   6.054 -1.2638  2.0960 -0.0627
  136OSM    H1T14752   3.434   4.714   6.107  0.5736  0.0235  0.3840
  136OSM     NF14753   3.339   4.905   6.262  0.0593  0.1222 -0.2895
  136OSM    HNF14754   3.296   4.838   6.322 -0.2545  1.8807  1.5596
  136OSM    C2S14755   3.313   4.907   6.121  0.4238  0.1301 -0.1102
  136OSM    H2S14756   3.324   5.010   6.081  2.9961  0.1680  0.5584
  136OSM    C3S14757   3.173   4.847   6.079 -0.9410 -0.2916 -0.1458
  136OSM    H3S14758   3.161   4.739   6.106 -0.4140 -0.1150  0.8280
  136OSM     O314759   3.130   4.855   5.948  0.1687  0.0483  0.4237
  136OSM    HO314760   3.190   4.913   5.901  0.8905 -0.1250  1.1252
  136OSM    C4S14761   3.067   4.916   6.166  0.0213 -0.4582  0.3047
  136OSM    H4S14762   3.063   4.877   6.269 -0.0690 -0.8055  0.1739
  136OSM    C5S14763   2.976   5.015   6.138  0.1893  0.4255  0.5603
  136OSM    H5S14764   2.972   5.056   6.036  1.7337  0.8874  0.6615
  136OSM    C6S14765   2.878   5.069   6.234 -0.1937  0.2925 -0.2627
  136OSM    H6S14766   2.878   5.017   6.333  0.0019 -0.3114 -0.5742
  136OSM    H6T14767   2.780   5.066   6.182 -0.5541 -0.6104  0.4405
  136OSM    C7S14768   2.915   5.215   6.251 -0.4961  0.1628  0.7471
  136OSM    H7S14769   2.921   5.256   6.147  2.5943 -0.3465  0.6419
  136OSM    H7T14770   3.019   5.214   6.289  0.0823 -3.0286 -0.5901
  136OSM    C8S14771   2.820   5.296   6.336 -0.3829  0.2602 -0.0204
  136OSM    H8S14772   2.821   5.251   6.437 -2.0466 -0.6181 -0.3462
  136OSM    H8T14773   2.716   5.294   6.297  0.0696  0.6588 -1.3201
  136OSM    C9S14774   2.866   5.443   6.347 -0.0440 -0.3101 -0.5764
  136OSM    H9S14775   2.786   5.487   6.411  0.2749  1.4527 -1.3317
  136OSM    H9T14776   2.883   5.490   6.248 -2.4296  0.6417 -0.6169
  136OSM   C10S14777   2.991   5.469   6.444  0.4469 -0.3474  0.2219
  136OSM   H10S14778   3.084   5.418   6.412  0.1165 -0.9466  0.2094
  136OSM   H10T14779   2.955   5.430   6.542 -1.6084 -0.1975 -0.4311
  136OSM   C11S14780   3.017   5.620   6.469 -0.0112  0.5944 -0.5957
  136OSM   H11S14781   2.920   5.664   6.496 -0.7141 -0.9008 -0.5642
  136OSM   H11T14782   3.033   5.674   6.373 -1.0603  0.3089 -0.9435
  136OSM   C12S14783   3.139   5.644   6.566 -0.4087  0.4536  0.4171
  136OSM   H12S14784   3.140   5.754   6.572  1.3930  0.4355  0.7854
  136OSM   H12T14785   3.231   5.596   6.527  0.0575  2.3387 -0.9042
  136OSM   C13S14786   3.114   5.612   6.707 -0.3017 -0.0121 -0.7507
  136OSM   H13S14787   3.103   5.504   6.730 -2.0325  0.3550  0.3381
  136OSM   H13T14788   3.017   5.654   6.743 -0.3202  0.3598 -1.2371
  136OSM   C14S14789   3.215   5.673   6.814 -0.2684  0.2970  0.2725
  136OSM   H14S14790   3.185   5.641   6.916 -0.4544 -0.5590 -0.0428
  136OSM   H14T14791   3.203   5.783   6.806 -2.4728  0.0578 -0.6117
  136OSM   C15S14792   3.358   5.625   6.786  0.0315 -0.0161 -0.4463
  136OSM   H15S14793   3.429   5.683   6.849  0.2291 -0.6079 -0.1198
  136OSM   H15T14794   3.388   5.633   6.679 -1.5160 -1.0916 -0.9938
  136OSM   C16S14795   3.364   5.474   6.829  0.4721 -0.1688  0.1508
  136OSM   H16S14796   3.297   5.417   6.761  2.4611 -0.0579 -2.0556
  136OSM   H16T14797   3.325   5.457   6.931 -1.5071  2.0639 -0.1672
  136OSM   C17S14798   3.504   5.415   6.803  0.7871  0.0457  0.1883
  136OSM   H17S14799   3.570   5.493   6.848  1.0811 -0.4108  0.5533
  136OSM   H17T14800   3.526   5.413   6.694 -1.2836 -2.9021 -0.2828
  136OSM   C18S14801   3.531   5.275   6.850  0.7592  0.4755 -0.6821
  136OSM   H18S14802   3.445   5.212   6.819 -0.3994  1.7754 -0.2504
  136OSM   H18T14803   3.532   5.264   6.961 -1.6486 -1.5428 -0.7747
  136OSM   H18U14804   3.630   5.241   6.815  1.3002  0.4407  0.7972
  136OSM    C1F14805   3.451   4.960   6.307 -0.1738  0.1073  0.6669
  136OSM     OF14806   3.525   5.027   6.224  0.1519 -0.1466  0.7132
  136OSM    C2F14807   3.492   4.941   6.446 -0.6084 -0.6509  0.2487
  136OSM    H2F14808   3.600   4.919   6.449 -0.8437 -1.9401 -0.1730
  136OSM    H2G14809   3.440   4.855   6.494  0.8266 -1.4716  0.3732
  136OSM    C3F14810   3.487   5.077   6.525  0.1898 -0.9951 -0.1635
  136OSM    H3F14811   3.564   5.145   6.481 -0.9324  0.2610 -0.2622
  136OSM    H3G14812   3.519   5.055   6.629 -1.6443 -1.7347  0.2814
  136OSM    C4F14813   3.353   5.155   6.529  0.0747  0.2696 -0.4727
  136OSM    H4F14814   3.337   5.197   6.428  1.9564 -0.5531 -1.1655
  136OSM    H4G14815   3.370   5.240   6.599 -0.5280  1.1044 -1.3128
  136OSM    C5F14816   3.236   5.066   6.591  0.2988  0.4363 -0.1189
  136OSM    H5F14817   3.267   5.005   6.678 -0.0158 -0.8964 -0.9179
  136OSM    H5G14818   3.204   4.995   6.512 -0.1747 -0.6647  1.0283
  136OSM    C6F14819   3.111   5.156   6.622  0.2925 -0.2171 -0.0685
  136OSM    H6F14820   3.090   5.197   6.521 -0.7209 -1.0756 -0.2284
  136OSM    H6G14821   3.128   5.234   6.699 -0.4588 -2.0160  2.0473
  136OSM    C7F14822   2.990   5.075   6.666  0.1636  0.6907  0.0383
  136OSM    H7F14823   3.015   4.994   6.739  0.0389  0.1065 -0.5594
  136OSM    H7G14824   2.964   5.021   6.572  3.2623  0.7812 -0.9649
  136OSM    C8F14825   2.871   5.158   6.706  0.5356 -0.0840 -0.4802
  136OSM    H8F14826   2.774   5.104   6.693 -0.8271  2.1814 -0.2890
  136OSM    H8G14827   2.861   5.251   6.646  0.6483 -0.3186 -0.8689
  136OSM    C9F14828   2.895   5.199   6.852  0.3391 -0.1133 -0.0201
  136OSM    H9F14829   2.941   5.128   6.921 -1.0481  1.1024  2.2885
  136OSM   C10F14830   2.869   5.317   6.910  0.1195 -0.5166  0.4616
  136OSM   H10F14831   2.891   5.327   7.017 -1.9528 -3.2360  1.2795
  136OSM   C11F14832   2.816   5.443   6.845  0.2457  0.1135 -0.6102
  136OSM   H11F14833   2.852   5.463   6.742  2.1173 -0.7086 -0.1579
  136OSM   H11G14834   2.853   5.529   6.905 -0.5726  0.4063 -0.5145
  136OSM   C12F14835   2.670   5.443   6.829  0.2761  0.8137 -0.3059
  136OSM   H12F14836   2.624   5.436   6.930  0.0172 -1.4662 -0.5318
  136OSM   H12G14837   2.633   5.353   6.777  0.8380 -0.9182  2.1099
  136OSM   C13F14838   2.626   5.573   6.750  0.2346  0.5936 -0.0755
  136OSM   H13F14839   2.525   5.556   6.707  1.2258 -0.9329 -1.9313
  136OSM   H13G14840   2.695   5.588   6.664 -1.2451  1.0609 -1.2337
  136OSM   C14F14841   2.617   5.699   6.844  0.0029  0.1716 -0.0030
  136OSM   H14F14842   2.610   5.787   6.776 -2.7173 -0.9598 -1.3151
  136OSM   H14G14843   2.708   5.701   6.907 -1.0449  1.6527  1.5267
  136OSM   C15F14844   2.483   5.692   6.922 -0.6511 -0.3848  0.1742
  136OSM   H15F14845   2.483   5.597   6.980 -3.4981 -1.6536 -1.6418
  136OSM   H15G14846   2.398   5.697   6.850 -0.8621 -0.3124  0.4245
  136OSM   C16F14847   2.476   5.800   7.035  0.5425 -0.6828  0.2528
  136OSM   H16F14848   2.372   5.804   7.075  0.8916 -0.8507  1.2122
  136OSM   H16G14849   2.501   5.899   6.990  0.7938 -1.5650 -1.6310
  136OSM   C17F14850   2.561   5.776   7.161 -0.2642 -0.2080  0.3875
  136OSM   H17F14851   2.566   5.870   7.220  0.5550 -1.1870  1.9472
  136OSM   H17G14852   2.666   5.767   7.124 -0.0171  0.9097  0.7656
  136OSM   C18F14853   2.521   5.652   7.251  0.3862 -0.3997 -0.9162
  136OSM   H18F14854   2.558   5.662   7.355 -2.0351  2.1879 -0.1765
  136OSM   H18G14855   2.573   5.565   7.206  3.1094  1.0840 -0.9146
  136OSM   H18H14856   2.410   5.646   7.250  0.1004  2.6702 -0.2674
  137OSM      N14857   1.708   1.118   5.059 -0.6608  0.0800  0.4331
  137OSM    C1514858   1.789   0.991   5.054  0.5652 -0.1974  0.6961
  137OSM   H15A14859   1.855   0.999   4.970  1.0715  0.0808  1.1120
  137OSM   H15B14860   1.721   0.907   5.047 -1.2170  1.2797 -0.4678
  137OSM   H15C14861   1.841   0.981   5.149 -0.5104  0.0172  1.3287
  137OSM    C1414862   1.803   1.235   5.085  0.3831 -0.5412  0.2200
  137OSM   H14A14863   1.870   1.255   5.003 -0.7398  1.4579 -0.2782
  137OSM   H14B14864   1.868   1.218   5.169  0.8768  0.3725  0.0451
  137OSM   H14C14865   1.752   1.329   5.102  1.4094 -0.3226  2.5609
  137OSM    C1314866   1.641   1.142   4.924  0.8218 -0.9199  0.5717
  137OSM   H13A14867   1.565   1.217   4.934  1.0322 -0.5654 -0.3570
  137OSM   H13B14868   1.597   1.047   4.898  0.7673 -1.3273  2.0566
  137OSM   H13C14869   1.698   1.169   4.836 -1.2142 -0.4354 -0.6536
  137OSM    C1214870   1.605   1.115   5.168  0.3720  0.3272 -0.2625
  137OSM   H12A14871   1.527   1.050   5.134  2.6628 -3.0280  0.4212
  137OSM   H12B14872   1.562   1.213   5.182  1.2628  0.5880  0.7787
  137OSM    C1114873   1.665   1.054   5.301  0.2453  0.3248  0.5488
  137OSM   H11A14874   1.769   1.093   5.310 -0.1642  0.9577  3.1367
  137OSM   H11B14875   1.681   0.945   5.292 -0.2136 -0.1878  4.5199
  137OSM      P14876   1.445   1.042   5.443  0.1372  0.2782  0.1216
  137OSM    O1314877   1.355   1.157   5.431 -0.0746 -0.3618 -0.0939
  137OSM    O1414878   1.426   0.927   5.348 -0.0352 -0.1773  0.2475
  137OSM    O1114879   1.440   0.991   5.589 -0.2802  0.2161 -0.5715
  137OSM    O1214880   1.597   1.081   5.422 -0.0944  0.1950 -0.4084
  137OSM    C1S14881   1.533   1.037   5.694  0.5821 -0.2110  0.1995
  137OSM    H1S14882   1.550   1.146   5.693  1.6234 -0.2796  3.0661
  137OSM    H1T14883   1.633   0.990   5.693  0.6119 -0.2498  1.9608
  137OSM     NF14884   1.561   1.071   5.933  0.4336  0.8632 -0.4179
  137OSM    HNF14885   1.630   1.020   5.984 -0.1164  0.1540 -0.3749
  137OSM    C2S14886   1.483   0.995   5.833 -0.6645  0.3748  0.0040
  137OSM    H2S14887   1.377   1.026   5.845 -1.6089 -1.6532 -2.2649
  137OSM    C3S14888   1.481   0.840   5.865 -0.1189  0.4760 -0.9100
  137OSM    H3S14889   1.588   0.812   5.875 -0.5045 -0.6560  0.3672
  137OSM     O314890   1.435   0.762   5.757  0.7898  0.0845  0.1089
  137OSM    HO314891   1.481   0.807   5.685 -0.8548  0.2269 -0.8946
  137OSM    C4S14892   1.403   0.813   5.999  0.1807 -0.8362 -0.0510
  137OSM    H4S14893   1.302   0.854   6.007  0.7468  0.6552 -0.1200
  137OSM    C5S14894   1.459   0.755   6.107  0.3782  0.0078 -0.3322
  137OSM    H5S14895   1.564   0.723   6.106  0.4710  0.2694  0.3405
  137OSM    C6S14896   1.381   0.720   6.228 -0.0904 -1.1038 -0.0282
  137OSM    H6S14897   1.304   0.797   6.250 -0.1961 -1.4261  0.7516
  137OSM    H6T14898   1.444   0.714   6.320  1.2423  0.1773 -0.8095
  137OSM    C7S14899   1.306   0.588   6.212  0.0506  0.0733  1.0592
  137OSM    H7S14900   1.361   0.493   6.198 -2.7812 -1.6448  0.7876
  137OSM    H7T14901   1.244   0.595   6.120  2.0454  0.4002 -0.3057
  137OSM    C8S14902   1.198   0.558   6.325  0.2839 -0.5715  0.1368
  137OSM    H8S14903   1.147   0.462   6.305 -0.4759 -0.1864  0.2133
  137OSM    H8T14904   1.120   0.636   6.314  1.0757  0.2175 -0.0194
  137OSM    C9S14905   1.254   0.541   6.466 -0.0029 -0.4694 -0.1503
  137OSM    H9S14906   1.309   0.634   6.491  2.5249 -1.6966 -0.7709
  137OSM    H9T14907   1.328   0.460   6.451  2.3761  0.6608  4.0300
  137OSM   C10S14908   1.145   0.508   6.569 -0.8863  0.3528 -0.1577
  137OSM   H10S14909   1.115   0.402   6.555  0.1695  0.1853 -1.3516
  137OSM   H10T14910   1.049   0.562   6.555 -1.2306 -0.7571 -2.5622
  137OSM   C11S14911   1.193   0.532   6.714  0.1577 -0.0139 -0.7112
  137OSM   H11S14912   1.192   0.641   6.732  1.1697 -0.0409 -0.4345
  137OSM   H11T14913   1.296   0.491   6.722 -0.0466 -0.3950  0.0984
  137OSM   C12S14914   1.104   0.447   6.814 -0.2865  0.1291  0.1290
  137OSM   H12S14915   1.132   0.340   6.802 -0.9046 -0.2836  2.0471
  137OSM   H12T14916   0.999   0.454   6.780  0.3425  0.2091 -1.9705
  137OSM   C13S14917   1.123   0.503   6.959 -0.6066  0.4031  0.9897
  137OSM   H13S14918   1.032   0.474   7.016 -0.0337  0.5292  1.9928
  137OSM   H13T14919   1.128   0.614   6.954 -1.1646  0.3861 -1.9270
  137OSM   C14S14920   1.248   0.449   7.029  0.1211  0.4896  0.0968
  137OSM   H14S14921   1.334   0.467   6.962  0.4123  1.3705  0.6769
  137OSM   H14T14922   1.237   0.340   7.043 -0.4088  0.4029 -0.9419
  137OSM   C15S14923   1.274   0.529   7.161 -0.3912  0.1501 -0.5938
  137OSM   H15S14924   1.179   0.519   7.219 -0.6423 -0.3801 -1.0897
  137OSM   H15T14925   1.277   0.638   7.138  0.2771  0.6277  1.5517
  137OSM   C16S14926   1.392   0.477   7.243 -0.3223 -0.8495  0.7718
  137OSM   H16S14927   1.489   0.506   7.197 -0.5278 -0.0366  0.8428
  137OSM   H16T14928   1.391   0.366   7.246  1.8321 -0.9257  0.3388
  137OSM   C17S14929   1.399   0.546   7.376  1.0032 -0.0704 -0.1799
  137OSM   H17S14930   1.304   0.521   7.428  0.0770 -1.6152 -2.4521
  137OSM   H17T14931   1.395   0.655   7.355 -2.0069 -0.2193 -0.8692
  137OSM   C18S14932   1.511   0.505   7.476  0.3576 -0.1204  1.2438
  137OSM   H18S14933   1.493   0.571   7.563 -2.3047  0.6822  0.1998
  137OSM   H18T14934   1.613   0.516   7.434  0.1382 -1.0999  0.3932
  137OSM   H18U14935   1.501   0.399   7.508 -3.3468 -0.1236  0.4826
  137OSM    C1F14936   1.551   1.201   5.943 -0.6063 -0.0517 -0.1207
  137OSM     OF14937   1.459   1.263   5.897  0.1346  0.2050 -0.1348
  137OSM    C2F14938   1.667   1.268   6.005 -0.2731  0.0880 -0.1994
  137OSM    H2F14939   1.752   1.270   5.933  0.1370 -0.7733  0.2423
  137OSM    H2G14940   1.705   1.205   6.088 -2.6324 -2.0729 -0.6266
  137OSM    C3F14941   1.652   1.417   6.049  0.0559 -0.3205  0.1519
  137OSM    H3F14942   1.663   1.477   5.956  0.4546 -1.6054 -0.6647
  137OSM    H3G14943   1.738   1.437   6.116 -0.6604 -1.0954  1.3233
  137OSM    C4F14944   1.530   1.468   6.125 -0.3866 -0.1906  0.1369
  137OSM    H4F14945   1.440   1.447   6.063 -0.4129 -4.8145  1.3534
  137OSM    H4G14946   1.533   1.578   6.135  0.2561 -0.1484 -0.4759
  137OSM    C5F14947   1.501   1.395   6.261 -0.9236 -0.3767 -0.7955
  137OSM    H5F14948   1.570   1.429   6.341 -1.3061 -3.8587  1.1921
  137OSM    H5G14949   1.509   1.285   6.271 -2.8365 -0.3809  1.7453
  137OSM    C6F14950   1.365   1.435   6.329 -0.1508 -0.1904 -0.9182
  137OSM    H6F14951   1.284   1.393   6.266 -2.1879 -1.0054  2.0719
  137OSM    H6G14952   1.354   1.545   6.319  2.2886  0.0612 -1.4425
  137OSM    C7F14953   1.343   1.360   6.462 -0.7612  0.1681  0.9305
  137OSM    H7F14954   1.388   1.414   6.548  0.8214 -1.3136  1.0859
  137OSM    H7G14955   1.385   1.257   6.457 -1.3046  0.0007 -2.0979
  137OSM    C8F14956   1.190   1.341   6.495  0.7587 -1.1149 -0.6925
  137OSM    H8F14957   1.168   1.254   6.561  2.9830 -0.5573  0.9014
  137OSM    H8G14958   1.143   1.304   6.401  1.5503 -2.0657 -0.7343
  137OSM    C9F14959   1.114   1.465   6.526 -0.4630  0.1883 -0.0993
  137OSM    H9F14960   1.103   1.535   6.441 -2.2529  0.3651  0.2412
  137OSM   C10F14961   1.039   1.496   6.637  0.2191 -0.7799 -0.0706
  137OSM   H10F14962   0.969   1.582   6.636 -0.4855 -1.3510 -0.4262
  137OSM   C11F14963   1.045   1.426   6.773 -0.3826 -0.4206 -0.4398
  137OSM   H11F14964   1.144   1.377   6.781  0.4430  1.3290  0.4706
  137OSM   H11G14965   0.978   1.337   6.771  2.1441 -2.5494  1.6328
  137OSM   C12F14966   1.009   1.508   6.895 -0.2164  0.3050  0.9155
  137OSM   H12F14967   0.898   1.520   6.901 -0.3298 -1.0736  2.0170
  137OSM   H12G14968   1.064   1.604   6.890  0.7375 -0.2415  0.6959
  137OSM   C13F14969   1.069   1.453   7.029  0.5399  0.0588 -0.3095
  137OSM   H13F14970   1.180   1.451   7.028  0.6751 -1.7700  2.8683
  137OSM   H13G14971   1.034   1.348   7.038  0.4089  0.0560 -0.8381
  137OSM   C14F14972   1.038   1.548   7.145  0.5069  0.1660 -0.3477
  137OSM   H14F14973   0.928   1.548   7.161  0.6810  0.1887  0.9573
  137OSM   H14G14974   1.068   1.650   7.113  0.5740 -0.4642 -2.4083
  137OSM   C15F14975   1.095   1.498   7.271  0.6613  0.6414 -0.2197
  137OSM   H15F14976   1.205   1.494   7.261  0.7903  0.0924  1.2066
  137OSM   H15G14977   1.067   1.394   7.300  1.7441 -0.6120 -3.2807
  137OSM   C16F14978   1.062   1.591   7.394 -0.1773 -0.4403  0.4460
  137OSM   H16F14979   0.953   1.611   7.396 -0.2273 -0.3977 -1.0941
  137OSM   H16G14980   1.104   1.693   7.383 -0.2533 -0.2901  1.5096
  137OSM   C17F14981   1.105   1.536   7.528  0.1655 -0.4972 -0.4461
  137OSM   H17F14982   1.216   1.525   7.531  0.1881 -0.3571  3.4428
  137OSM   H17G14983   1.056   1.436   7.533 -0.8123 -0.1235 -1.7581
  137OSM   C18F14984   1.054   1.615   7.649 -0.8181 -0.0662 -0.2161
  137OSM   H18F14985   1.085   1.557   7.738 -2.9807 -1.5280 -0.3387
  137OSM   H18G14986   0.945   1.632   7.650 -0.5480  1.9062  1.4301
  137OSM   H18H14987   1.098   1.717   7.645 -2.1400  0.4931 -1.0799
  138OSM      N14988   1.848   2.750   5.836  0.6560  0.3910 -0.7761
  138OSM    C1514989   1.694   2.754   5.855  0.5381  0.4870 -0.0662
  138OSM   H15A14990   1.645   2.659   5.836 -1.9347  1.3611  1.4311
  138OSM   H15B14991   1.645   2.828   5.794 -0.8157  0.6607  1.1669
  138OSM   H15C14992   1.674   2.785   5.957  0.2024 -0.6164  0.2234
  138OSM    C1414993   1.904   2.633   5.917 -0.4080  0.3777  0.0032
  138OSM   H14A14994   1.850   2.627   6.010 -4.2731  0.7739 -2.0221
  138OSM   H14B14995   2.008   2.653   5.938 -0.8310  1.3642  1.2961
  138OSM   H14C14996   1.884   2.542   5.862  1.1898  1.0206 -1.8000
  138OSM    C1314997   1.875   2.711   5.693 -0.4164 -0.1335 -0.6215
  138OSM   H13A14998   1.821   2.619   5.674  1.2267 -1.9694  2.6129
  138OSM   H13B14999   1.982   2.695   5.685 -0.5312 -1.5179  0.1433
  138OSM   H13C15000   1.831   2.781   5.624 -0.4253  1.3352  0.8287
  138OSM    C1215001   1.911   2.884   5.877  0.1239 -1.2765  0.8189
  138OSM   H12A15002   1.896   2.907   5.982 -0.6703 -0.6465  0.5791
  138OSM   H12B15003   1.867   2.966   5.823  0.8035 -0.2498  1.7819
  138OSM    C1115004   2.064   2.890   5.874 -0.2665  0.2291  0.0839
  138OSM   H11A15005   2.094   2.842   5.779 -2.6384 -1.0608 -0.0841
  138OSM   H11B15006   2.121   2.831   5.948  0.9620  2.0641  0.6584
  138OSM      P15007   2.115   3.111   6.003  0.3175 -0.2551 -0.1279
  138OSM    O1315008   2.236   3.058   6.069  0.6617  0.1615 -0.2479
  138OSM    O1415009   2.121   3.255   5.962 -0.0490 -0.1133 -0.0800
  138OSM    O1115010   1.976   3.084   6.076  0.0642  0.4640  0.4701
  138OSM    O1215011   2.091   3.027   5.873 -0.2959  0.4417 -0.5588
  138OSM    C1S15012   1.979   3.056   6.221  0.3025  0.4807  0.0163
  138OSM    H1S15013   2.080   3.064   6.265 -0.6166 -2.3165  2.9653
  138OSM    H1T15014   1.947   2.950   6.229 -2.8855  1.1789 -1.8233
  138OSM     NF15015   1.885   3.118   6.439  0.8131 -0.2682  0.3278
  138OSM    HNF15016   1.841   3.039   6.481 -0.9742  0.6121  0.1689
  138OSM    C2S15017   1.875   3.138   6.295 -0.4970 -0.3595  0.2583
  138OSM    H2S15018   1.895   3.243   6.266  1.8167 -0.5876  0.8380
  138OSM    C3S15019   1.730   3.098   6.252 -0.5074 -0.2088  0.6726
  138OSM    H3S15020   1.725   2.989   6.275  0.7345 -0.7376 -1.3692
  138OSM     O315021   1.705   3.096   6.108  0.9739 -0.1802 -0.4210
  138OSM    HO315022   1.789   3.103   6.062  0.3533 -1.6557 -1.8824
  138OSM    C4S15023   1.626   3.166   6.327  0.7509 -0.0234 -0.6681
  138OSM    H4S15024   1.576   3.098   6.398  0.8411 -0.3209 -0.8907
  138OSM    C5S15025   1.558   3.279   6.296 -1.0066  0.0105 -0.7210
  138OSM    H5S15026   1.584   3.340   6.208 -2.0945  1.5487 -0.0302
  138OSM    C6S15027   1.444   3.339   6.374 -0.2940  0.2919  0.1605
  138OSM    H6S15028   1.420   3.277   6.462  0.3196 -0.5076 -0.2252
  138OSM    H6T15029   1.347   3.357   6.322  0.3601 -1.7252 -1.9112
  138OSM    C7S15030   1.500   3.476   6.423 -0.0441  0.0815 -0.0299
  138OSM    H7S15031   1.516   3.543   6.335 -1.1064 -0.4290 -0.6278
  138OSM    H7T15032   1.594   3.456   6.478  1.3094 -2.0964 -2.8898
  138OSM    C8S15033   1.398   3.555   6.507 -0.0338 -0.0965 -0.0849
  138OSM    H8S15034   1.297   3.535   6.464 -0.1520 -1.8251  0.9182
  138OSM    H8T15035   1.416   3.665   6.509  1.3020 -0.3024  0.0488
  138OSM    C9S15036   1.391   3.510   6.661 -0.3522  0.4092  0.0989
  138OSM    H9S15037   1.490   3.537   6.705  0.0920 -0.2539 -0.4773
  138OSM    H9T15038   1.381   3.400   6.651  3.0295  0.2052 -2.8208
  138OSM   C10S15039   1.268   3.564   6.734  0.0583  0.1107 -0.6037
  138OSM   H10S15040   1.176   3.537   6.676  0.8371 -2.2142 -0.8597
  138OSM   H10T15041   1.275   3.675   6.724 -0.6700  0.1098 -1.2784
  138OSM   C11S15042   1.251   3.513   6.875 -0.2031 -0.2520 -0.0318
  138OSM   H11S15043   1.339   3.545   6.935  0.1947 -1.3170 -0.0156
  138OSM   H11T15044   1.250   3.401   6.874  1.1404 -0.3131  1.2751
  138OSM   C12S15045   1.125   3.559   6.948  0.3500 -0.1549 -0.1964
  138OSM   H12S15046   1.030   3.533   6.897 -0.4811 -1.8397  2.0541
  138OSM   H12T15047   1.129   3.670   6.951 -1.8681 -0.0338  0.7315
  138OSM   C13S15048   1.101   3.498   7.088  0.4044 -0.0142  0.0441
  138OSM   H13S15049   1.110   3.388   7.092  0.2744  0.0053  1.6002
  138OSM   H13T15050   0.997   3.524   7.117 -0.1730  1.4094 -2.9309
  138OSM   C14S15051   1.202   3.553   7.192  0.1263  0.2153 -0.1505
  138OSM   H14S15052   1.177   3.661   7.192 -1.5476 -0.0964  1.9085
  138OSM   H14T15053   1.306   3.544   7.155 -0.5028  0.9601 -2.1944
  138OSM   C15S15054   1.176   3.474   7.325  0.0308  0.1619  1.1207
  138OSM   H15S15055   1.205   3.369   7.304 -0.5469  0.2594 -0.3322
  138OSM   H15T15056   1.067   3.472   7.348  0.1167 -2.9337  1.7224
  138OSM   C16S15057   1.257   3.530   7.443  0.1162 -0.2370 -0.3721
  138OSM   H16S15058   1.363   3.545   7.414 -0.6402 -0.7071 -3.8703
  138OSM   H16T15059   1.249   3.453   7.523 -1.2125 -0.2438 -0.4757
  138OSM   C17S15060   1.202   3.669   7.494  0.4345  0.1064  0.1846
  138OSM   H17S15061   1.093   3.665   7.474  0.7512 -0.7963 -1.5330
  138OSM   H17T15062   1.250   3.751   7.435  0.5662  0.8636  1.3104
  138OSM   C18S15063   1.223   3.691   7.642 -0.5740 -0.0109  0.2025
  138OSM   H18S15064   1.330   3.690   7.673 -0.9698 -0.6774  1.6245
  138OSM   H18T15065   1.189   3.606   7.705 -0.2272 -1.3453 -1.3413
  138OSM   H18U15066   1.161   3.777   7.676 -0.4345  0.2640 -0.2181
  138OSM    C1F15067   1.983   3.173   6.508  0.2407  0.5149 -0.8735
  138OSM     OF15068   2.060   3.258   6.456  0.1035 -0.0688  0.1389
  138OSM    C2F15069   2.008   3.109   6.640 -0.1755 -0.2286 -0.2097
  138OSM    H2F15070   2.006   2.998   6.641  3.5949 -0.4394 -1.1282
  138OSM    H2G15071   1.926   3.144   6.705  0.0965 -0.0059  0.0177
  138OSM    C3F15072   2.140   3.164   6.702  0.4362 -0.5833 -0.2624
  138OSM    H3F15073   2.134   3.274   6.718 -0.4006 -0.4562 -1.3375
  138OSM    H3G15074   2.226   3.163   6.633 -1.2264  3.2023 -2.7229
  138OSM    C4F15075   2.172   3.110   6.839 -0.6116  0.3351  0.1069
  138OSM    H4F15076   2.282   3.120   6.854 -0.9116  1.8949  1.5618
  138OSM    H4G15077   2.145   3.003   6.841 -2.8331  0.8417 -0.3401
  138OSM    C5F15078   2.098   3.188   6.951  0.5011  0.3505 -0.1320
  138OSM    H5F15079   1.996   3.221   6.920 -0.4450 -3.0053 -1.1173
  138OSM    H5G15080   2.160   3.276   6.977  0.9826  0.1639 -0.6174
  138OSM    C6F15081   2.073   3.102   7.076 -0.0934  0.1143  0.2640
  138OSM    H6F15082   2.160   3.034   7.087  0.6520  0.9791 -0.1262
  138OSM    H6G15083   1.985   3.040   7.049  0.3211 -0.3052 -0.1435
  138OSM    C7F15084   2.041   3.179   7.205  0.8116 -0.5397 -0.5892
  138OSM    H7F15085   1.943   3.231   7.204  1.0011 -0.1642 -1.8953
  138OSM    H7G15086   2.116   3.259   7.218 -0.5443  0.5330  1.0226
  138OSM    C8F15087   2.026   3.076   7.332 -0.3429 -0.1343  0.1875
  138OSM    H8F15088   1.949   3.002   7.303 -0.5599 -0.8191  2.3555
  138OSM    H8G15089   1.994   3.140   7.417 -0.2656  0.4626 -0.2196
  138OSM    C9F15090   2.156   3.009   7.367 -0.0649 -0.8614 -0.0484
  138OSM    H9F15091   2.192   2.943   7.286  2.6336 -2.4294  2.2525
  138OSM   C10F15092   2.216   3.007   7.484 -0.1688  0.1213  0.1275
  138OSM   H10F15093   2.311   2.954   7.499  0.2317  1.5084  3.4409
  138OSM   C11F15094   2.185   3.084   7.611 -0.1196  0.5858  0.0840
  138OSM   H11F15095   2.080   3.080   7.648 -0.4006 -3.5371 -0.6224
  138OSM   H11G15096   2.209   3.192   7.611 -3.9222  1.5750  1.6309
  138OSM   C12F15097   2.261   3.030   7.737  0.2235  0.2598  0.4465
  138OSM   H12F15098   2.367   3.047   7.708  0.1020  1.9143  0.8484
  138OSM   H12G15099   2.237   2.922   7.746  1.1927 -0.0704 -0.6233
  138OSM   C13F15100   2.226   3.082   7.878  0.3409 -0.3827 -0.7036
  138OSM   H13F15101   2.116   3.098   7.873  0.2228 -1.4682 -2.2344
  138OSM   H13G15102   2.269   3.181   7.902 -2.6755  0.2591  2.9650
  138OSM   C14F15103   2.259   2.983   7.996 -0.0573  0.3957 -0.1171
  138OSM   H14F15104   2.368   2.988   8.017  0.3545 -0.2395 -1.8833
  138OSM   H14G15105   2.225   2.880   7.969 -0.2959  0.2838  0.5865
  138OSM   C15F15106   2.185   3.019   8.124  0.1882 -0.0853  0.4241
  138OSM   H15F15107   2.078   3.036   8.096  0.5168  1.8012  0.1514
  138OSM   H15G15108   2.238   3.113   8.151  1.2336  0.0931 -1.9942
  138OSM   C16F15109   2.204   2.915   8.230  0.1804 -0.3737  0.3542
  138OSM   H16F15110   2.312   2.897   8.244  0.8020  1.1593 -1.8127
  138OSM   H16G15111   2.143   2.823   8.213 -0.7259  0.1368  0.7753
  138OSM   C17F15112   2.167   2.961   8.368 -0.7512 -0.4490  0.3876
  138OSM   H17F15113   2.058   2.947   8.387 -0.7012  0.4986  1.5127
  138OSM   H17G15114   2.181   3.071   8.380 -2.0572 -0.0818 -1.1491
  138OSM   C18F15115   2.260   2.889   8.474  0.1297  0.2901  0.2359
  138OSM   H18F15116   2.231   2.927   8.574 -0.4168  0.4513  0.0206
  138OSM   H18G15117   2.366   2.921   8.465 -0.2803  1.6167 -0.0689
  138OSM   H18H15118   2.236   2.780   8.469 -0.4302  0.4607 -1.0903
  139OSM      N15119   6.137   4.087   5.691 -0.5601 -0.3279 -0.4625
  139OSM    C1515120   6.154   3.951   5.634 -0.5672 -0.0554 -0.6430
  139OSM   H15A15121   6.186   3.959   5.531 -0.6689 -1.6587 -0.8364
  139OSM   H15B15122   6.072   3.882   5.652 -0.4250  0.1625  0.9249
  139OSM   H15C15123   6.242   3.919   5.688 -0.8568  2.0040  1.1493
  139OSM    C1415124   6.263   4.172   5.669 -0.2218  0.0658 -0.0612
  139OSM   H14A15125   6.348   4.122   5.713  0.3022  0.1058 -1.0194
  139OSM   H14B15126   6.245   4.266   5.719  0.9941  0.1881  0.1706
  139OSM   H14C15127   6.284   4.188   5.565  2.1235 -1.8253  0.0202
  139OSM    C1315128   6.018   4.148   5.612  0.3269 -0.4626 -0.1919
  139OSM   H13A15129   5.926   4.099   5.641 -0.5295  0.8275 -0.6276
  139OSM   H13B15130   6.046   4.134   5.508  2.6132 -1.0056  0.4435
  139OSM   H13C15131   6.019   4.253   5.637 -1.4105 -0.7064  1.0880
  139OSM    C1215132   6.109   4.093   5.842  0.7961  0.0579  0.0638
  139OSM   H12A15133   6.176   4.026   5.895  0.4704  0.2292  0.7001
  139OSM   H12B15134   6.012   4.048   5.858  1.5601 -1.3767  0.8370
  139OSM    C1115135   6.124   4.238   5.905 -0.4201  0.5229 -0.3441
  139OSM   H11A15136   6.068   4.231   6.001 -1.4372 -0.3928 -0.9788
  139OSM   H11B15137   6.074   4.314   5.842  1.6562  0.9506 -1.5662
  139OSM      P15138   6.323   4.394   5.935 -0.4950  0.5061 -0.3392
  139OSM    O1315139   6.465   4.381   5.890 -0.1225  0.6223  0.2764
  139OSM    O1415140   6.233   4.472   5.850 -0.1005  0.0002  0.1349
  139OSM    O1115141   6.318   4.457   6.079  0.2037  0.0495 -0.1158
  139OSM    O1215142   6.261   4.252   5.947 -0.0878  0.2954 -0.6007
  139OSM    C1S15143   6.218   4.421   6.173 -0.2062  0.5170  0.7883
  139OSM    H1S15144   6.232   4.317   6.209 -2.9481 -0.0931  0.2869
  139OSM    H1T15145   6.117   4.421   6.126 -0.5779  2.4684  1.5089
  139OSM     NF15146   6.132   4.462   6.404 -0.0381 -0.0356  0.6547
  139OSM    HNF15147   6.033   4.461   6.389  0.2578  2.2925 -2.2973
  139OSM    C2S15148   6.203   4.520   6.292  0.1467 -0.0360 -0.8745
  139OSM    H2S15149   6.308   4.535   6.324  0.5996  0.1708 -2.3878
  139OSM    C3S15150   6.149   4.659   6.240  0.4170  0.4339 -0.1098
  139OSM    H3S15151   6.042   4.639   6.219  0.1939 -0.6989  1.8714
  139OSM     O315152   6.205   4.708   6.118  0.4670 -0.3826 -0.5174
  139OSM    HO315153   6.270   4.640   6.097  3.0561  1.0176  2.2401
  139OSM    C4S15154   6.155   4.768   6.338  0.0744 -0.2055  0.1958
  139OSM    H4S15155   6.064   4.769   6.401 -0.5154  2.0622 -0.5982
  139OSM    C5S15156   6.249   4.868   6.359  0.5154  0.0876 -0.0244
  139OSM    H5S15157   6.341   4.875   6.298 -0.0102  0.1655 -0.8253
  139OSM    C6S15158   6.244   4.974   6.464 -0.8245  1.0666 -0.2069
  139OSM    H6S15159   6.214   5.061   6.402 -0.3614 -0.7717 -3.1862
  139OSM    H6T15160   6.341   4.993   6.515 -2.5095  2.1655  2.9172
  139OSM    C7S15161   6.146   4.970   6.580  0.3224  0.6945  0.0989
  139OSM    H7S15162   6.042   4.946   6.550  0.7366  1.8068 -2.4248
  139OSM    H7T15163   6.126   5.070   6.626  0.0040  1.0155 -0.7269
  139OSM    C8S15164   6.209   4.888   6.706  0.0633  0.2342 -0.3082
  139OSM    H8S15165   6.317   4.909   6.719  0.0240  1.1020 -1.2891
  139OSM    H8T15166   6.194   4.781   6.679 -1.1903 -0.4414  2.5884
  139OSM    C9S15167   6.130   4.919   6.830  0.2318 -0.4899 -0.5738
  139OSM    H9S15168   6.021   4.930   6.814  0.3288  2.6705  0.3080
  139OSM    H9T15169   6.179   5.009   6.872 -2.2584  1.6540 -1.9618
  139OSM   C10S15170   6.146   4.808   6.932  1.0834 -0.4962 -0.8319
  139OSM   H10S15171   6.254   4.782   6.932  1.7380  1.8448  1.1477
  139OSM   H10T15172   6.094   4.717   6.895  0.4981 -0.1609 -0.8370
  139OSM   C11S15173   6.108   4.855   7.069  0.4262  0.3500  0.0492
  139OSM   H11S15174   5.999   4.878   7.059  0.4128  0.2713  0.0086
  139OSM   H11T15175   6.160   4.950   7.092 -1.5131  1.5463 -0.2016
  139OSM   C12S15176   6.131   4.751   7.177 -0.3902  0.3861  0.4988
  139OSM   H12S15177   6.238   4.724   7.184 -0.4617  0.3595  1.8666
  139OSM   H12T15178   6.075   4.659   7.149  0.3900  0.1354 -0.2647
  139OSM   C13S15179   6.093   4.809   7.314 -0.2358  0.2199 -0.4405
  139OSM   H13S15180   5.999   4.772   7.359  0.3000 -0.9931 -0.2675
  139OSM   H13T15181   6.070   4.918   7.306 -1.3259  0.1779  1.5783
  139OSM   C14S15182   6.204   4.799   7.424  0.2065 -0.0392  0.0397
  139OSM   H14S15183   6.285   4.871   7.399  0.1126 -0.0828 -0.4002
  139OSM   H14T15184   6.246   4.696   7.433  0.4202  0.2577  3.8552
  139OSM   C15S15185   6.148   4.840   7.560  0.6668 -0.4208 -0.4735
  139OSM   H15S15186   6.124   4.752   7.623  0.8114  0.1963  0.4647
  139OSM   H15T15187   6.052   4.894   7.548  0.1230 -0.3951  2.8497
  139OSM   C16S15188   6.241   4.929   7.645 -0.1192  0.5269  0.0697
  139OSM   H16S15189   6.254   5.022   7.585  0.7525  0.2396 -0.2101
  139OSM   H16T15190   6.341   4.883   7.662  0.2555  2.0618  2.3976
  139OSM   C17S15191   6.174   4.955   7.778  0.9210 -0.3104 -0.3851
  139OSM   H17S15192   6.147   4.860   7.829 -1.3250  0.7006  0.3982
  139OSM   H17T15193   6.072   4.996   7.763  0.2917 -1.0297  1.5605
  139OSM   C18S15194   6.248   5.048   7.874 -0.1388 -0.0039  0.4236
  139OSM   H18S15195   6.211   5.031   7.977 -2.6838 -1.8041 -0.6648
  139OSM   H18T15196   6.239   5.155   7.846  1.1478  0.1079  0.4161
  139OSM   H18U15197   6.356   5.024   7.867 -0.4625 -1.3473 -0.4823
  139OSM    C1F15198   6.181   4.364   6.475  0.1458  0.1542  0.1873
  139OSM     OF15199   6.300   4.337   6.460 -0.0759 -0.2653  0.8896
  139OSM    C2F15200   6.083   4.296   6.566 -0.8620 -0.2543 -0.1813
  139OSM    H2F15201   6.079   4.188   6.540 -0.1408 -0.4454  0.4767
  139OSM    H2G15202   5.986   4.350   6.570  0.6143  2.4704  1.8650
  139OSM    C3F15203   6.134   4.290   6.712 -0.3958 -0.0693  0.8358
  139OSM    H3F15204   6.220   4.220   6.719 -1.5213 -2.0430 -2.6684
  139OSM    H3G15205   6.048   4.251   6.769  0.9049 -1.6747  1.7740
  139OSM    C4F15206   6.168   4.427   6.773 -0.3216  0.6960  0.2963
  139OSM    H4F15207   6.077   4.490   6.764 -1.5990 -0.9658  1.0319
  139OSM    H4G15208   6.250   4.481   6.721 -0.2477 -0.7193 -1.1363
  139OSM    C5F15209   6.214   4.407   6.922 -0.5058 -0.0346  0.0888
  139OSM    H5F15210   6.237   4.511   6.954 -2.5546  0.9151 -1.3042
  139OSM    H5G15211   6.301   4.338   6.925 -0.7603 -0.3420  0.4998
  139OSM    C6F15212   6.116   4.358   7.029  0.5378  0.7662  0.1406
  139OSM    H6F15213   6.072   4.258   7.008  0.8526  0.5285  0.5969
  139OSM    H6G15214   6.029   4.428   7.038 -0.1610 -0.1417  0.7000
  139OSM    C7F15215   6.174   4.339   7.167  0.0074 -0.3419  0.5078
  139OSM    H7F15216   6.223   4.434   7.196  1.6498 -0.6107 -1.2193
  139OSM    H7G15217   6.261   4.270   7.162 -0.1517 -0.4936 -0.4660
  139OSM    C8F15218   6.074   4.296   7.279  0.3527 -0.4603 -0.3241
  139OSM    H8F15219   6.127   4.213   7.331  1.0040  0.0673 -0.1234
  139OSM    H8G15220   5.990   4.239   7.235  1.6887 -0.8646 -2.5146
  139OSM    C9F15221   6.023   4.406   7.366  0.4345  0.3147 -0.8199
  139OSM    H9F15222   5.973   4.487   7.311  1.7681  1.0535 -0.9882
  139OSM   C10F15223   6.028   4.416   7.499  0.2728  0.0030 -0.5934
  139OSM   H10F15224   5.986   4.505   7.548 -0.7599 -1.5003  1.4104
  139OSM   C11F15225   6.082   4.313   7.586 -0.5213  0.1539 -0.7722
  139OSM   H11F15226   6.067   4.215   7.534 -1.3176 -0.5419  0.6997
  139OSM   H11G15227   6.019   4.299   7.676  1.1823 -0.0964  0.4204
  139OSM   C12F15228   6.224   4.336   7.641  0.2177  0.4351 -0.6562
  139OSM   H12F15229   6.240   4.443   7.667  0.5987 -0.0043  0.9882
  139OSM   H12G15230   6.292   4.312   7.556  0.5799  2.0321 -0.8522
  139OSM   C13F15231   6.253   4.264   7.767 -0.4546  0.2049 -0.1138
  139OSM   H13F15232   6.362   4.240   7.766 -0.9150 -2.1904  0.9495
  139OSM   H13G15233   6.203   4.166   7.757  0.2612 -0.3687  1.5672
  139OSM   C14F15234   6.203   4.328   7.901 -0.0395  0.2344 -0.4352
  139OSM   H14F15235   6.198   4.246   7.975 -1.7229  0.1098 -0.6515
  139OSM   H14G15236   6.098   4.360   7.885 -0.3207 -0.1004  0.7103
  139OSM   C15F15237   6.282   4.453   7.942  0.2183  0.2422  0.2449
  139OSM   H15F15238   6.254   4.533   7.870  0.7598  0.8385  0.6850
  139OSM   H15G15239   6.386   4.419   7.926 -0.4475 -1.1320 -1.5012
  139OSM   C16F15240   6.255   4.518   8.076 -0.6126 -0.4532 -0.1253
  139OSM   H16F15241   6.271   4.440   8.154  0.9619  0.7836  0.8527
  139OSM   H16G15242   6.145   4.535   8.072 -0.6637  0.0547  2.1613
  139OSM   C17F15243   6.363   4.623   8.099  0.2084  0.4128  0.0476
  139OSM   H17F15244   6.321   4.697   8.170  0.7769 -0.0366  0.8784
  139OSM   H17G15245   6.380   4.676   8.003  0.7966 -1.1172 -0.7253
  139OSM   C18F15246   6.500   4.569   8.155  0.0431 -0.4885 -0.7348
  139OSM   H18F15247   6.495   4.515   8.251  1.0662 -2.0420 -1.5062
  139OSM   H18G15248   6.564   4.659   8.165 -1.5687  0.4064  3.2312
  139OSM   H18H15249   6.549   4.498   8.084  2.6713  1.2140 -0.7567
  140OSM      N15250   6.240   6.240   5.851  0.3904 -0.4907  0.5229
  140OSM    C1515251   6.243   6.115   5.765  0.3363  0.1470 -0.4100
  140OSM   H15A15252   6.294   6.043   5.828  1.1930 -0.5056 -1.8015
  140OSM   H15B15253   6.294   6.129   5.671  1.3478 -1.8950 -0.2226
  140OSM   H15C15254   6.146   6.076   5.741  1.2642 -2.2690 -0.6089
  140OSM    C1415255   6.377   6.299   5.868 -0.1986  0.0513  0.2713
  140OSM   H14A15256   6.381   6.389   5.928  3.2967  1.0049 -1.1667
  140OSM   H14B15257   6.416   6.331   5.773 -1.0599  1.4392  0.3563
  140OSM   H14C15258   6.441   6.227   5.916  1.8668  1.7655  0.2737
  140OSM    C1315259   6.166   6.348   5.773 -0.1307 -0.8349 -0.2965
  140OSM   H13A15260   6.130   6.433   5.828 -1.8208 -1.2935 -0.6376
  140OSM   H13B15261   6.080   6.305   5.724 -0.8837  0.8517 -0.5067
  140OSM   H13C15262   6.237   6.396   5.707  2.2009  0.6967  3.0075
  140OSM    C1215263   6.182   6.220   5.988  1.4517  1.2169  0.0987
  140OSM   H12A15264   6.222   6.131   6.035 -1.7806  0.4578  1.7068
  140OSM   H12B15265   6.077   6.195   5.976  2.1620 -2.2023  0.1043
  140OSM    C1115266   6.178   6.340   6.088 -1.0035  0.1900 -0.3132
  140OSM   H11A15267   6.285   6.359   6.111 -0.8852  0.5882 -1.1836
  140OSM   H11B15268   6.117   6.299   6.172 -1.8984 -0.2336 -1.1463
  140OSM      P15269   5.989   6.517   6.095  0.5297  0.3309 -0.0034
  140OSM    O1315270   5.980   6.662   6.068  0.1913  0.2211 -0.2127
  140OSM    O1415271   5.874   6.442   6.053  0.0255  0.6607 -0.1921
  140OSM    O1115272   6.008   6.503   6.251  0.6448  0.1818  0.0005
  140OSM    O1215273   6.115   6.454   6.035 -0.1684  0.1161  0.0486
  140OSM    C1S15274   6.119   6.574   6.306  0.2034 -0.2602 -0.0044
  140OSM    H1S15275   6.109   6.684   6.303  0.6349 -0.0613  3.0388
  140OSM    H1T15276   6.217   6.556   6.258 -0.4363  1.2533 -1.9963
  140OSM     NF15277   6.269   6.603   6.508  0.2089  0.5590  0.2935
  140OSM    HNF15278   6.350   6.546   6.513 -0.5129 -0.5060  0.2601
  140OSM    C2S15279   6.152   6.534   6.452  0.1326 -0.0336 -0.3808
  140OSM    H2S15280   6.067   6.551   6.521  0.9126 -2.3975  1.3084
  140OSM    C3S15281   6.172   6.381   6.458 -0.6206  0.0024  0.1024
  140OSM    H3S15282   6.263   6.357   6.399 -0.1229  1.5000  0.2128
  140OSM     O315283   6.059   6.303   6.421  0.4176  0.0134  0.0073
  140OSM    HO315284   6.005   6.364   6.370 -0.3649  1.9732  2.9827
  140OSM    C4S15285   6.210   6.332   6.598  0.0552 -0.5445 -0.4127
  140OSM    H4S15286   6.172   6.406   6.671  1.3453  0.0246 -0.2937
  140OSM    C5S15287   6.264   6.214   6.641  0.0952  0.1639  0.0871
  140OSM    H5S15288   6.292   6.136   6.568 -1.7862 -0.2601 -0.2439
  140OSM    C6S15289   6.293   6.181   6.785 -0.2589  0.2236 -0.4674
  140OSM    H6S15290   6.400   6.197   6.810 -0.0087 -0.7638 -0.8681
  140OSM    H6T15291   6.263   6.075   6.800  0.1873  0.3321  1.5452
  140OSM    C7S15292   6.218   6.262   6.895 -0.3679  0.2356  0.2141
  140OSM    H7S15293   6.108   6.266   6.879 -0.3114 -0.2798 -0.3673
  140OSM    H7T15294   6.269   6.360   6.886  1.2252 -0.4960  0.9959
  140OSM    C8S15295   6.234   6.219   7.038  0.7567 -0.1944 -0.1638
  140OSM    H8S15296   6.340   6.222   7.073  0.8147  3.7618 -0.1439
  140OSM    H8T15297   6.196   6.116   7.051  0.7826 -0.4018 -1.6576
  140OSM    C9S15298   6.156   6.307   7.135 -0.2669 -0.2185 -0.2473
  140OSM    H9S15299   6.047   6.296   7.117 -0.3405 -1.3752  0.7576
  140OSM    H9T15300   6.174   6.415   7.118  1.0112 -0.7127 -2.3016
  140OSM   C10S15301   6.186   6.255   7.276 -0.0070 -0.2225  0.1748
  140OSM   H10S15302   6.218   6.151   7.258 -1.6792 -0.3358 -2.7139
  140OSM   H10T15303   6.092   6.251   7.336 -0.3233  0.1380 -0.2889
  140OSM   C11S15304   6.291   6.330   7.357 -0.2125  0.3092  0.2888
  140OSM   H11S15305   6.253   6.433   7.375 -1.0916 -0.1412  1.1022
  140OSM   H11T15306   6.385   6.335   7.297  2.9650  0.5021  4.7519
  140OSM   C12S15307   6.333   6.256   7.482 -0.0608  0.0806  0.1240
  140OSM   H12S15308   6.370   6.151   7.473  0.2665  0.2353 -0.3749
  140OSM   H12T15309   6.249   6.263   7.555  0.3671  0.5207  0.5837
  140OSM   C13S15310   6.452   6.328   7.553 -0.1828 -0.4141  0.1433
  140OSM   H13S15311   6.426   6.436   7.554  0.0470 -0.3601  0.3387
  140OSM   H13T15312   6.540   6.315   7.485 -0.6331 -0.6182 -0.4090
  140OSM   C14S15313   6.499   6.260   7.681 -0.1563  0.0865 -0.3309
  140OSM   H14S15314   6.416   6.257   7.755 -0.8011  2.2789 -0.8913
  140OSM   H14T15315   6.574   6.323   7.735 -1.0493  0.6172  0.3171
  140OSM   C15S15316   6.554   6.114   7.658 -0.0769 -0.4990 -0.9563
  140OSM   H15S15317   6.630   6.111   7.577  1.0527 -1.9563  0.1058
  140OSM   H15T15318   6.470   6.063   7.606 -1.3150  1.8917 -1.4446
  140OSM   C16S15319   6.588   6.027   7.778 -0.8774  0.5793  0.2387
  140OSM   H16S15320   6.694   6.037   7.809 -0.8961 -2.8248  1.7826
  140OSM   H16T15321   6.603   5.929   7.729  2.8222  0.9354  0.4107
  140OSM   C17S15322   6.490   6.023   7.891 -0.4611  0.5844  0.4962
  140OSM   H17S15323   6.386   5.999   7.863 -0.4623 -1.2015  1.8305
  140OSM   H17T15324   6.491   6.120   7.945  0.3304  1.5706 -1.1917
  140OSM   C18S15325   6.521   5.924   7.996 -0.4506  0.6035  0.7026
  140OSM   H18S15326   6.435   5.902   8.062 -0.5121  0.6380  0.6351
  140OSM   H18T15327   6.601   5.961   8.064 -1.0553  2.5706  0.4079
  140OSM   H18U15328   6.541   5.828   7.943 -2.8816 -0.7844  2.1355
  140OSM    C1F15329   6.268   6.733   6.543 -0.0989  0.1094 -0.0623
  140OSM     OF15330   6.174   6.801   6.517  0.4207 -0.3356 -0.1259
  140OSM    C2F15331   6.387   6.782   6.611 -0.6459 -0.0088 -0.2950
  140OSM    H2F15332   6.481   6.768   6.553 -0.1223 -1.2801  0.8254
  140OSM    H2G15333   6.393   6.728   6.708  0.1753  2.0675  0.8878
  140OSM    C3F15334   6.381   6.936   6.628  0.7837 -0.0742  0.5699
  140OSM    H3F15335   6.293   6.953   6.693  1.1120  1.7571  0.5748
  140OSM    H3G15336   6.364   6.984   6.529  0.5651  0.0551  0.6699
  140OSM    C4F15337   6.503   7.004   6.690  0.6400 -0.2011 -0.1302
  140OSM    H4F15338   6.514   7.114   6.683  0.0245 -0.1728 -0.7374
  140OSM    H4G15339   6.593   6.968   6.636  0.6769 -0.2381 -0.0444
  140OSM    C5F15340   6.515   6.975   6.841  0.3821  0.2169 -0.1492
  140OSM    H5F15341   6.514   6.864   6.850  1.7127  0.2311  0.3352
  140OSM    H5G15342   6.430   7.021   6.895 -0.2776 -1.6640  0.5012
  140OSM    C6F15343   6.647   7.020   6.900  0.2681 -0.0390  0.3343
  140OSM    H6F15344   6.639   7.131   6.911  1.6875  0.0789  0.4677
  140OSM    H6G15345   6.733   7.011   6.830  0.0246  1.0855 -0.1430
  140OSM    C7F15346   6.684   6.955   7.036 -0.2504 -0.1415  0.1864
  140OSM    H7F15347   6.692   6.845   7.020  1.1514 -0.3820  2.0982
  140OSM    H7G15348   6.617   6.983   7.120  0.0430 -3.5191  1.7255
  140OSM    C8F15349   6.825   7.001   7.073 -0.0536 -0.4420 -0.5384
  140OSM    H8F15350   6.816   7.112   7.077 -5.0695 -0.6317 -0.5101
  140OSM    H8G15351   6.895   6.970   6.993  0.5208 -2.6808  0.7561
  140OSM    C9F15352   6.869   6.938   7.200 -0.3904  0.6039 -0.3097
  140OSM    H9F15353   6.890   6.831   7.185  0.0442  0.5606  0.5597
  140OSM   C10F15354   6.890   6.994   7.321  0.2022 -0.2329  0.0591
  140OSM   H10F15355   6.894   6.930   7.411  1.0817 -0.2101  0.0387
  140OSM   C11F15356   6.867   7.147   7.355  0.5424 -0.3007 -0.4970
  140OSM   H11F15357   6.779   7.184   7.299  1.0693  2.1189  0.1820
  140OSM   H11G15358   6.955   7.206   7.321  1.3523  0.6987  2.8759
  140OSM   C12F15359   6.835   7.166   7.507  0.2794 -0.1233  0.4925
  140OSM   H12F15360   6.759   7.096   7.548  2.2013 -2.6239  0.0545
  140OSM   H12G15361   6.796   7.270   7.503 -0.9299 -0.4118  2.9096
  140OSM   C13F15362   6.960   7.167   7.592 -0.8720  0.0327 -0.8238
  140OSM   H13F15363   7.035   7.228   7.536 -0.5055 -1.6452 -2.2532
  140OSM   H13G15364   7.008   7.067   7.587 -1.6931 -0.3033 -2.8432
  140OSM   C14F15365   6.939   7.212   7.739  0.2507 -0.0921  0.5214
  140OSM   H14F15366   6.867   7.143   7.787  2.1662 -2.2929  0.4227
  140OSM   H14G15367   6.913   7.320   7.736 -1.0170 -0.4040 -1.0011
  140OSM   C15F15368   7.058   7.196   7.832 -0.2361  0.8204 -0.9792
  140OSM   H15F15369   7.147   7.244   7.788  0.4609  2.2744  1.7670
  140OSM   H15G15370   7.089   7.090   7.847 -0.5652  0.7367 -0.8765
  140OSM   C16F15371   7.030   7.260   7.966 -0.2502  0.6857 -0.2027
  140OSM   H16F15372   6.939   7.208   8.001  0.2481  0.1281  0.3038
  140OSM   H16G15373   6.997   7.365   7.954 -1.1981  0.4274  0.0643
  140OSM   C17F15374   7.144   7.258   8.066  0.4267 -0.4614  0.4202
  140OSM   H17F15375   7.116   7.318   8.156 -0.6171 -1.6211  0.8969
  140OSM   H17G15376   7.233   7.296   8.012 -1.1858  0.9065 -1.4256
  140OSM   C18F15377   7.182   7.120   8.117  0.0972 -0.1182 -0.0787
  140OSM   H18F15378   7.102   7.055   8.077 -1.1239  1.3033 -0.0359
  140OSM   H18G15379   7.171   7.120   8.228  1.9533  1.3149  0.1581
  140OSM   H18H15380   7.286   7.093   8.090 -0.3629 -2.2340  0.0969
  141OSM      N15381   5.696   0.899   5.839 -0.4721  0.2753  0.0665
  141OSM    C1515382   5.593   0.855   5.742 -0.1768  0.4155  0.3062
  141OSM   H15A15383   5.500   0.860   5.795 -0.7490  0.2107 -0.6484
  141OSM   H15B15384   5.624   0.758   5.706 -0.8356  0.2192  0.2656
  141OSM   H15C15385   5.588   0.915   5.652  0.1342  1.9205  1.2689
  141OSM    C1415386   5.818   0.895   5.766  0.0499  0.0627 -1.3204
  141OSM   H14A15387   5.829   0.980   5.700 -1.0769 -1.1587 -3.1834
  141OSM   H14B15388   5.812   0.815   5.693 -1.3213 -1.7428  0.6473
  141OSM   H14C15389   5.899   0.880   5.836 -2.8721  1.6528  2.7709
  141OSM    C1315390   5.675   1.037   5.884  0.6885 -0.2143  0.3805
  141OSM   H13A15391   5.691   1.096   5.795  0.5699 -0.0800  0.4489
  141OSM   H13B15392   5.745   1.072   5.959  0.0553  2.0847 -0.0240
  141OSM   H13C15393   5.576   1.039   5.928  1.0584  0.9499  1.2185
  141OSM    C1215394   5.693   0.795   5.960 -0.1346 -0.1215 -0.7404
  141OSM   H12A15395   5.729   0.699   5.926  1.3757  0.4831 -0.9289
  141OSM   H12B15396   5.589   0.782   5.985  0.0746  0.3877  0.4580
  141OSM    C1115397   5.767   0.831   6.090  0.2883  0.5486 -1.0539
  141OSM   H11A15398   5.740   0.757   6.169  0.1234  0.1090 -1.5163
  141OSM   H11B15399   5.730   0.927   6.132 -2.2872 -1.0413  0.5820
  141OSM      P15400   6.002   0.931   6.087  0.2343 -0.4433 -0.4568
  141OSM    O1315401   6.134   0.890   6.042 -0.1174 -0.4680 -0.4353
  141OSM    O1415402   5.953   1.065   6.044 -0.0489 -0.8179 -0.8473
  141OSM    O1115403   5.999   0.935   6.246 -0.5388 -0.3829  0.6933
  141OSM    O1215404   5.905   0.812   6.062 -0.1108 -0.2440 -0.1670
  141OSM    C1S15405   6.026   0.809   6.310  0.5235 -0.0734 -0.1642
  141OSM    H1S15406   6.135   0.787   6.301  0.0978 -2.4109 -0.1924
  141OSM    H1T15407   5.980   0.717   6.269  0.9068 -0.5252  0.4057
  141OSM     NF15408   5.988   0.666   6.504  0.0750  0.2969 -0.3783
  141OSM    HNF15409   5.915   0.600   6.487  2.0727 -1.6246 -2.2128
  141OSM    C2S15410   5.971   0.803   6.457  0.0609 -0.2473 -0.0808
  141OSM    H2S15411   6.023   0.874   6.525 -1.0186 -0.1572  0.6903
  141OSM    C3S15412   5.823   0.846   6.463  0.7378  0.5973 -0.3618
  141OSM    H3S15413   5.781   0.779   6.385 -0.3317  1.7783 -0.8264
  141OSM     O315414   5.795   0.978   6.415 -0.0712 -0.5526 -0.2250
  141OSM    HO315415   5.878   0.989   6.368 -0.3681 -1.1453 -0.8956
  141OSM    C4S15416   5.746   0.802   6.589  0.2545 -0.0231  0.1451
  141OSM    H4S15417   5.712   0.697   6.587  0.5535 -0.1738  1.5523
  141OSM    C5S15418   5.701   0.878   6.694 -0.3381 -0.0780 -0.2743
  141OSM    H5S15419   5.725   0.985   6.687 -0.6376  0.1394  1.5169
  141OSM    C6S15420   5.627   0.836   6.816 -0.2602 -0.6004  0.4404
  141OSM    H6S15421   5.595   0.730   6.817  0.3493 -0.8137 -0.7450
  141OSM    H6T15422   5.537   0.901   6.826 -0.5311 -0.9703  0.4508
  141OSM    C7S15423   5.720   0.852   6.935 -0.1628 -0.3133 -0.6122
  141OSM    H7S15424   5.729   0.961   6.952 -0.0592 -0.3816 -0.2256
  141OSM    H7T15425   5.822   0.809   6.935 -0.3873 -0.8569 -0.3975
  141OSM    C8S15426   5.652   0.794   7.054  0.3540  0.2122 -0.3425
  141OSM    H8S15427   5.649   0.683   7.054  1.0652  0.1928 -0.5012
  141OSM    H8T15428   5.548   0.832   7.052  0.2457 -0.0502 -0.0053
  141OSM    C9S15429   5.721   0.831   7.185  0.1270  0.7764 -0.2914
  141OSM    H9S15430   5.756   0.937   7.192  1.7995  0.2592 -0.3417
  141OSM    H9T15431   5.819   0.781   7.200 -0.4949  0.0548  1.6549
  141OSM   C10S15432   5.637   0.799   7.310  0.3199 -0.0225  0.5405
  141OSM   H10S15433   5.545   0.860   7.314 -2.5037 -3.6792 -1.9348
  141OSM   H10T15434   5.697   0.830   7.399  0.1570  0.6662  0.4111
  141OSM   C11S15435   5.608   0.650   7.325 -0.6163 -0.0320 -0.1602
  141OSM   H11S15436   5.710   0.607   7.326  0.0573  1.4721  2.0368
  141OSM   H11T15437   5.546   0.624   7.237 -4.2254 -0.9672  2.3821
  141OSM   C12S15438   5.533   0.616   7.453  0.8563  0.7789  0.0400
  141OSM   H12S15439   5.433   0.665   7.444 -0.0455 -1.0102  0.0186
  141OSM   H12T15440   5.588   0.653   7.542  1.1568 -1.4489  0.8350
  141OSM   C13S15441   5.516   0.466   7.480  0.2458  0.1121 -0.4246
  141OSM   H13S15442   5.472   0.415   7.392  1.4360  1.1229 -1.6601
  141OSM   H13T15443   5.454   0.443   7.569  0.3122  2.4153  0.2818
  141OSM   C14S15444   5.654   0.403   7.507  0.1060  0.6362 -0.1726
  141OSM   H14S15445   5.731   0.437   7.434  1.1904 -1.4849 -0.0975
  141OSM   H14T15446   5.639   0.293   7.497  1.7053  0.4459 -0.7998
  141OSM   C15S15447   5.707   0.432   7.648 -0.2222 -0.0363  0.1873
  141OSM   H15S15448   5.630   0.393   7.718 -1.4615  1.6575 -0.1803
  141OSM   H15T15449   5.710   0.537   7.684  1.5986 -0.6904  2.1624
  141OSM   C16S15450   5.846   0.377   7.669  0.2140 -0.5171  0.1383
  141OSM   H16S15451   5.860   0.284   7.610 -0.8001  0.8197 -2.3726
  141OSM   H16T15452   5.859   0.344   7.774  2.0863 -1.4841 -0.3389
  141OSM   C17S15453   5.941   0.485   7.621 -0.6989  0.9492  0.1190
  141OSM   H17S15454   5.928   0.573   7.687 -3.8854  0.9540 -0.3726
  141OSM   H17T15455   5.927   0.517   7.515 -1.9041 -0.2964 -0.1248
  141OSM   C18S15456   6.080   0.424   7.623 -1.3151  0.2466 -0.1226
  141OSM   H18S15457   6.110   0.380   7.720 -2.4298  0.1313  0.1789
  141OSM   H18T15458   6.158   0.490   7.580 -1.1874  0.4770  0.4526
  141OSM   H18U15459   6.076   0.341   7.549  1.5975  0.4740 -0.6748
  141OSM    C1F15460   6.108   0.612   6.525 -1.4119 -0.0289 -0.6937
  141OSM     OF15461   6.209   0.685   6.514  0.5679  0.2781 -0.5319
  141OSM    C2F15462   6.118   0.457   6.525  0.5951 -0.6897  0.0651
  141OSM    H2F15463   6.228   0.439   6.515  0.9480  0.7530  1.0880
  141OSM    H2G15464   6.060   0.420   6.438 -1.6983 -0.7392  1.5538
  141OSM    C3F15465   6.073   0.387   6.655 -0.9589 -0.5731 -0.6259
  141OSM    H3F15466   6.089   0.279   6.634  0.3291 -0.3926 -0.6478
  141OSM    H3G15467   5.965   0.394   6.680 -1.4927 -0.0296 -2.8692
  141OSM    C4F15468   6.163   0.429   6.779 -0.7565 -0.1074 -0.3412
  141OSM    H4F15469   6.145   0.533   6.814 -2.8963 -0.5563  0.0735
  141OSM    H4G15470   6.270   0.430   6.752 -0.5875  1.8461  0.2367
  141OSM    C5F15471   6.151   0.331   6.895  0.1221  0.0999 -0.3370
  141OSM    H5F15472   6.214   0.246   6.863 -1.3296 -1.7674  1.4750
  141OSM    H5G15473   6.051   0.284   6.903  0.3961 -0.6519 -1.2458
  141OSM    C6F15474   6.200   0.389   7.026 -0.5989 -0.2570  0.8691
  141OSM    H6F15475   6.127   0.468   7.054 -2.0569 -0.4585 -1.9848
  141OSM    H6G15476   6.297   0.441   7.010 -1.3679  0.9466 -0.0495
  141OSM    C7F15477   6.196   0.295   7.146 -0.0956  0.2627  0.5434
  141OSM    H7F15478   6.231   0.195   7.112  2.3061  1.4844 -0.8608
  141OSM    H7G15479   6.088   0.270   7.156 -0.6783  2.4640  0.2760
  141OSM    C8F15480   6.247   0.359   7.275  0.2215 -0.1100 -0.2156
  141OSM    H8F15481   6.217   0.284   7.351  1.8317 -1.1560 -0.5530
  141OSM    H8G15482   6.188   0.451   7.294  0.2704 -0.3112  1.0033
  141OSM    C9F15483   6.392   0.388   7.262  0.2524 -0.4064 -0.3594
  141OSM    H9F15484   6.429   0.430   7.167  0.9839 -0.3247 -0.0429
  141OSM   C10F15485   6.483   0.369   7.365  0.0059 -0.6005 -0.1429
  141OSM   H10F15486   6.581   0.416   7.347  0.1178 -0.6670  0.2619
  141OSM   C11F15487   6.461   0.305   7.499 -1.0153 -0.7470 -0.3744
  141OSM   H11F15488   6.546   0.235   7.509  0.5048  1.2807  1.7179
  141OSM   H11G15489   6.361   0.260   7.513 -1.0455  0.2894  3.8673
  141OSM   C12F15490   6.484   0.409   7.606  0.0510  0.1077 -0.5548
  141OSM   H12F15491   6.410   0.490   7.591 -0.0802 -0.1432 -1.3575
  141OSM   H12G15492   6.590   0.444   7.610 -0.3730  1.3363  1.9040
  141OSM   C13F15493   6.458   0.350   7.747 -0.7172  0.5121  0.0189
  141OSM   H13F15494   6.368   0.286   7.737 -1.0990  1.2181 -1.2711
  141OSM   H13G15495   6.441   0.440   7.811  0.2045  1.2217 -0.7169
  141OSM   C14F15496   6.578   0.274   7.798  0.2537  0.3987  0.3267
  141OSM   H14F15497   6.660   0.349   7.805  1.8581 -1.2827  0.4749
  141OSM   H14G15498   6.605   0.200   7.720 -1.3625 -1.7394  1.6834
  141OSM   C15F15499   6.557   0.202   7.929 -0.1740 -1.2196 -0.5134
  141OSM   H15F15500   6.572   0.093   7.913  2.1007 -1.4786  2.6358
  141OSM   H15G15501   6.451   0.214   7.961  0.0816 -0.1101 -0.0480
  141OSM   C16F15502   6.647   0.257   8.039 -0.2381  0.3168 -0.3244
  141OSM   H16F15503   6.606   0.355   8.073 -0.2214  0.4768 -0.7665
  141OSM   H16G15504   6.751   0.261   7.999 -0.6328  0.5236 -1.3606
  141OSM   C17F15505   6.662   0.168   8.164  0.3975  0.8099  0.3171
  141OSM   H17F15506   6.704   0.069   8.139 -0.5909  0.6598 -0.8408
  141OSM   H17G15507   6.560   0.137   8.197  0.1903  1.3708  0.2221
  141OSM   C18F15508   6.716   0.237   8.286 -1.1630 -0.3413 -0.6237
  141OSM   H18F15509   6.806   0.298   8.262  0.6292 -2.1240  1.2874
  141OSM   H18G15510   6.742   0.164   8.365 -1.7851 -0.1368 -0.2161
  141OSM   H18H15511   6.638   0.304   8.329 -0.0274  0.1879  0.6923
  142OSM      N15512   0.692   4.172   5.532 -0.3327 -0.0150  0.6315
  142OSM    C1515513   0.566   4.085   5.490  0.7344 -0.9334  0.3704
  142OSM   H15A15514   0.505   4.138   5.419  4.4311 -1.4469 -3.6841
  142OSM   H15B15515   0.509   4.048   5.573 -0.4469 -0.0263 -0.0177
  142OSM   H15C15516   0.603   3.998   5.437 -0.1403  0.2620 -2.3931
  142OSM    C1415517   0.766   4.102   5.642 -0.2974  0.4529  0.5167
  142OSM   H14A15518   0.798   4.002   5.616 -0.4816  0.3952  0.5096
  142OSM   H14B15519   0.697   4.088   5.724  0.7863 -2.8438  1.0086
  142OSM   H14C15520   0.842   4.160   5.691  1.1705 -1.5191  0.6800
  142OSM    C1315521   0.780   4.189   5.404  0.3848  0.2717 -0.9027
  142OSM   H13A15522   0.719   4.243   5.333  2.5116  1.8060 -1.6659
  142OSM   H13B15523   0.804   4.088   5.374  0.6931 -0.2915  1.0500
  142OSM   H13C15524   0.870   4.243   5.429 -0.1856  0.2592  1.4015
  142OSM    C1215525   0.658   4.303   5.584 -0.6426  0.1677 -0.8847
  142OSM   H12A15526   0.609   4.360   5.505 -1.5282 -0.0941 -0.5428
  142OSM   H12B15527   0.751   4.355   5.601  0.2525 -1.4414 -0.7494
  142OSM    C1115528   0.570   4.313   5.715  0.3931 -0.1541  0.2349
  142OSM   H11A15529   0.546   4.421   5.727 -4.6299 -1.0362  0.4813
  142OSM   H11B15530   0.621   4.290   5.811 -0.4998 -1.5094  0.4268
  142OSM      P15531   0.318   4.321   5.649 -0.5107  0.2123  0.5945
  142OSM    O1315532   0.341   4.429   5.551  0.1796  0.2137 -0.2867
  142OSM    O1415533   0.217   4.220   5.611  0.4506  0.1941 -0.3824
  142OSM    O1115534   0.277   4.391   5.792 -0.0985  0.0113  0.3258
  142OSM    O1215535   0.446   4.249   5.696 -0.3331  0.1552 -0.0440
  142OSM    C1S15536   0.280   4.329   5.920 -0.4713  0.3705  0.6714
  142OSM    H1S15537   0.386   4.324   5.956  0.5143  0.1113 -2.0562
  142OSM    H1T15538   0.253   4.222   5.912  1.9428 -0.4279  2.1131
  142OSM     NF15539   0.213   4.363   6.149 -0.4713 -0.3672 -0.1505
  142OSM    HNF15540   0.141   4.298   6.174 -0.4637 -0.9289 -1.4772
  142OSM    C2S15541   0.208   4.420   6.018  0.3121 -0.2535  0.1389
  142OSM    H2S15542   0.252   4.521   6.018 -1.4967  0.5768 -0.2086
  142OSM    C3S15543   0.060   4.446   5.963  0.0339  0.5444  0.2619
  142OSM    H3S15544   0.008   4.348   5.958  1.6999 -0.6343  3.1931
  142OSM     O315545   0.052   4.521   5.841 -0.0312 -0.6129  0.1332
  142OSM    HO315546   0.145   4.519   5.816 -0.4009 -0.3889 -1.4080
  142OSM    C4S15547  -0.010   4.528   6.068  0.4388  0.1028 -0.2914
  142OSM    H4S15548   0.026   4.631   6.075  0.1086  0.1088  1.5955
  142OSM    C5S15549  -0.114   4.493   6.142  0.6225  0.0594  1.2902
  142OSM    H5S15550  -0.157   4.392   6.140 -1.0614  0.7367  1.4692
  142OSM    C6S15551  -0.192   4.587   6.226  0.2054 -0.5463  0.7185
  142OSM    H6S15552  -0.293   4.598   6.181  1.5837  1.3004 -2.3311
  142OSM    H6T15553  -0.143   4.686   6.216  1.0482 -0.8401  1.7955
  142OSM    C7S15554  -0.196   4.537   6.368 -0.3569  0.8319 -0.1839
  142OSM    H7S15555  -0.093   4.533   6.411 -0.6832  3.1788  0.9883
  142OSM    H7T15556  -0.245   4.438   6.380  1.3169  0.1220  1.4191
  142OSM    C8S15557  -0.262   4.634   6.463 -0.6073  0.2132 -0.6408
  142OSM    H8S15558  -0.357   4.683   6.434  0.2493  2.1113 -0.3771
  142OSM    H8T15559  -0.189   4.713   6.490 -0.0243 -0.3680 -0.4861
  142OSM    C9S15560  -0.297   4.567   6.599 -0.3726 -0.6167 -0.2010
  142OSM    H9S15561  -0.239   4.472   6.596  0.6052 -0.0054 -0.9529
  142OSM    H9T15562  -0.403   4.533   6.597 -0.3770 -0.5923 -0.6710
  142OSM   C10S15563  -0.253   4.646   6.717  0.0589  0.0461 -0.2225
  142OSM   H10S15564  -0.297   4.748   6.719  2.4220  1.1294 -0.1489
  142OSM   H10T15565  -0.147   4.678   6.707  0.1063 -0.2232 -0.5995
  142OSM   C11S15566  -0.269   4.559   6.849 -0.3168  0.0333  0.1923
  142OSM   H11S15567  -0.189   4.483   6.843  1.4527  1.8772 -1.1375
  142OSM   H11T15568  -0.369   4.511   6.848  0.4181 -1.5529 -1.1722
  142OSM   C12S15569  -0.257   4.644   6.973  0.3925 -0.0226 -0.5071
  142OSM   H12S15570  -0.326   4.729   6.955  2.0667  1.4071 -0.3955
  142OSM   H12T15571  -0.155   4.681   6.994  0.6080  0.3570 -2.1339
  142OSM   C13S15572  -0.290   4.561   7.100  0.3144  0.1925  0.9589
  142OSM   H13S15573  -0.204   4.490   7.102  1.5479  1.6568  1.5421
  142OSM   H13T15574  -0.389   4.511   7.091  0.3108 -0.0971  2.2795
  142OSM   C14S15575  -0.307   4.644   7.220 -0.6392 -0.1265 -0.4801
  142OSM   H14S15576  -0.412   4.680   7.222 -0.2952  0.9103  0.4166
  142OSM   H14T15577  -0.239   4.730   7.239 -1.1524 -0.0562  1.2367
  142OSM   C15S15578  -0.282   4.560   7.346  0.1673 -0.5089  0.0870
  142OSM   H15S15579  -0.185   4.507   7.355  1.0821  1.3938  2.0481
  142OSM   H15T15580  -0.367   4.489   7.359  0.9866 -1.3830  0.7821
  142OSM   C16S15581  -0.289   4.656   7.465 -0.6810  0.1844 -0.7466
  142OSM   H16S15582  -0.389   4.698   7.445 -1.7185 -2.0833 -0.6064
  142OSM   H16T15583  -0.217   4.741   7.464 -0.6206  0.2426  1.5179
  142OSM   C17S15584  -0.282   4.592   7.599 -0.0793 -0.0547 -0.0802
  142OSM   H17S15585  -0.320   4.488   7.591  0.9999 -0.3945 -1.2626
  142OSM   H17T15586  -0.334   4.648   7.680  0.4080  2.2885 -1.2958
  142OSM   C18S15587  -0.137   4.587   7.651  0.5590  1.0125 -0.3429
  142OSM   H18S15588  -0.115   4.688   7.692  0.7596  1.3040 -1.1473
  142OSM   H18T15589  -0.071   4.548   7.571  0.4514  2.1813 -1.0373
  142OSM   H18U15590  -0.136   4.510   7.730 -2.5334  1.9219  0.7476
  142OSM    C1F15591   0.328   4.361   6.213 -1.1161 -0.0670 -0.4132
  142OSM     OF15592   0.420   4.436   6.194  0.9243  0.1154  0.3634
  142OSM    C2F15593   0.339   4.259   6.331 -0.3304 -0.1711 -0.1988
  142OSM    H2F15594   0.262   4.181   6.314  0.8502 -1.0341 -1.7674
  142OSM    H2G15595   0.331   4.312   6.429  3.4829 -0.1082  0.2459
  142OSM    C3F15596   0.474   4.180   6.329 -0.3094  0.4724 -0.0485
  142OSM    H3F15597   0.488   4.127   6.426 -1.5512  0.8980  0.3803
  142OSM    H3G15598   0.563   4.244   6.313  1.7931 -2.4615 -1.0387
  142OSM    C4F15599   0.483   4.083   6.210  0.0159  0.1147 -0.5801
  142OSM    H4F15600   0.488   4.147   6.120 -3.3952  1.9127  0.3368
  142OSM    H4G15601   0.385   4.031   6.206  0.4322 -0.6593 -0.7538
  142OSM    C5F15602   0.598   3.984   6.204  0.3330 -0.5767  0.2778
  142OSM    H5F15603   0.690   4.046   6.192 -0.3875 -0.0417 -4.6694
  142OSM    H5G15604   0.584   3.936   6.105  1.6125 -2.5334  1.0028
  142OSM    C6F15605   0.614   3.889   6.313 -0.5925  0.4487  0.0758
  142OSM    H6F15606   0.664   3.940   6.398 -0.7986 -0.2100  0.6032
  142OSM    H6G15607   0.690   3.811   6.292 -2.4435 -0.9296 -1.9595
  142OSM    C7F15608   0.483   3.813   6.355  0.6580  0.1103  0.2676
  142OSM    H7F15609   0.425   3.783   6.264 -1.9748 -0.8741  2.1324
  142OSM    H7G15610   0.410   3.880   6.404  0.4811  0.7989 -0.8899
  142OSM    C8F15611   0.501   3.690   6.449 -0.2415 -0.5668 -0.4263
  142OSM    H8F15612   0.552   3.721   6.543  0.2936 -2.1950 -0.1572
  142OSM    H8G15613   0.566   3.616   6.397 -2.1429 -1.2939 -1.8665
  142OSM    C9F15614   0.373   3.619   6.496 -0.5364  0.1331 -0.3575
  142OSM    H9F15615   0.352   3.524   6.445 -2.3527  0.2627  0.0883
  142OSM   C10F15616   0.294   3.655   6.596  0.7827 -0.8551 -0.2130
  142OSM   H10F15617   0.205   3.591   6.604  0.9141 -1.1917 -1.3216
  142OSM   C11F15618   0.297   3.780   6.679  0.1007  0.1272 -0.4575
  142OSM   H11F15619   0.219   3.852   6.647  0.5465  1.0117  0.4089
  142OSM   H11G15620   0.394   3.832   6.666 -0.4194  1.8408  1.8883
  142OSM   C12F15621   0.299   3.761   6.833 -0.3216 -1.0898 -0.2062
  142OSM   H12F15622   0.294   3.861   6.880 -1.9688 -0.5480 -1.4070
  142OSM   H12G15623   0.393   3.713   6.867 -0.8075 -2.0808 -0.2172
  142OSM   C13F15624   0.175   3.684   6.892 -0.1371 -0.9409 -0.0362
  142OSM   H13F15625   0.159   3.592   6.832  1.8786 -1.3000 -0.1029
  142OSM   H13G15626   0.082   3.745   6.888  0.2793 -0.0882  2.1027
  142OSM   C14F15627   0.185   3.643   7.044  0.8151 -0.2464  0.0983
  142OSM   H14F15628   0.094   3.590   7.079 -1.0080  0.9660 -2.4901
  142OSM   H14G15629   0.198   3.739   7.099 -1.0089 -0.4300  0.9071
  142OSM   C15F15630   0.316   3.567   7.088 -0.2009 -0.3698  0.7438
  142OSM   H15F15631   0.401   3.636   7.075 -0.7810  0.6571  2.2256
  142OSM   H15G15632   0.331   3.478   7.022 -0.8234 -0.6329  0.9515
  142OSM   C16F15633   0.305   3.508   7.232  0.4372 -0.7831  0.4918
  142OSM   H16F15634   0.407   3.488   7.271 -0.2964  0.9830  3.6968
  142OSM   H16G15635   0.250   3.412   7.227  1.7583 -1.5719  0.6672
  142OSM   C17F15636   0.227   3.596   7.334  0.2333 -0.6856  0.0069
  142OSM   H17F15637   0.118   3.603   7.314  0.1828  1.1221  0.7157
  142OSM   H17G15638   0.273   3.697   7.335 -1.5209  0.1570 -0.0854
  142OSM   C18F15639   0.245   3.537   7.475  0.3090 -0.0818 -0.1047
  142OSM   H18F15640   0.352   3.512   7.496 -0.0124 -2.9102 -1.3576
  142OSM   H18G15641   0.192   3.440   7.470 -0.8537  0.5819 -1.1577
  142OSM   H18H15642   0.200   3.608   7.548 -1.1861 -1.5009  0.4079
  143OSM      N15643   5.517   5.406   5.921  0.7571 -0.1326  0.4960
  143OSM    C1515644   5.372   5.425   5.954 -0.3565  0.2338  0.1192
  143OSM   H15A15645   5.363   5.502   6.030  1.0164  1.5039 -0.9547
  143OSM   H15B15646   5.333   5.333   5.994  4.7771 -1.7210  1.3548
  143OSM   H15C15647   5.312   5.456   5.870 -0.1832  1.4549  0.4178
  143OSM    C1415648   5.520   5.295   5.826  0.4824 -0.2649  0.0800
  143OSM   H14A15649   5.462   5.310   5.736  2.7779 -0.4141 -1.5306
  143OSM   H14B15650   5.480   5.205   5.870  2.5475 -1.1382  0.3109
  143OSM   H14C15651   5.624   5.272   5.804  0.0185 -0.0926 -2.7316
  143OSM    C1315652   5.563   5.537   5.862 -0.3625 -0.6816  0.0524
  143OSM   H13A15653   5.496   5.561   5.781  0.2132 -0.0649 -0.2530
  143OSM   H13B15654   5.661   5.513   5.822  0.4873  1.1444  0.9064
  143OSM   H13C15655   5.562   5.609   5.942 -2.6114 -1.5253  0.8511
  143OSM    C1215656   5.600   5.378   6.049  0.2071  0.6937  0.6582
  143OSM   H12A15657   5.576   5.448   6.128  1.0618 -0.0391  1.6148
  143OSM   H12B15658   5.707   5.391   6.033  0.5167 -1.5474  0.6544
  143OSM    C1115659   5.582   5.237   6.119 -0.4043 -0.2917  0.4179
  143OSM   H11A15660   5.638   5.246   6.214  0.9932 -0.7989 -0.3229
  143OSM   H11B15661   5.639   5.176   6.045 -1.1947  0.0787 -0.5326
  143OSM      P15662   5.392   5.066   6.101  0.2107  0.3073 -0.0201
  143OSM    O1315663   5.245   5.054   6.117 -0.6072  0.0240  0.3802
  143OSM    O1415664   5.438   5.018   5.965 -0.7101 -0.4084 -1.0739
  143OSM    O1115665   5.464   4.983   6.212  0.0129 -0.3837  0.5251
  143OSM    O1215666   5.440   5.207   6.135 -0.3866 -0.9821  0.1949
  143OSM    C1S15667   5.434   5.011   6.351  0.9200 -0.5451 -0.3996
  143OSM    H1S15668   5.325   5.012   6.370  1.2926 -1.0538  2.1936
  143OSM    H1T15669   5.474   5.113   6.368 -2.1880  0.9945 -1.5662
  143OSM     NF15670   5.470   4.951   6.587  0.2354 -0.9669 -0.0779
  143OSM    HNF15671   5.533   5.011   6.636 -1.6704 -0.6951  2.2395
  143OSM    C2S15672   5.500   4.911   6.451 -0.1631 -0.6986 -0.0511
  143OSM    H2S15673   5.449   4.817   6.419 -2.9037  0.8302 -0.4257
  143OSM    C3S15674   5.653   4.906   6.429  0.4734  0.0934 -0.3486
  143OSM    H3S15675   5.692   5.008   6.447 -2.4839  0.9788  1.8366
  143OSM     O315676   5.696   4.876   6.299  0.3083  0.1927  0.4151
  143OSM    HO315677   5.630   4.918   6.244  0.6116 -0.0582 -0.1456
  143OSM    C4S15678   5.728   4.823   6.542  0.0084 -0.7702 -0.0731
  143OSM    H4S15679   5.753   4.885   6.630  1.5258  0.0968 -1.0711
  143OSM    C5S15680   5.756   4.694   6.537 -0.0075 -0.4967 -0.3860
  143OSM    H5S15681   5.716   4.645   6.447 -3.1020 -0.9756  1.1122
  143OSM    C6S15682   5.826   4.609   6.638 -0.3009  0.2647 -0.1828
  143OSM    H6S15683   5.933   4.623   6.610 -0.3594  2.9290  0.6095
  143OSM    H6T15684   5.815   4.499   6.634 -1.7785  0.3138  1.5076
  143OSM    C7S15685   5.812   4.654   6.785 -0.2515 -0.6998 -0.4937
  143OSM    H7S15686   5.844   4.758   6.806 -1.7861  0.4179 -3.1973
  143OSM    H7T15687   5.878   4.583   6.838  0.4690  1.4329  1.6671
  143OSM    C8S15688   5.668   4.653   6.836 -0.2362 -0.5763  0.2828
  143OSM    H8S15689   5.614   4.576   6.778 -0.5600 -1.0699  1.2054
  143OSM    H8T15690   5.622   4.752   6.817  0.7043 -0.6954 -3.2663
  143OSM    C9S15691   5.658   4.646   6.991 -0.5081  0.0138  0.4838
  143OSM    H9S15692   5.705   4.552   7.027  0.5696 -0.5962 -2.2779
  143OSM    H9T15693   5.555   4.629   7.027 -1.1772  1.0699 -0.8314
  143OSM   C10S15694   5.694   4.780   7.067  0.0320 -0.1117 -0.6495
  143OSM   H10S15695   5.660   4.866   7.005 -3.2128 -1.9779 -1.6968
  143OSM   H10T15696   5.803   4.794   7.080 -0.0897  2.6513 -1.8609
  143OSM   C11S15697   5.628   4.787   7.204  0.0342 -0.3140  0.3299
  143OSM   H11S15698   5.518   4.774   7.193 -0.0884 -0.3043  1.3894
  143OSM   H11T15699   5.634   4.894   7.235  2.1864 -0.6247  1.1555
  143OSM   C12S15700   5.690   4.709   7.312 -0.5396 -0.3334  0.2846
  143OSM   H12S15701   5.800   4.714   7.297 -0.6008  1.1570  0.2330
  143OSM   H12T15702   5.667   4.600   7.310 -0.5425 -0.3293 -0.3685
  143OSM   C13S15703   5.664   4.768   7.456 -0.2352  0.3406  0.8418
  143OSM   H13S15704   5.556   4.787   7.478 -0.4724 -1.0309  0.9585
  143OSM   H13T15705   5.716   4.866   7.459 -0.3404  0.3940  0.9535
  143OSM   C14S15706   5.706   4.692   7.585 -0.1586 -0.1568 -0.4582
  143OSM   H14S15707   5.799   4.632   7.575 -0.4577 -0.5223 -1.1112
  143OSM   H14T15708   5.630   4.612   7.602  0.7737 -0.7901  0.9896
  143OSM   C15S15709   5.705   4.786   7.709 -0.2914 -0.5162 -0.3156
  143OSM   H15S15710   5.598   4.806   7.727 -1.1005 -1.4515 -3.4807
  143OSM   H15T15711   5.758   4.880   7.684  1.1818 -1.6909 -1.9332
  143OSM   C16S15712   5.776   4.720   7.828 -0.1720  0.2600  0.3492
  143OSM   H16S15713   5.885   4.718   7.808  0.2263  1.9477  2.0513
  143OSM   H16T15714   5.746   4.614   7.843 -0.9201  0.6139  1.5212
  143OSM   C17S15715   5.751   4.788   7.969  0.2242 -0.2298  0.3455
  143OSM   H17S15716   5.795   4.719   8.045 -2.0283 -1.8153  0.3069
  143OSM   H17T15717   5.643   4.787   7.998 -0.4513 -0.8816 -2.0070
  143OSM   C18S15718   5.809   4.924   7.995  0.4381  1.1371 -0.4087
  143OSM   H18S15719   5.785   4.938   8.103 -2.3175 -0.5170 -0.7225
  143OSM   H18T15720   5.762   5.009   7.941  0.2171  2.3970  1.6494
  143OSM   H18U15721   5.919   4.935   7.991  0.4179  1.0228 -1.6540
  143OSM    C1F15722   5.356   4.916   6.646 -0.0370  0.0375  0.2117
  143OSM     OF15723   5.271   4.859   6.584  0.1624  0.1543 -0.3927
  143OSM    C2F15724   5.338   4.983   6.780 -0.0699 -0.1324  1.1046
  143OSM    H2F15725   5.331   5.093   6.769 -1.1207 -0.0133  2.6707
  143OSM    H2G15726   5.432   4.971   6.839  0.3632 -2.9251 -0.0116
  143OSM    C3F15727   5.226   4.926   6.870  0.6686 -0.3576  0.0087
  143OSM    H3F15728   5.215   4.817   6.852  1.0017 -0.5298  0.7787
  143OSM    H3G15729   5.127   4.967   6.843  0.9408 -1.3351 -2.8120
  143OSM    C4F15730   5.249   4.937   7.024  0.5304 -0.5094  0.3351
  143OSM    H4F15731   5.235   5.046   7.040 -0.6380 -0.3114 -1.7700
  143OSM    H4G15732   5.353   4.913   7.055  1.4950 -1.2740 -3.0443
  143OSM    C5F15733   5.154   4.859   7.109  0.2585  0.6145 -0.4305
  143OSM    H5F15734   5.184   4.753   7.123 -2.2300 -0.0118  0.5490
  143OSM    H5G15735   5.053   4.851   7.064  0.3908 -0.1845 -0.5895
  143OSM    C6F15736   5.140   4.908   7.256 -0.3381  0.1472  0.0285
  143OSM    H6F15737   5.076   4.837   7.312 -1.9920  0.3271 -1.5414
  143OSM    H6G15738   5.093   5.008   7.266  0.4797  0.4829  0.6418
  143OSM    C7F15739   5.270   4.906   7.333  0.1948  0.6380 -0.3655
  143OSM    H7F15740   5.326   5.000   7.314  1.5551 -0.0974 -0.0857
  143OSM    H7G15741   5.344   4.828   7.305 -0.3881 -0.1811  0.3339
  143OSM    C8F15742   5.249   4.913   7.496  0.3144 -0.7204 -0.2288
  143OSM    H8F15743   5.344   4.924   7.552  0.2090 -2.5110  0.3842
  143OSM    H8G15744   5.203   4.816   7.525 -1.7213  0.0055 -0.8512
  143OSM    C9F15745   5.151   5.023   7.537 -0.8996  0.9521 -0.2142
  143OSM    H9F15746   5.202   5.119   7.553  1.3752 -0.3775  0.9768
  143OSM   C10F15747   5.018   4.999   7.552 -0.1685 -0.4681 -0.4630
  143OSM   H10F15748   4.956   5.082   7.587  1.7481  0.3460  1.2150
  143OSM   C11F15749   4.950   4.866   7.554  1.1467 -0.5656 -0.1657
  143OSM   H11F15750   5.019   4.779   7.547  0.2240 -1.5302  1.8462
  143OSM   H11G15751   4.879   4.858   7.468  2.0919  1.1051 -1.1513
  143OSM   C12F15752   4.879   4.843   7.680 -0.0191 -0.3481  0.1888
  143OSM   H12F15753   4.800   4.765   7.667 -1.0354  0.7306 -0.2367
  143OSM   H12G15754   4.820   4.932   7.711 -1.2301 -0.5625 -1.3751
  143OSM   C13F15755   4.976   4.807   7.801  0.0521  0.7653  0.1628
  143OSM   H13F15756   5.045   4.894   7.806 -1.2106  1.7651  0.8016
  143OSM   H13G15757   5.033   4.718   7.765 -0.1951  0.1749  1.1887
  143OSM   C14F15758   4.901   4.772   7.931 -0.7557  0.3305 -0.1820
  143OSM   H14F15759   4.973   4.716   7.994 -0.3783  0.8132 -0.1782
  143OSM   H14G15760   4.815   4.704   7.913 -1.6050  0.9494  1.3394
  143OSM   C15F15761   4.856   4.892   8.019  0.2770  0.3297  0.5506
  143OSM   H15F15762   4.779   4.954   7.968  0.2642 -1.0023 -1.1108
  143OSM   H15G15763   4.942   4.960   8.038 -0.5032  1.1205  1.3322
  143OSM   C16F15764   4.792   4.858   8.152  0.1372  0.4351 -0.4778
  143OSM   H16F15765   4.849   4.822   8.241 -0.6960  1.3484  0.4595
  143OSM   H16G15766   4.708   4.786   8.139 -1.0508  1.4224  1.2641
  143OSM   C17F15767   4.722   4.981   8.214 -0.2267 -0.2609 -0.4589
  143OSM   H17F15768   4.655   5.028   8.139 -0.9381  0.2747  0.4884
  143OSM   H17G15769   4.801   5.052   8.246  0.6569 -1.4401  0.0292
  143OSM   C18F15770   4.629   4.945   8.328  0.0189 -0.1480 -0.5692
  143OSM   H18F15771   4.559   5.023   8.367 -1.1066 -1.9747  1.3025
  143OSM   H18G15772   4.694   4.915   8.414  0.2718  2.3258  0.1837
  143OSM   H18H15773   4.571   4.856   8.295 -2.8744  1.3584  0.0573
  144OSM      N15774   4.955   4.955   5.789 -0.6726  0.0053 -0.0001
  144OSM    C1515775   5.004   5.047   5.902  0.8745  0.1188  0.9114
  144OSM   H15A15776   4.919   5.112   5.915 -1.4534 -2.3673 -0.8323
  144OSM   H15B15777   5.083   5.104   5.856 -1.5271  1.0505 -2.3762
  144OSM   H15C15778   5.024   4.985   5.988  0.0077 -3.0429 -0.9907
  144OSM    C1415779   4.841   4.872   5.848 -0.5933 -0.5203 -0.1480
  144OSM   H14A15780   4.765   4.936   5.891  0.4461 -0.5471  1.8380
  144OSM   H14B15781   4.890   4.818   5.928  2.0655  0.3266 -1.1116
  144OSM   H14C15782   4.796   4.808   5.774  0.8666 -0.5295 -1.0669
  144OSM    C1315783   4.904   5.033   5.674  0.2354 -0.3786 -0.4195
  144OSM   H13A15784   4.862   4.964   5.602 -1.4279  0.9549 -0.7968
  144OSM   H13B15785   4.977   5.100   5.632  0.6565  1.2460  2.6677
  144OSM   H13C15786   4.819   5.094   5.701 -0.4540 -1.1821 -0.6999
  144OSM    C1215787   5.067   4.865   5.733  0.1682  1.6226  0.6712
  144OSM   H12A15788   5.141   4.920   5.676  1.7215 -1.5649 -0.6269
  144OSM   H12B15789   5.011   4.812   5.657  2.1870 -1.1543  0.9914
  144OSM    C1115790   5.137   4.758   5.820  0.1632  0.4585  0.0944
  144OSM   H11A15791   5.178   4.811   5.909  0.4307 -2.0778  1.5970
  144OSM   H11B15792   5.221   4.712   5.764  0.0310 -0.0165  0.2804
  144OSM      P15793   5.108   4.554   5.978  0.4587  0.1252 -0.3689
  144OSM    O1315794   4.996   4.515   6.067  0.1582  0.2996 -0.6988
  144OSM    O1415795   5.173   4.444   5.897 -0.1113 -0.4437 -0.1884
  144OSM    O1115796   5.218   4.630   6.072 -0.3585  0.2375  0.1845
  144OSM    O1215797   5.051   4.658   5.871 -0.6574  0.3381  0.9158
  144OSM    C1S15798   5.170   4.727   6.163  0.3343  0.4540  0.0670
  144OSM    H1S15799   5.091   4.788   6.114  0.4758 -0.9128 -1.9807
  144OSM    H1T15800   5.252   4.801   6.178  1.2746 -0.9514  2.4129
  144OSM     NF15801   5.100   4.794   6.388 -0.1693 -0.1266  0.2019
  144OSM    HNF15802   5.149   4.809   6.474  0.4926 -0.5456 -0.0940
  144OSM    C2S15803   5.133   4.675   6.302 -0.4555  0.4022  0.0884
  144OSM    H2S15804   5.050   4.602   6.296 -0.2541  0.1149  0.6619
  144OSM    C3S15805   5.246   4.582   6.357 -0.6250 -0.8429 -0.5375
  144OSM    H3S15806   5.341   4.640   6.369 -0.0317 -1.7219 -0.8731
  144OSM     O315807   5.290   4.483   6.263 -0.5655  0.2881  0.0134
  144OSM    HO315808   5.273   4.525   6.179  0.3298  2.4666  0.8462
  144OSM    C4S15809   5.223   4.518   6.484 -0.0729  0.0944 -0.5650
  144OSM    H4S15810   5.286   4.557   6.565  0.0881 -1.7248  0.2292
  144OSM    C5S15811   5.137   4.415   6.515  0.5995 -0.3539 -0.2125
  144OSM    H5S15812   5.075   4.371   6.435  0.2790 -1.0219  0.3945
  144OSM    C6S15813   5.113   4.365   6.655 -0.1617 -0.7071 -0.0910
  144OSM    H6S15814   5.130   4.256   6.659  1.3009 -0.5065  4.1823
  144OSM    H6T15815   5.005   4.365   6.678 -0.0509 -1.2281  0.4263
  144OSM    C7S15816   5.195   4.441   6.770 -0.1551 -0.0289 -0.3694
  144OSM    H7S15817   5.189   4.552   6.771 -2.0844 -0.1004  0.6008
  144OSM    H7T15818   5.300   4.426   6.738  0.2231  1.5034  0.1219
  144OSM    C8S15819   5.171   4.380   6.907 -0.2463  0.6175 -0.1501
  144OSM    H8S15820   5.244   4.296   6.907 -1.3011 -0.3164 -0.4247
  144OSM    H8T15821   5.066   4.348   6.923  0.4544 -1.1966  1.1899
  144OSM    C9S15822   5.201   4.481   7.025  0.3703 -0.4415 -0.0398
  144OSM    H9S15823   5.137   4.572   7.021 -1.1271 -1.5075 -0.8168
  144OSM    H9T15824   5.304   4.519   7.007  1.0118 -1.6539  0.9478
  144OSM   C10S15825   5.218   4.420   7.163  0.0732 -0.2452  0.0770
  144OSM   H10S15826   5.297   4.343   7.151  1.8798  1.5062  0.2150
  144OSM   H10T15827   5.118   4.377   7.187 -1.0213  1.6876 -0.8260
  144OSM   C11S15828   5.253   4.512   7.279 -0.0262 -0.4629  0.2683
  144OSM   H11S15829   5.171   4.585   7.295 -0.1853  0.1959 -2.9233
  144OSM   H11T15830   5.351   4.560   7.260  0.1382 -1.3866 -1.4255
  144OSM   C12S15831   5.267   4.423   7.409  0.1659 -0.9662  0.1743
  144OSM   H12S15832   5.335   4.337   7.394 -0.4555 -1.6249  1.0849
  144OSM   H12T15833   5.172   4.377   7.442 -0.3685  0.2055  0.3430
  144OSM   C13S15834   5.322   4.506   7.523  0.0327  0.3918  0.0306
  144OSM   H13S15835   5.252   4.589   7.549  0.4824  0.1920  2.0026
  144OSM   H13T15836   5.421   4.535   7.483 -0.4612  1.5517 -0.3982
  144OSM   C14S15837   5.340   4.418   7.654  0.7004 -0.1508  0.4859
  144OSM   H14S15838   5.409   4.333   7.638 -0.4172 -0.7559 -1.4651
  144OSM   H14T15839   5.244   4.371   7.684  1.5530 -0.9824  2.0560
  144OSM   C15S15840   5.378   4.497   7.772 -0.1456 -0.0573  0.3533
  144OSM   H15S15841   5.299   4.561   7.817 -0.1571 -1.1718  1.9732
  144OSM   H15T15842   5.454   4.569   7.735  0.4651 -0.1172  1.4679
  144OSM   C16S15843   5.432   4.411   7.888  0.4194 -0.0981 -0.3088
  144OSM   H16S15844   5.519   4.357   7.845  1.1256  1.0348 -0.3448
  144OSM   H16T15845   5.358   4.332   7.911 -2.0725  1.1195 -3.3998
  144OSM   C17S15846   5.457   4.489   8.016 -0.6566  0.2523 -0.6226
  144OSM   H17S15847   5.363   4.496   8.074  0.1554 -4.6944  1.8153
  144OSM   H17T15848   5.490   4.592   7.991 -2.5553  1.0940  0.1487
  144OSM   C18S15849   5.568   4.422   8.103 -0.1543  0.3547  0.3818
  144OSM   H18S15850   5.571   4.471   8.202 -1.0571 -0.3760  0.7943
  144OSM   H18T15851   5.663   4.428   8.046  0.1620 -3.0361  0.3296
  144OSM   H18U15852   5.548   4.315   8.127  1.4528  0.4090  2.2514
  144OSM    C1F15853   5.003   4.876   6.364  0.2326  0.1727 -0.4268
  144OSM     OF15854   4.923   4.853   6.275  0.1842 -0.4837 -0.1576
  144OSM    C2F15855   4.993   4.994   6.464  0.2163  0.2705  0.1470
  144OSM    H2F15856   5.065   5.065   6.416 -0.0996  0.3462 -0.2171
  144OSM    H2G15857   5.036   4.959   6.560  0.0532  1.6359  0.7386
  144OSM    C3F15858   4.859   5.065   6.482 -0.5377  0.5285 -0.3940
  144OSM    H3F15859   4.787   4.986   6.514 -1.5944  0.6010 -2.4198
  144OSM    H3G15860   4.821   5.106   6.386 -0.4537  2.6062  0.4036
  144OSM    C4F15861   4.865   5.178   6.585 -0.2547 -0.3196 -0.1520
  144OSM    H4F15862   4.786   5.255   6.587  1.7850  2.0360 -2.4144
  144OSM    H4G15863   4.963   5.231   6.581 -0.1379 -0.4085  1.0102
  144OSM    C5F15864   4.873   5.124   6.738  0.3898 -0.2612 -0.1026
  144OSM    H5F15865   4.977   5.085   6.740  1.0398  1.0196 -3.1101
  144OSM    H5G15866   4.801   5.039   6.739  0.8292 -0.6721 -1.3149
  144OSM    C6F15867   4.829   5.216   6.851 -0.0818 -0.9045 -0.1082
  144OSM    H6F15868   4.758   5.291   6.811  0.3798 -1.5787 -2.3010
  144OSM    H6G15869   4.920   5.277   6.874 -1.1524  0.5644  0.3636
  144OSM    C7F15870   4.774   5.134   6.968 -0.4456 -0.2227  0.2975
  144OSM    H7F15871   4.837   5.044   6.980  0.6368  0.8589  4.3154
  144OSM    H7G15872   4.683   5.097   6.916  0.3424  0.0321 -1.3248
  144OSM    C8F15873   4.758   5.227   7.086 -0.6827  0.4060 -1.1645
  144OSM    H8F15874   4.685   5.177   7.154 -1.0227  2.7837  0.3468
  144OSM    H8G15875   4.709   5.325   7.070 -0.2437  0.9192  0.4347
  144OSM    C9F15876   4.887   5.242   7.162 -0.0648 -0.2805  0.0241
  144OSM    H9F15877   4.970   5.237   7.090  1.0020 -0.1861  1.2103
  144OSM   C10F15878   4.906   5.288   7.290 -0.5402 -0.3602 -0.3915
  144OSM   H10F15879   5.005   5.308   7.334 -1.0028 -0.6040  0.8077
  144OSM   C11F15880   4.801   5.325   7.386 -0.4583 -1.0837  0.7865
  144OSM   H11F15881   4.807   5.256   7.473  1.2912 -1.9535  0.0205
  144OSM   H11G15882   4.698   5.324   7.344 -0.5403 -0.4846  0.9669
  144OSM   C12F15883   4.824   5.465   7.455  0.1664  0.3856 -0.1534
  144OSM   H12F15884   4.730   5.494   7.507  0.7908  1.0223  0.6532
  144OSM   H12G15885   4.836   5.534   7.368 -1.5187 -0.2880 -0.9678
  144OSM   C13F15886   4.947   5.479   7.542  0.4933  0.2438 -0.7818
  144OSM   H13F15887   5.038   5.504   7.483  0.7181  2.1218  0.2804
  144OSM   H13G15888   4.958   5.379   7.589  1.1244 -0.2004 -1.8131
  144OSM   C14F15889   4.934   5.589   7.647 -0.2409 -0.2656  0.3616
  144OSM   H14F15890   4.855   5.567   7.722 -1.7822 -0.7046 -1.3072
  144OSM   H14G15891   4.915   5.683   7.591 -0.1334  0.3467  1.3305
  144OSM   C15F15892   5.065   5.597   7.723  0.2918 -0.2945 -0.0019
  144OSM   H15F15893   5.137   5.652   7.659 -1.8959  2.1829 -0.4991
  144OSM   H15G15894   5.110   5.496   7.736  0.9601 -0.1404 -0.9414
  144OSM   C16F15895   5.072   5.652   7.868  0.0709 -0.2927  0.4468
  144OSM   H16F15896   5.002   5.593   7.930 -1.2697 -0.8514 -1.4882
  144OSM   H16G15897   5.043   5.758   7.879  1.9463  0.2261  0.6903
  144OSM   C17F15898   5.213   5.650   7.925  0.4885 -0.3712 -0.5898
  144OSM   H17F15899   5.283   5.721   7.874 -1.9865  1.4961 -1.5801
  144OSM   H17G15900   5.250   5.546   7.925 -1.5042 -1.1225 -1.8348
  144OSM   C18F15901   5.209   5.700   8.074  0.5537  0.2794 -0.8106
  144OSM   H18F15902   5.308   5.698   8.125  0.4814 -2.7910 -0.6127
  144OSM   H18G15903   5.148   5.629   8.134  2.3092 -1.8394 -1.4166
  144OSM   H18H15904   5.193   5.810   8.078  0.5000  0.2815 -1.0560
  145SAPE     N15905   4.510   0.524  10.665 -0.0394 -0.9157 -0.0540
  145SAPE   HN115906   4.581   0.589  10.625 -1.8254  0.8608 -0.4597
  145SAPE   HN215907   4.415   0.549  10.633  0.1049  2.4494  1.6796
  145SAPE   HN315908   4.506   0.544  10.767 -1.0611  1.0013 -0.4281
  145SAPE   C1215909   4.545   0.383  10.627 -0.4754 -0.2464 -0.1220
  145SAPE  H12A15910   4.454   0.320  10.641  0.8693 -1.4718  5.6177
  145SAPE  H12B15911   4.624   0.331  10.683 -0.9037 -2.6533 -1.6059
  145SAPE   C1115912   4.589   0.386  10.482 -0.1547  0.3447 -0.1244
  145SAPE  H11A15913   4.500   0.433  10.434 -0.0941  3.2168  2.2533
  145SAPE  H11B15914   4.608   0.285  10.441  1.1724  0.7639 -0.6014
  145SAPE     P15915   4.783   0.484  10.338  0.3617 -0.0008 -0.5183
  145SAPE   O1315916   4.880   0.595  10.367  0.5904  0.6714  0.6426
  145SAPE   O1415917   4.836   0.350  10.299  0.0842 -0.1255  0.0581
  145SAPE   O1215918   4.698   0.470  10.472 -0.0542  0.5197 -0.5162
  145SAPE   O1115919   4.678   0.529  10.222 -0.1264  0.2683 -0.3514
  145SAPE    C115920   4.638   0.665  10.213  0.3823 -0.2491 -0.9984
  145SAPE    HA15921   4.527   0.668  10.209  0.3887  0.4542 -0.7868
  145SAPE    HB15922   4.666   0.734  10.296  0.4201 -2.2285  0.7347
  145SAPE    C215923   4.686   0.744  10.091  0.1979 -0.2371 -0.8496
  145SAPE    HS15924   4.620   0.831  10.072 -2.0537 -2.0313 -1.7116
  145SAPE   O2115925   4.682   0.664   9.970 -0.0679 -0.1109  0.3245
  145SAPE   C2115926   4.567   0.599   9.936  0.2176 -0.0533 -0.4589
  145SAPE   O2215927   4.459   0.593   9.992 -0.1059  0.3929  0.3353
  145SAPE   C2215928   4.595   0.542   9.799  0.0433  0.4349 -0.0255
  145SAPE   H2R15929   4.638   0.628   9.742 -1.8576  2.5248  1.5154
  145SAPE   H2S15930   4.663   0.455   9.814 -1.5555 -0.6187  1.4355
  145SAPE    C315931   4.829   0.789  10.115  0.1938 -0.9792 -0.2671
  145SAPE    HX15932   4.879   0.694  10.144 -0.6695 -1.7676 -1.2465
  145SAPE    HY15933   4.831   0.856  10.203 -4.7133 -3.8711  2.4947
  145SAPE   O3115934   4.893   0.848  10.003 -0.4733  0.0474  0.4741
  145SAPE   C3115935   5.012   0.904  10.015 -0.5805  0.1887 -0.3757
  145SAPE   O3215936   5.074   0.911  10.117  0.1616 -0.7433 -0.0695
  145SAPE   C3215937   5.059   0.952   9.877 -0.6607 -0.2093 -0.1085
  145SAPE   H2X15938   4.977   0.941   9.803 -2.1617 -1.3179  1.6442
  145SAPE   H2Y15939   5.151   0.898   9.846 -0.4645 -1.0749  1.8753
  145SAPE   C2315940   4.457   0.479   9.742 -0.3801  0.1403 -0.4187
  145SAPE   H3R15941   4.372   0.551   9.748 -0.5576 -0.1212  0.5403
  145SAPE   H3S15942   4.432   0.387   9.801 -0.3387  0.6687  0.4463
  145SAPE   C2415943   4.462   0.429   9.595 -0.6332 -0.2809 -0.5003
  145SAPE   H4R15944   4.363   0.385   9.573 -0.4328 -0.1026 -1.8519
  145SAPE   H4S15945   4.539   0.350   9.587 -0.1339  0.2212 -0.7546
  145SAPE   C2515946   4.498   0.546   9.507 -0.0122 -1.1263 -0.2434
  145SAPE   H5R15947   4.574   0.611   9.554 -0.6456 -1.8067  1.7975
  145SAPE   C2615948   4.442   0.580   9.388 -0.2229 -0.3997 -0.2671
  145SAPE   H6R15949   4.483   0.663   9.329  1.7862 -2.5238 -2.0725
  145SAPE   C2715950   4.347   0.500   9.306  1.1160 -0.7554 -0.2038
  145SAPE   H7R15951   4.338   0.399   9.353 -1.4485 -1.0535 -1.1531
  145SAPE   H7S15952   4.388   0.477   9.206 -0.0336  1.1024 -1.1453
  145SAPE   C2815953   4.213   0.560   9.306  0.3477 -0.2482 -0.4045
  145SAPE   H8R15954   4.183   0.546   9.411  2.6206 -3.6468 -0.0687
  145SAPE   C2915955   4.140   0.597   9.202 -0.3096  0.2835 -0.1213
  145SAPE   H9R15956   4.043   0.646   9.216 -1.6308 -2.7576  2.9272
  145SAPE  C21015957   4.184   0.580   9.062 -0.3615  0.7962 -0.2137
  145SAPE  H10R15958   4.295   0.585   9.052 -0.2259  0.1013  0.7868
  145SAPE  H10S15959   4.143   0.667   9.006  0.0127  1.4211  0.4545
  145SAPE  C21115960   4.131   0.461   8.994 -0.0937 -0.1542 -0.1036
  145SAPE  H11R15961   4.062   0.394   9.048 -0.0776  0.1834  0.3434
  145SAPE  C21215962   4.184   0.415   8.882 -0.2894 -0.3810  0.4090
  145SAPE  H12R15963   4.141   0.327   8.832 -0.2850 -0.1643  0.0196
  145SAPE  C21315964   4.296   0.478   8.802  0.5722 -0.4651 -0.6605
  145SAPE  H13R15965   4.287   0.588   8.807 -2.0046 -0.6227 -0.3103
  145SAPE  H13S15966   4.275   0.456   8.695 -3.2339 -2.1208  0.2454
  145SAPE  C21415967   4.429   0.428   8.862  0.1915 -0.1789  0.0475
  145SAPE  H14R15968   4.445   0.417   8.971 -0.6773 -0.1289  0.1842
  145SAPE  C21515969   4.533   0.394   8.787 -0.8147 -0.4696  0.5661
  145SAPE  H15R15970   4.626   0.368   8.840  0.9394  1.7028 -1.2481
  145SAPE  C21615971   4.543   0.387   8.632  0.3692 -0.2405 -0.6211
  145SAPE  H16R15972   4.624   0.453   8.593  2.2267 -1.8410  0.3992
  145SAPE  H16S15973   4.456   0.417   8.570  1.0022 -0.0114 -1.4136
  145SAPE  C21715974   4.560   0.236   8.611  0.0452 -0.6044 -0.4872
  145SAPE  H17R15975   4.526   0.216   8.507  0.4515 -3.5240 -0.1332
  145SAPE  H17S15976   4.496   0.170   8.674  1.8444 -1.2837  0.6959
  145SAPE  C21815977   4.699   0.176   8.619  0.0134  0.0627 -0.0724
  145SAPE  H18R15978   4.726   0.169   8.726 -0.5606 -0.4691  0.0417
  145SAPE  H18S15979   4.779   0.234   8.568  0.2984  0.6252  0.9927
  145SAPE  C21915980   4.720   0.030   8.568  0.2843 -0.1193 -0.3996
  145SAPE  H19R15981   4.716   0.019   8.458  1.2274 -0.1974 -0.4300
  145SAPE  H19S15982   4.640  -0.024   8.624  1.0075 -0.0223  0.7566
  145SAPE  C22015983   4.850  -0.036   8.621  0.2248  0.2742  0.0952
  145SAPE  H20R15984   4.833  -0.145   8.637 -1.7612  0.6191  0.5585
  145SAPE  H20S15985   4.872   0.013   8.718 -1.0408  0.0028  0.5385
  145SAPE  H20T15986   4.934  -0.011   8.553  1.2053 -0.4753  1.0005
  145SAPE   C3315987   5.098   1.105   9.879 -0.0173 -0.0331  0.4520
  145SAPE   H3X15988   5.173   1.128   9.958  0.8477 -1.4360  0.0582
  145SAPE   H3Y15989   5.011   1.166   9.912  1.2738  0.1420  4.0480
  145SAPE   C3415990   5.163   1.176   9.750 -0.3138  0.2412 -0.9374
  145SAPE   H4X15991   5.252   1.115   9.725  0.9316  1.8045 -0.5113
  145SAPE   H4Y15992   5.186   1.283   9.771 -0.7549  0.5726 -2.0658
  145SAPE   C3515993   5.062   1.186   9.637 -0.2446  0.1145 -0.2066
  145SAPE   H5X15994   4.966   1.234   9.664  0.4368  0.9726  0.7711
  145SAPE   H5Y15995   5.033   1.082   9.611 -2.2633  0.6377 -0.1552
  145SAPE   C3615996   5.117   1.253   9.512  0.1655 -0.1556 -0.4229
  145SAPE   H6X15997   5.187   1.334   9.543 -3.4687  2.7089  1.0464
  145SAPE   H6Y15998   5.031   1.292   9.453 -0.1063  1.4671  0.9555
  145SAPE   C3715999   5.197   1.169   9.415 -0.0359 -0.0379  0.3197
  145SAPE   H7X16000   5.135   1.081   9.389  1.2593 -0.1301 -2.9810
  145SAPE   H7Y16001   5.289   1.137   9.469 -1.3352 -1.3915  1.8393
  145SAPE   C3816002   5.210   1.237   9.277 -0.3212  0.9425  0.6366
  145SAPE   H8X16003   5.264   1.334   9.280 -0.2594  1.0203 -1.4900
  145SAPE   H8Y16004   5.110   1.262   9.238  0.1504  1.5631 -0.2153
  145SAPE   C3916005   5.277   1.141   9.169  0.5234 -0.3176  0.5191
  145SAPE   H9X16006   5.247   1.036   9.192  1.9257 -0.4425  2.0276
  145SAPE   H9Y16007   5.388   1.140   9.180  0.4320  0.3387  1.6665
  145SAPE  C31016008   5.240   1.167   9.023  0.7654  0.2427 -0.4078
  145SAPE  H10X16009   5.261   1.275   9.007  0.6111  0.0780 -1.8979
  145SAPE  H10Y16010   5.129   1.157   9.018  0.6544 -1.3893  2.9309
  145SAPE  C31116011   5.310   1.066   8.926 -0.1455  0.2238 -0.9510
  145SAPE  H11X16012   5.320   0.965   8.970  2.4032  1.7769  2.4797
  145SAPE  H11Y16013   5.414   1.104   8.928  0.5100 -1.5087  1.4507
  145SAPE  C31216014   5.249   1.056   8.781  0.1365  0.2828  1.1727
  145SAPE  H12X16015   5.324   1.008   8.715  1.0146  0.9333  1.6738
  145SAPE  H12Y16016   5.241   1.162   8.747  0.4523 -0.4620 -1.3809
  145SAPE  C31316017   5.117   0.969   8.778 -0.3304 -0.0990 -0.0597
  145SAPE  H13X16018   5.041   1.029   8.833 -0.0615  1.8256 -1.6698
  145SAPE  H13Y16019   5.138   0.874   8.832 -1.4624 -1.1444 -1.4033
  145SAPE  C31416020   5.066   0.927   8.641  0.2109 -0.1724 -0.3521
  145SAPE  H14X16021   5.008   0.833   8.645  0.8179 -0.5212  0.5317
  145SAPE  H14Y16022   5.152   0.898   8.577 -1.1316 -2.5761 -1.1974
  145SAPE  C31516023   4.998   1.043   8.573  0.8940 -0.6452  0.0145
  145SAPE  H15X16024   5.050   1.141   8.572 -1.2474  0.5759 -1.0096
  145SAPE  H15Y16025   4.894   1.055   8.612  0.6737 -0.4672 -0.6158
  145SAPE  C31616026   4.983   1.013   8.413  0.1416 -0.2204  0.4862
  145SAPE  H16X16027   4.916   0.925   8.400 -2.2780  1.7095 -0.9597
  145SAPE  H16Y16028   5.079   0.979   8.368 -0.2275 -1.7717  0.8119
  145SAPE  C31716029   4.903   1.127   8.346 -0.8053 -0.3425  0.7491
  145SAPE  H17X16030   4.962   1.221   8.354 -0.0054 -0.7913  0.2607
  145SAPE  H17Y16031   4.799   1.144   8.381 -0.9171 -0.9554  0.7300
  145SAPE  C31816032   4.881   1.105   8.193 -0.0767 -0.4134 -0.1332
  145SAPE  H18X16033   4.804   1.027   8.175  0.1514 -0.5508 -0.5222
  145SAPE  H18Y16034   4.971   1.097   8.129 -0.5426 -0.4819 -0.7949
  145SAPE  H18Z16035   4.822   1.191   8.155  0.2503  0.4064  1.1464
  146SAPE     N16036   4.624   2.957  10.958  0.1057  0.2134 -0.4935
  146SAPE   HN116037   4.647   3.058  10.946 -1.8138  0.5408 -2.0020
  146SAPE   HN216038   4.578   2.932  11.048  1.2469  1.2935  0.4142
  146SAPE   HN316039   4.712   2.902  10.954  2.5502  3.6232  1.1351
  146SAPE   C1216040   4.533   2.918  10.856 -0.0665 -0.4260 -0.0536
  146SAPE  H12A16041   4.574   2.967  10.765 -0.5518 -1.6483 -0.9527
  146SAPE  H12B16042   4.438   2.972  10.878 -0.0729 -0.3607 -0.2386
  146SAPE   C1116043   4.532   2.767  10.847  0.2835 -0.1442  0.0305
  146SAPE  H11A16044   4.467   2.746  10.759 -0.5561  0.4734  0.4829
  146SAPE  H11B16045   4.466   2.725  10.926  1.1083  1.4516  1.6343
  146SAPE     P16046   4.722   2.692  10.683 -0.1639 -0.2061  0.1152
  146SAPE   O1316047   4.735   2.830  10.638  0.4069  0.1868  0.3792
  146SAPE   O1416048   4.842   2.604  10.692  0.6898  0.3778 -0.0236
  146SAPE   O1216049   4.665   2.708  10.837 -0.0074 -0.9004 -0.0680
  146SAPE   O1116050   4.609   2.616  10.601  0.8391  0.3417  0.2554
  146SAPE    C116051   4.550   2.486  10.640 -1.0255 -0.0780  0.0807
  146SAPE    HA16052   4.628   2.430  10.695 -0.7238 -1.3184 -1.5289
  146SAPE    HB16053   4.464   2.515  10.704 -2.3706  0.6875 -1.9584
  146SAPE    C216054   4.499   2.409  10.513  0.5444  1.4866  1.0491
  146SAPE    HS16055   4.502   2.301  10.539 -0.5372  0.7130 -1.6870
  146SAPE   O2116056   4.580   2.432  10.402  0.0497 -0.4016  0.7314
  146SAPE   C2116057   4.703   2.390  10.408  0.2092 -0.1177  0.5656
  146SAPE   O2216058   4.746   2.313  10.497  0.2489 -0.0821 -0.0713
  146SAPE   C2216059   4.788   2.434  10.288  0.4215 -0.3376  0.2645
  146SAPE   H2R16060   4.728   2.432  10.194 -0.6897 -0.2973  0.9488
  146SAPE   H2S16061   4.828   2.534  10.317 -1.2069  0.7612 -1.0741
  146SAPE    C316062   4.348   2.445  10.485  0.2031  0.1483 -0.0673
  146SAPE    HX16063   4.353   2.555  10.470 -3.0756  0.5324  1.0395
  146SAPE    HY16064   4.302   2.417  10.582  2.0446 -0.1446  0.7653
  146SAPE   O3116065   4.286   2.371  10.376 -0.1132  0.7154 -0.2332
  146SAPE   C3116066   4.309   2.419  10.261 -0.4423  0.3688  0.7681
  146SAPE   O3216067   4.370   2.520  10.233 -0.0540  0.1613  0.0172
  146SAPE   C3216068   4.220   2.345  10.156 -0.0827 -0.5738 -0.6080
  146SAPE   H2X16069   4.116   2.380  10.172  1.0627  3.1625 -0.4400
  146SAPE   H2Y16070   4.236   2.235  10.161 -1.4567 -0.8507 -1.8036
  146SAPE   C2316071   4.902   2.339  10.268 -0.3416  0.1887 -0.3881
  146SAPE   H3R16072   4.874   2.232  10.258 -0.7463  0.2412  0.1477
  146SAPE   H3S16073   4.962   2.353  10.360  1.7475  2.0490 -1.9343
  146SAPE   C2416074   4.988   2.375  10.146  0.3006  0.0261  0.1294
  146SAPE   H4R16075   5.074   2.306  10.146  0.0541 -0.3007 -1.2858
  146SAPE   H4S16076   5.030   2.477  10.157  0.7953 -0.1415 -0.2080
  146SAPE   C2516077   4.901   2.357  10.023 -0.4232 -1.1132 -0.2267
  146SAPE   H5R16078   4.824   2.434  10.013  1.1107  0.5493  0.3383
  146SAPE   C2616079   4.917   2.280   9.920 -0.7145 -0.5253  0.2785
  146SAPE   H6R16080   4.846   2.299   9.838  1.4299  0.7382 -1.3945
  146SAPE   C2716081   5.018   2.169   9.901 -0.3310  0.1838 -0.1040
  146SAPE   H7R16082   5.074   2.152   9.996  2.3504 -1.5836 -1.8660
  146SAPE   H7S16083   5.096   2.201   9.829 -0.7225  1.1964 -0.0860
  146SAPE   C2816084   4.946   2.046   9.851  0.1391 -0.3970  0.7981
  146SAPE   H8R16085   4.899   1.982   9.926 -0.0078 -3.1473 -1.4465
  146SAPE   C2916086   4.951   2.010   9.718 -0.3857  0.2929 -0.5634
  146SAPE   H9R16087   4.900   1.918   9.685  0.8014  0.1610 -2.1717
  146SAPE  C21016088   5.015   2.087   9.603  0.0852 -0.4501  0.1354
  146SAPE  H10R16089   5.089   2.019   9.555 -1.8142 -0.9897 -2.2295
  146SAPE  H10S16090   5.063   2.180   9.638 -0.6593  0.4219 -1.0818
  146SAPE  C21116091   4.908   2.120   9.505 -0.1722  0.0549 -0.0101
  146SAPE  H11R16092   4.811   2.152   9.546 -0.3676 -2.2663  1.5094
  146SAPE  C21216093   4.925   2.139   9.373 -0.1310  0.3259  0.5657
  146SAPE  H12R16094   4.841   2.157   9.304 -1.5147 -2.7671  1.2640
  146SAPE  C21316095   5.049   2.105   9.303  0.0133  0.5730  0.5319
  146SAPE  H13R16096   5.127   2.048   9.359 -1.1530 -0.0062  1.6061
  146SAPE  H13S16097   5.088   2.201   9.262 -0.7687  1.1685  1.1640
  146SAPE  C21416098   5.010   2.024   9.179 -0.2035  0.2121 -1.0555
  146SAPE  H14R16099   4.987   1.917   9.195 -1.2155  0.8726  2.9884
  146SAPE  C21516100   4.994   2.083   9.059 -0.3447  0.4188  0.1054
  146SAPE  H15R16101   4.950   2.020   8.980 -0.6023 -0.5826  1.0276
  146SAPE  C21616102   5.022   2.224   9.015  0.3121  0.4474 -0.7254
  146SAPE  H16R16103   5.026   2.302   9.094 -1.3927 -0.1592  0.0093
  146SAPE  H16S16104   4.938   2.257   8.950 -1.8642 -1.2406  1.0797
  146SAPE  C21716105   5.156   2.222   8.923  0.0286  0.0811 -0.0064
  146SAPE  H17R16106   5.238   2.186   8.989 -0.9097 -1.3474  0.4501
  146SAPE  H17S16107   5.169   2.330   8.903  1.2197 -0.2118 -0.9139
  146SAPE  C21816108   5.140   2.164   8.783  0.1801  0.0229 -0.3919
  146SAPE  H18R16109   5.210   2.210   8.711  0.6697  1.1561  0.7798
  146SAPE  H18S16110   5.034   2.182   8.754 -0.5160  0.9991  2.4291
  146SAPE  C21916111   5.175   2.014   8.777  0.3411 -0.0750 -0.0088
  146SAPE  H19R16112   5.100   1.955   8.834 -1.4970 -0.5955 -2.7471
  146SAPE  H19S16113   5.269   1.993   8.832 -0.7515 -4.0296  0.6646
  146SAPE  C22016114   5.190   1.972   8.631 -0.2341  0.0179 -0.0483
  146SAPE  H20R16115   5.266   2.035   8.581  1.5212 -0.2133  2.1373
  146SAPE  H20S16116   5.095   1.982   8.574  0.4332 -1.8357 -1.6078
  146SAPE  H20T16117   5.212   1.865   8.611 -0.9062 -0.7262  2.6254
  146SAPE   C3316118   4.247   2.383  10.010  0.0828 -0.1844  0.5611
  146SAPE   H3X16119   4.354   2.376   9.980 -0.0933  0.7455 -0.3363
  146SAPE   H3Y16120   4.215   2.487   9.988 -1.4162 -0.4751  1.2394
  146SAPE   C3416121   4.164   2.300   9.907  0.2801 -0.6289 -0.2314
  146SAPE   H4X16122   4.210   2.334   9.812 -2.1082  0.1580 -1.1624
  146SAPE   H4Y16123   4.065   2.349   9.908  0.6256  0.1304  1.7679
  146SAPE   C3516124   4.161   2.146   9.920 -0.1105 -0.0129  1.2327
  146SAPE   H5X16125   4.119   2.124  10.021  0.5386  1.9472  1.9804
  146SAPE   H5Y16126   4.267   2.111   9.928 -0.2315 -0.1947  2.1041
  146SAPE   C3616127   4.103   2.072   9.799 -0.6211 -0.3242 -0.1075
  146SAPE   H6X16128   3.993   2.091   9.795 -0.7217 -0.2728  1.9707
  146SAPE   H6Y16129   4.127   1.964   9.795  0.4676 -0.0683 -2.4715
  146SAPE   C3716130   4.142   2.132   9.666 -0.5370 -0.4525  0.9244
  146SAPE   H7X16131   4.252   2.141   9.664 -0.5497 -0.1054 -1.5867
  146SAPE   H7Y16132   4.107   2.237   9.655  0.7548 -0.1706 -1.0543
  146SAPE   C3816133   4.110   2.038   9.553 -0.0387  0.2068 -0.5422
  146SAPE   H8X16134   4.007   1.997   9.556  0.7637 -1.8640  0.4301
  146SAPE   H8Y16135   4.182   1.955   9.569  2.8317  2.4279 -1.2148
  146SAPE   C3916136   4.125   2.108   9.417 -0.0792  1.0298  0.1793
  146SAPE   H9X16137   4.219   2.165   9.426  1.5127 -1.5083  0.6882
  146SAPE   H9Y16138   4.035   2.170   9.394 -0.1473  0.2847 -1.6724
  146SAPE  C31016139   4.125   2.009   9.296  0.2911  0.5937  0.4376
  146SAPE  H10X16140   4.029   1.953   9.293 -1.2123  3.0833 -1.3670
  146SAPE  H10Y16141   4.213   1.943   9.307 -0.0284  0.0902 -0.0048
  146SAPE  C31116142   4.158   2.082   9.164  0.0577 -0.2217 -0.4985
  146SAPE  H11X16143   4.253   2.138   9.168 -0.5684  0.7756  1.3945
  146SAPE  H11Y16144   4.083   2.162   9.146 -0.0333 -0.2438 -0.2180
  146SAPE  C31216145   4.153   1.978   9.052  0.4959  0.6893 -0.2918
  146SAPE  H12X16146   4.075   1.905   9.084  1.0171  0.2758  0.0630
  146SAPE  H12Y16147   4.250   1.925   9.062 -0.1636 -0.5500 -0.2991
  146SAPE  C31316148   4.133   2.028   8.918  0.6077 -0.1348  0.6707
  146SAPE  H13X16149   4.043   2.091   8.899  0.9085  0.0944 -0.0197
  146SAPE  H13Y16150   4.118   1.936   8.856 -1.8447 -0.0282  0.9914
  146SAPE  C31416151   4.249   2.113   8.854  0.0153  0.4659 -0.2866
  146SAPE  H14X16152   4.346   2.073   8.893 -0.9565 -1.0469  0.7081
  146SAPE  H14Y16153   4.250   2.213   8.903  1.8347 -0.0320  0.7896
  146SAPE  C31516154   4.240   2.128   8.703 -0.0020 -0.2219 -0.3234
  146SAPE  H15X16155   4.256   2.025   8.665  3.3178 -0.2453  0.8719
  146SAPE  H15Y16156   4.338   2.174   8.679 -0.1356  0.3783  0.2585
  146SAPE  C31616157   4.120   2.216   8.647 -0.0354 -0.5438 -0.0706
  146SAPE  H16X16158   4.108   2.303   8.715 -0.4684  0.0213 -0.8551
  146SAPE  H16Y16159   4.028   2.155   8.659 -1.0255  0.9417  0.2273
  146SAPE  C31716160   4.140   2.259   8.504 -0.2218  0.3002 -0.9927
  146SAPE  H17X16161   4.169   2.178   8.434  0.3583  1.3566 -1.9989
  146SAPE  H17Y16162   4.225   2.330   8.496 -0.3181  0.5367 -0.0239
  146SAPE  C31816163   4.015   2.327   8.446 -0.2802  0.7046 -0.0872
  146SAPE  H18X16164   4.044   2.355   8.343  3.0146 -1.4191  0.1391
  146SAPE  H18Y16165   3.981   2.415   8.505  0.8963 -0.3330  2.2455
  146SAPE  H18Z16166   3.932   2.253   8.441  2.9413 -3.1603 -1.1613
  147SAPE     N16167   5.273   6.554  10.235  0.6190 -0.0693  0.3469
  147SAPE   HN116168   5.331   6.497  10.300 -0.2416  1.2506  2.4024
  147SAPE   HN216169   5.305   6.548  10.137 -2.1165 -1.3757 -0.5500
  147SAPE   HN316170   5.266   6.652  10.269 -1.2814  0.0894 -0.3727
  147SAPE   C1216171   5.129   6.509  10.253  0.1613 -0.5688  0.1352
  147SAPE  H12A16172   5.103   6.539  10.357 -0.6290 -0.5772 -0.0523
  147SAPE  H12B16173   5.123   6.400  10.237 -0.4950 -0.8704  2.1395
  147SAPE   C1116174   5.034   6.581  10.155  0.1474 -0.4072  0.3863
  147SAPE  H11A16175   5.077   6.583  10.053  1.0694  3.0211  0.7286
  147SAPE  H11B16176   5.010   6.684  10.189 -0.7109 -0.7752  0.9638
  147SAPE     P16177   4.799   6.532  10.036  0.4887  0.5934  0.0636
  147SAPE   O1316178   4.680   6.450  10.070 -0.0593  0.5584 -0.0251
  147SAPE   O1416179   4.780   6.676   9.999  0.0531  0.1759 -0.2006
  147SAPE   O1216180   4.905   6.511  10.154  0.1950 -0.5396 -0.3648
  147SAPE   O1116181   4.876   6.457   9.914  0.7417 -0.6743 -0.4629
  147SAPE    C116182   4.908   6.317   9.937  0.0783 -0.1723  0.0528
  147SAPE    HA16183   5.016   6.304   9.915  0.1059  0.7988 -0.4605
  147SAPE    HB16184   4.910   6.279  10.041  0.2955  0.0813  0.1412
  147SAPE    C216185   4.824   6.226   9.844 -0.2578 -0.2884  0.8452
  147SAPE    HS16186   4.874   6.127   9.846  1.8156  0.6801  0.2324
  147SAPE   O2116187   4.820   6.280   9.714 -0.5820  0.5652  0.0476
  147SAPE   C2116188   4.937   6.261   9.648 -0.6172  0.5376  0.4060
  147SAPE   O2216189   5.034   6.200   9.684  0.1466  0.2556 -0.5957
  147SAPE   C2216190   4.927   6.330   9.518 -0.0943 -0.3056 -0.2565
  147SAPE   H2R16191   4.889   6.432   9.542 -0.3371  0.2270 -2.5932
  147SAPE   H2S16192   5.031   6.337   9.479 -0.0415  0.7089  0.0253
  147SAPE    C316193   4.674   6.214   9.887  1.1049 -0.2831  0.0266
  147SAPE    HX16194   4.633   6.312   9.854  1.4897 -0.2931 -0.4891
  147SAPE    HY16195   4.654   6.212   9.996  0.3216  0.8409 -0.0749
  147SAPE   O3116196   4.598   6.114   9.813 -0.0024  0.2332  0.0456
  147SAPE   C3116197   4.579   5.999   9.868 -0.6397 -0.4892 -0.0518
  147SAPE   O3216198   4.599   5.981   9.987 -0.5038  0.5389  0.0512
  147SAPE   C3216199   4.521   5.897   9.766 -0.8163 -0.2164 -0.2427
  147SAPE   H2X16200   4.546   5.932   9.664 -1.0990 -0.4173 -0.3847
  147SAPE   H2Y16201   4.410   5.896   9.779 -0.6823  0.0009  1.1419
  147SAPE   C2316202   4.838   6.263   9.422  0.6161  0.1230 -0.1411
  147SAPE   H3R16203   4.815   6.342   9.348  1.2346 -0.3249 -0.8173
  147SAPE   H3S16204   4.746   6.218   9.464  0.6484  1.2915  1.2644
  147SAPE   C2416205   4.917   6.155   9.354 -0.4778  0.5280  0.2831
  147SAPE   H4R16206   4.935   6.069   9.421  0.1723 -1.8864 -2.7707
  147SAPE   H4S16207   5.020   6.190   9.332  0.3050 -0.7476  1.7685
  147SAPE   C2516208   4.855   6.094   9.228  0.4338  0.2565 -0.3118
  147SAPE   H5R16209   4.768   6.034   9.258  0.9020 -0.4179 -0.2908
  147SAPE   C2616210   4.898   6.100   9.102 -0.0536 -0.2995  0.5349
  147SAPE   H6R16211   4.862   6.031   9.024 -0.0576 -0.3721  0.6012
  147SAPE   C2716212   5.035   6.178   9.067  0.5030  0.1953  0.7488
  147SAPE   H7R16213   5.120   6.128   9.118  0.2926  1.5908  2.5643
  147SAPE   H7S16214   5.031   6.286   9.092  1.1518  0.6648 -1.0003
  147SAPE   C2816215   5.047   6.165   8.914  1.4195 -0.1884 -0.2808
  147SAPE   H8R16216   5.088   6.069   8.879 -1.4324 -0.8238 -2.2866
  147SAPE   C2916217   5.008   6.252   8.821 -0.0754 -0.5306  0.7313
  147SAPE   H9R16218   5.012   6.222   8.716  2.3549  2.5534 -0.1993
  147SAPE  C21016219   4.937   6.390   8.849 -1.4261 -0.1712  0.5909
  147SAPE  H10R16220   4.850   6.361   8.912 -0.8355  0.3389  1.6604
  147SAPE  H10S16221   4.904   6.431   8.751  0.9432 -1.5658 -0.8630
  147SAPE  C21116222   5.028   6.493   8.911  0.4085 -0.3732 -0.1284
  147SAPE  H11R16223   5.137   6.480   8.903  0.4348 -0.8525  0.9137
  147SAPE  C21216224   4.984   6.607   8.972  0.2671  0.0260  0.0800
  147SAPE  H12R16225   5.053   6.676   9.022 -1.0903  0.4885  1.3646
  147SAPE  C21316226   4.838   6.648   8.978 -0.5187  0.0381  0.0938
  147SAPE  H13R16227   4.772   6.608   8.898  0.6262  0.1176 -0.9250
  147SAPE  H13S16228   4.837   6.759   8.967  1.6025  0.2534  1.6085
  147SAPE  C21416229   4.772   6.619   9.114  0.4159  0.1515  0.4432
  147SAPE  H14R16230   4.844   6.630   9.196  0.9306 -1.6647  0.2928
  147SAPE  C21516231   4.654   6.563   9.139 -0.1215 -0.0046 -0.1100
  147SAPE  H15R16232   4.617   6.538   9.239  1.3664 -0.5005  0.3379
  147SAPE  C21616233   4.545   6.545   9.044 -0.9430  0.2436  0.1837
  147SAPE  H16R16234   4.578   6.552   8.938 -0.2295  1.0054  0.4466
  147SAPE  H16S16235   4.464   6.618   9.063 -0.8179 -0.3874  3.9965
  147SAPE  C21716236   4.478   6.399   9.060 -0.4358 -0.0765  0.5549
  147SAPE  H17R16237   4.390   6.417   8.995 -0.0205  1.5061  0.3835
  147SAPE  H17S16238   4.426   6.388   9.158  0.1817 -1.6660  0.7353
  147SAPE  C21816239   4.562   6.276   9.019  0.4592 -0.3760  0.4481
  147SAPE  H18R16240   4.508   6.183   9.046  1.8735 -2.2014 -2.5591
  147SAPE  H18S16241   4.652   6.277   9.084 -0.6875  0.4593  2.1043
  147SAPE  C21916242   4.581   6.262   8.867 -0.2348 -0.1375 -0.1040
  147SAPE  H19R16243   4.653   6.337   8.830  0.6711 -0.6581  0.5442
  147SAPE  H19S16244   4.485   6.276   8.814 -0.7417 -1.5094  0.4042
  147SAPE  C22016245   4.627   6.118   8.829  0.4709 -0.0644  0.1805
  147SAPE  H20R16246   4.646   6.120   8.720  0.6203  1.3432  0.2138
  147SAPE  H20S16247   4.553   6.036   8.844  1.6633 -1.1200  0.3858
  147SAPE  H20T16248   4.723   6.090   8.877  0.0972 -1.8948 -0.0782
  147SAPE   C3316249   4.571   5.753   9.791 -0.6898 -0.1499  0.1249
  147SAPE   H3X16250   4.510   5.682   9.732 -0.2171 -0.6336  0.2147
  147SAPE   H3Y16251   4.565   5.726   9.898 -3.2776  0.2980  0.1613
  147SAPE   C3416252   4.724   5.733   9.746 -0.8349  0.9614 -0.1929
  147SAPE   H4X16253   4.766   5.646   9.801 -1.2274  0.4036 -0.7763
  147SAPE   H4Y16254   4.786   5.821   9.776 -0.0757  0.8575 -1.4207
  147SAPE   C3516255   4.731   5.698   9.600 -0.7295 -0.0157  0.5661
  147SAPE   H5X16256   4.670   5.778   9.554  2.3485  1.7057 -0.8319
  147SAPE   H5Y16257   4.691   5.598   9.572 -1.5668  0.0558  1.4312
  147SAPE   C3616258   4.875   5.703   9.536  0.1764 -0.1351 -0.3880
  147SAPE   H6X16259   4.931   5.618   9.582  0.4572  0.7980  1.0509
  147SAPE   H6Y16260   4.913   5.800   9.574 -0.8900 -0.2598  1.0778
  147SAPE   C3716261   4.882   5.705   9.384 -0.5139  0.0767 -0.0386
  147SAPE   H7X16262   4.816   5.786   9.346  0.5346  1.2085  0.4967
  147SAPE   H7Y16263   4.866   5.605   9.338  0.2008 -1.0383  2.0055
  147SAPE   C3816264   5.029   5.735   9.349 -0.4390 -0.0902  0.5045
  147SAPE   H8X16265   5.090   5.649   9.382 -0.1514 -0.1644 -0.2084
  147SAPE   H8Y16266   5.066   5.823   9.406  1.5777 -0.7032  0.2048
  147SAPE   C3916267   5.044   5.750   9.201  0.4718  0.2197  0.0609
  147SAPE   H9X16268   5.025   5.855   9.173  0.7195 -0.3732 -2.5736
  147SAPE   H9Y16269   4.969   5.681   9.158 -0.7290  2.0278 -0.8525
  147SAPE  C31016270   5.189   5.716   9.157  0.3079  0.9079  0.3913
  147SAPE  H10X16271   5.227   5.632   9.218  0.6186 -0.6900 -1.8761
  147SAPE  H10Y16272   5.249   5.807   9.177  0.2954  1.0933 -0.3946
  147SAPE  C31116273   5.201   5.679   9.010 -0.3393 -0.5328  0.2718
  147SAPE  H11X16274   5.159   5.576   9.007 -0.7148 -0.4736  2.2471
  147SAPE  H11Y16275   5.311   5.665   8.995 -0.0380  1.3727  0.4625
  147SAPE  C31216276   5.135   5.776   8.909 -0.8246  0.6966 -0.0542
  147SAPE  H12X16277   5.201   5.865   8.899  0.6743 -0.2385  0.9301
  147SAPE  H12Y16278   5.034   5.812   8.937 -1.2074  1.4754 -2.2342
  147SAPE  C31316279   5.119   5.721   8.770  0.0720 -0.6682 -0.3722
  147SAPE  H13X16280   5.223   5.692   8.745  0.5567 -0.1012  0.9379
  147SAPE  H13Y16281   5.082   5.788   8.689  1.5732 -0.6235 -1.0647
  147SAPE  C31416282   5.023   5.598   8.754  0.2324  0.4892  0.3876
  147SAPE  H14X16283   4.918   5.633   8.765  0.3621  0.7527  0.8443
  147SAPE  H14Y16284   5.044   5.529   8.839  1.4279  1.1375  0.6503
  147SAPE  C31516285   5.048   5.521   8.620  0.3756 -0.2838 -0.2304
  147SAPE  H15X16286   4.990   5.427   8.620 -0.7311  0.3657  1.3458
  147SAPE  H15Y16287   5.154   5.487   8.632  0.8902  1.9892  2.9437
  147SAPE  C31616288   5.023   5.598   8.496  0.4520  0.5338 -0.0062
  147SAPE  H16X16289   5.094   5.680   8.471 -0.9760  1.4867 -1.1151
  147SAPE  H16Y16290   4.938   5.667   8.517  0.0257 -0.3689  1.3630
  147SAPE  C31716291   4.995   5.525   8.365  0.2029 -0.1087 -1.6490
  147SAPE  H17X16292   4.982   5.603   8.287 -3.2467  0.5555 -0.5649
  147SAPE  H17Y16293   4.896   5.476   8.359  0.1258  0.0766 -1.9380
  147SAPE  C31816294   5.097   5.426   8.320 -0.9859  0.2168  0.3824
  147SAPE  H18X16295   5.063   5.385   8.223 -2.7495  1.6903  0.3105
  147SAPE  H18Y16296   5.103   5.348   8.400 -0.3885  0.0469  0.1713
  147SAPE  H18Z16297   5.199   5.469   8.322 -0.5157 -0.8791  1.6947
  148SAPE     N16298   0.405   5.754  10.834  0.3510  0.2916  0.3425
  148SAPE   HN116299   0.463   5.778  10.752 -1.5756  2.9725 -0.3909
  148SAPE   HN216300   0.315   5.800  10.809  0.8655 -0.2027 -2.8025
  148SAPE   HN316301   0.450   5.802  10.915 -1.4865 -0.5846  1.9839
  148SAPE   C1216302   0.389   5.609  10.877 -0.0341  0.8183  0.1581
  148SAPE  H12A16303   0.320   5.611  10.964 -2.4672  0.9381 -1.6596
  148SAPE  H12B16304   0.492   5.574  10.898  0.1567  1.1530 -0.1936
  148SAPE   C1116305   0.357   5.514  10.761  0.0079  0.0380  0.1061
  148SAPE  H11A16306   0.262   5.544  10.713 -0.2909 -1.2730 -0.1452
  148SAPE  H11B16307   0.349   5.409  10.795  0.2851  0.4187  1.4254
  148SAPE     P16308   0.467   5.423  10.553 -0.0354  0.1355 -0.2946
  148SAPE   O1316309   0.609   5.396  10.522  0.2737 -0.4877  0.2911
  148SAPE   O1416310   0.387   5.307  10.597 -0.0180  0.5947  0.4998
  148SAPE   O1216311   0.461   5.534  10.661  0.1917  0.3315  0.4059
  148SAPE   O1116312   0.400   5.485  10.423  0.2351 -0.1227 -0.7057
  148SAPE    C116313   0.326   5.608  10.428 -0.0778  0.8641  0.4002
  148SAPE    HA16314   0.217   5.597  10.445  0.0018  0.3335  0.6093
  148SAPE    HB16315   0.367   5.681  10.500  0.7426 -0.0588  0.9021
  148SAPE    C216316   0.350   5.684  10.291 -0.8204 -1.0873 -0.0767
  148SAPE    HS16317   0.304   5.783  10.313 -1.6024 -1.4704  0.0427
  148SAPE   O2116318   0.292   5.619  10.183  0.6546  0.5062  0.0758
  148SAPE   C2116319   0.156   5.612  10.187 -0.0915 -1.1800  0.6559
  148SAPE   O2216320   0.085   5.674  10.267 -0.2492 -0.5536 -0.2413
  148SAPE   C2216321   0.100   5.543  10.060 -0.6919 -0.3532 -1.2222
  148SAPE   H2R16322   0.084   5.620   9.981  0.4630  1.1385 -0.0640
  148SAPE   H2S16323   0.185   5.488  10.015 -0.9311 -0.9600 -0.9394
  148SAPE    C316324   0.494   5.720  10.247  0.0573  0.0570 -0.1339
  148SAPE    HX16325   0.538   5.622  10.218 -0.9393 -1.4034  2.9069
  148SAPE    HY16326   0.539   5.750  10.344  1.2611 -0.8783 -0.3794
  148SAPE   O3116327   0.510   5.829  10.152 -0.1499  0.1769  0.3177
  148SAPE   C3116328   0.639   5.862  10.151 -0.8602 -0.5929  0.2690
  148SAPE   O3216329   0.729   5.798  10.206  0.3702  0.1330  0.3590
  148SAPE   C3216330   0.652   5.990  10.070 -0.1011  0.3893 -0.0793
  148SAPE   H2X16331   0.723   6.055  10.125  0.7120  0.4741 -1.1960
  148SAPE   H2Y16332   0.554   6.044  10.065 -1.8200 -2.5901 -1.1421
  148SAPE   C2316333  -0.039   5.474  10.089  0.2467 -0.3586 -0.1621
  148SAPE   H3R16334  -0.109   5.560  10.093  0.5268 -0.1555  0.6561
  148SAPE   H3S16335  -0.046   5.418  10.185 -1.2284 -2.1781 -1.2778
  148SAPE   C2416336  -0.082   5.375   9.986 -0.0008  0.4417 -0.4132
  148SAPE   H4R16337  -0.086   5.436   9.894  4.7682  1.8246  0.0349
  148SAPE   H4S16338  -0.188   5.348  10.007  1.0758 -2.3248  2.3477
  148SAPE   C2516339   0.007   5.252   9.964  0.1794  0.3062 -0.0903
  148SAPE   H5R16340   0.050   5.206  10.055 -2.0137 -1.5071  0.1108
  148SAPE   C2616341   0.020   5.188   9.847  0.1666  0.4990  0.8896
  148SAPE   H6R16342   0.073   5.092   9.846 -0.2639  0.2284  1.9361
  148SAPE   C2716343  -0.040   5.234   9.719 -0.3366 -0.3855  0.1705
  148SAPE   H7R16344  -0.051   5.343   9.703 -0.8235 -0.4603 -0.0367
  148SAPE   H7S16345  -0.142   5.190   9.713 -0.3607 -0.4352  0.9273
  148SAPE   C2816346   0.041   5.192   9.601  0.3037  0.5415  0.9395
  148SAPE   H8R16347   0.148   5.176   9.618  0.5604 -0.3670 -1.1912
  148SAPE   C2916348  -0.005   5.172   9.472 -0.5338 -0.4555 -0.4088
  148SAPE   H9R16349   0.072   5.137   9.401  0.4816  1.6538 -0.4557
  148SAPE  C21016350  -0.151   5.171   9.425  0.3794 -0.1680  0.8798
  148SAPE  H10R16351  -0.218   5.181   9.513  0.3564  0.8629  0.7535
  148SAPE  H10S16352  -0.186   5.083   9.367  0.4893  0.0420  0.4954
  148SAPE  C21116353  -0.181   5.307   9.351 -0.2748  0.2127 -0.0385
  148SAPE  H11R16354  -0.209   5.383   9.425  1.5173  0.9192 -0.0393
  148SAPE  C21216355  -0.202   5.316   9.214 -0.0598 -0.4085 -0.7446
  148SAPE  H12R16356  -0.242   5.408   9.169 -1.1041 -0.6712 -0.3809
  148SAPE  C21316357  -0.163   5.216   9.114 -0.5013  0.0742 -0.4104
  148SAPE  H13R16358  -0.238   5.148   9.068  0.9206 -2.4304  0.7748
  148SAPE  H13S16359  -0.092   5.141   9.156 -2.0601 -0.1549  1.9986
  148SAPE  C21416360  -0.072   5.292   9.010  0.3589 -0.3725 -0.6402
  148SAPE  H14R16361   0.001   5.366   9.046 -2.3154  2.1906 -0.0733
  148SAPE  C21516362  -0.092   5.291   8.879 -0.0879 -0.2877 -0.3788
  148SAPE  H15R16363  -0.010   5.340   8.826  1.2421 -0.6120  1.3045
  148SAPE  C21616364  -0.192   5.217   8.795 -0.2143 -0.2355  0.3582
  148SAPE  H16R16365  -0.214   5.277   8.704 -0.7835 -2.5880 -1.1588
  148SAPE  H16S16366  -0.279   5.185   8.857 -0.0494  0.7155  1.0993
  148SAPE  C21716367  -0.127   5.093   8.737  0.3344  0.6107 -0.0405
  148SAPE  H17R16368  -0.095   5.025   8.819 -1.6576 -0.4256 -0.0832
  148SAPE  H17S16369  -0.044   5.122   8.669  0.0216  0.2688 -0.5735
  148SAPE  C21816370  -0.231   5.008   8.655 -0.6001  0.2443  0.6132
  148SAPE  H18R16371  -0.329   5.010   8.708 -0.5714  1.8780  0.6551
  148SAPE  H18S16372  -0.192   4.904   8.668  0.7290  0.6434 -0.0433
  148SAPE  C21916373  -0.243   5.045   8.512  0.1208  0.6976  0.5471
  148SAPE  H19R16374  -0.144   5.036   8.464 -0.3204 -0.5708 -0.1732
  148SAPE  H19S16375  -0.260   5.155   8.515 -0.0721  0.7177 -0.8568
  148SAPE  C22016376  -0.346   4.978   8.425  0.2016 -0.0565  0.6048
  148SAPE  H20R16377  -0.375   5.043   8.340  2.2024  0.6909  0.4327
  148SAPE  H20S16378  -0.442   4.969   8.480 -0.1291 -1.2837 -0.1474
  148SAPE  H20T16379  -0.322   4.877   8.387 -4.3853 -0.2305 -2.6172
  148SAPE   C3316380   0.689   5.966   9.922 -0.6196 -0.3229 -0.6457
  148SAPE   H3X16381   0.612   5.899   9.880 -1.4822  1.2879 -1.7097
  148SAPE   H3Y16382   0.792   5.926   9.912 -0.0922  0.3209  1.5792
  148SAPE   C3416383   0.676   6.085   9.829  0.3409 -0.0125 -0.1717
  148SAPE   H4X16384   0.731   6.177   9.858  1.0822 -0.6218  0.3933
  148SAPE   H4Y16385   0.567   6.106   9.831 -0.1458 -2.2768  1.2187
  148SAPE   C3516386   0.724   6.056   9.685 -0.3537 -0.5438 -0.3439
  148SAPE   H5X16387   0.684   5.958   9.650 -0.4310 -0.8194  0.5006
  148SAPE   H5Y16388   0.835   6.057   9.681 -0.3669 -0.1204 -0.6866
  148SAPE   C3616389   0.680   6.166   9.586  0.5822 -0.0133  0.0163
  148SAPE   H6X16390   0.733   6.262   9.598 -0.1714  0.2211  1.7323
  148SAPE   H6Y16391   0.576   6.202   9.604  0.9997  1.3181 -0.1890
  148SAPE   C3716392   0.683   6.123   9.445 -0.1093  0.1589 -0.1337
  148SAPE   H7X16393   0.639   6.022   9.429 -1.4984  0.7754 -0.3749
  148SAPE   H7Y16394   0.789   6.115   9.414 -0.7008  0.3289 -2.4316
  148SAPE   C3816395   0.624   6.220   9.340 -0.2976 -0.1212 -0.1988
  148SAPE   H8X16396   0.675   6.319   9.336 -1.3969  0.4398 -1.9132
  148SAPE   H8Y16397   0.516   6.233   9.362 -0.7103 -0.9290 -1.6279
  148SAPE   C3916398   0.618   6.151   9.208  0.0301  0.5452 -0.4941
  148SAPE   H9X16399   0.552   6.061   9.216  3.4460 -2.2074 -0.7670
  148SAPE   H9Y16400   0.721   6.117   9.184  0.0421  0.5375 -0.4301
  148SAPE  C31016401   0.572   6.223   9.081  0.4959 -0.1471  0.1613
  148SAPE  H10X16402   0.658   6.283   9.044 -0.4785 -0.1052 -2.2042
  148SAPE  H10Y16403   0.490   6.294   9.104 -1.3521 -2.1822  0.0912
  148SAPE  C31116404   0.547   6.124   8.959  0.6973  0.7035  0.8598
  148SAPE  H11X16405   0.463   6.061   8.995  0.0632  1.0785  0.0609
  148SAPE  H11Y16406   0.622   6.042   8.953  0.6997  0.5236  2.6832
  148SAPE  C31216407   0.514   6.179   8.821 -0.0448 -0.7899  0.5015
  148SAPE  H12X16408   0.596   6.245   8.785 -0.6676 -0.5567 -0.5368
  148SAPE  H12Y16409   0.429   6.248   8.839  0.6349  0.1061  0.3258
  148SAPE  C31316410   0.486   6.071   8.719 -0.3331  0.2124  0.0833
  148SAPE  H13X16411   0.413   5.999   8.762 -1.0266  2.0358  2.2122
  148SAPE  H13Y16412   0.579   6.011   8.712 -0.5354 -0.1073  0.1093
  148SAPE  C31416413   0.432   6.100   8.579 -0.7142 -0.5948  0.0622
  148SAPE  H14X16414   0.327   6.136   8.575 -0.2197  0.9277  0.1049
  148SAPE  H14Y16415   0.456   6.008   8.521  3.0254 -0.2354  0.7411
  148SAPE  C31516416   0.509   6.212   8.505  0.5103  0.1570 -0.0631
  148SAPE  H15X16417   0.619   6.209   8.524  0.2219  1.7412  2.3002
  148SAPE  H15Y16418   0.470   6.312   8.535 -2.4338 -1.0938  0.6435
  148SAPE  C31616419   0.484   6.201   8.355  0.2674  0.7745 -0.6506
  148SAPE  H16X16420   0.375   6.184   8.350  0.1294  1.4734 -0.2033
  148SAPE  H16Y16421   0.533   6.112   8.311 -1.5710 -0.2942 -0.6126
  148SAPE  C31716422   0.519   6.328   8.282 -0.5137  0.7559 -0.1053
  148SAPE  H17X16423   0.528   6.412   8.354 -1.6561 -0.3963  1.4458
  148SAPE  H17Y16424   0.439   6.360   8.212  0.7246 -0.8217 -2.3723
  148SAPE  C31816425   0.653   6.311   8.206 -0.0125 -0.0250  0.6459
  148SAPE  H18X16426   0.691   6.402   8.153 -0.5594 -1.2430 -1.9991
  148SAPE  H18Y16427   0.652   6.235   8.126 -0.5013  1.9134 -1.2945
  148SAPE  H18Z16428   0.735   6.273   8.270  0.4636  1.0178  0.6914
  149SAPE     N16429   1.443   2.056  10.757 -0.0910 -0.3884 -0.0465
  149SAPE   HN116430   1.399   2.150  10.762  1.9323  0.5528  2.2022
  149SAPE   HN216431   1.377   1.979  10.781  0.0314 -0.2588  0.7457
  149SAPE   HN316432   1.508   2.059  10.838 -0.8774  1.5100  0.5860
  149SAPE   C1216433   1.518   2.025  10.634 -0.2240  0.7897  0.6760
  149SAPE  H12A16434   1.571   1.928  10.646 -1.9736 -0.0577  2.0546
  149SAPE  H12B16435   1.599   2.101  10.637 -1.2076  1.8294  1.8546
  149SAPE   C1116436   1.435   2.032  10.505 -0.6849 -0.7998 -0.0173
  149SAPE  H11A16437   1.507   2.036  10.420 -0.6692 -1.8244 -0.0574
  149SAPE  H11B16438   1.377   2.126  10.494 -0.2603 -0.7648 -2.4828
  149SAPE     P16439   1.379   1.798  10.434 -0.3380 -0.2498 -0.1900
  149SAPE   O1316440   1.465   1.725  10.530  0.2040  0.3224 -0.3134
  149SAPE   O1416441   1.262   1.726  10.390  0.3819  0.3082  0.1973
  149SAPE   O1216442   1.339   1.934  10.496  0.6943  0.1432  0.2698
  149SAPE   O1116443   1.475   1.821  10.314  0.9633 -0.4890  0.5244
  149SAPE    C116444   1.432   1.905  10.202 -0.3196 -0.4161  0.6578
  149SAPE    HA16445   1.333   1.951  10.224  0.5242  0.5007  2.8530
  149SAPE    HB16446   1.506   1.987  10.189  0.4505 -1.1799  0.0948
  149SAPE    C216447   1.435   1.830  10.069 -0.0760  0.1020  0.3259
  149SAPE    HS16448   1.392   1.728  10.069 -0.1860  0.1379  1.2231
  149SAPE   O2116449   1.568   1.826  10.015  0.2201  0.1701 -0.2265
  149SAPE   C2116450   1.636   1.709  10.032  0.1554  0.2830 -0.2407
  149SAPE   O2216451   1.587   1.599  10.060 -0.2988 -0.4288  0.2340
  149SAPE   C2216452   1.781   1.731   9.988 -0.0369 -0.3203  0.3250
  149SAPE   H2R16453   1.793   1.834   9.946  0.5185 -0.4385  0.1923
  149SAPE   H2S16454   1.845   1.716  10.078  0.8580  0.5245 -0.1443
  149SAPE    C316455   1.328   1.896   9.978  0.1460 -0.0773  0.3012
  149SAPE    HX16456   1.353   2.004   9.974  1.2709 -0.3204  0.3671
  149SAPE    HY16457   1.227   1.873  10.018 -0.4243 -0.1960 -1.1414
  149SAPE   O3116458   1.328   1.825   9.853  0.2976 -0.0666 -0.3267
  149SAPE   C3116459   1.304   1.892   9.737  0.3414 -0.1886 -0.7888
  149SAPE   O3216460   1.276   2.007   9.720 -0.6585 -0.3687  0.0856
  149SAPE   C3216461   1.311   1.777   9.633  0.4160  0.0525 -0.3253
  149SAPE   H2X16462   1.234   1.702   9.661 -0.6113  0.9164 -0.7468
  149SAPE   H2Y16463   1.415   1.741   9.648  0.0712 -1.5892 -1.5273
  149SAPE   C2316464   1.816   1.637   9.873 -0.3923 -0.0700  0.4455
  149SAPE   H3R16465   1.808   1.532   9.909 -2.0877 -0.0907  0.0910
  149SAPE   H3S16466   1.920   1.650   9.836 -0.9451  0.2841 -1.0445
  149SAPE   C2416467   1.727   1.651   9.739  0.3087  0.0893 -0.2707
  149SAPE   H4R16468   1.711   1.761   9.730 -0.7940 -0.0179  0.2393
  149SAPE   H4S16469   1.626   1.605   9.749  0.4967 -0.7168 -1.8691
  149SAPE   C2516470   1.798   1.583   9.623 -0.3934  0.4487 -0.3421
  149SAPE   H5R16471   1.827   1.479   9.647 -1.5230  0.0600 -0.5694
  149SAPE   C2616472   1.837   1.626   9.504 -0.2954  0.6978  0.0201
  149SAPE   H6R16473   1.901   1.566   9.438 -1.0133  0.5047 -0.5033
  149SAPE   C2716474   1.806   1.764   9.448 -0.4476 -0.2006 -0.1836
  149SAPE   H7R16475   1.793   1.834   9.533  0.1398  0.5747 -0.7179
  149SAPE   H7S16476   1.701   1.747   9.415 -0.8816 -0.1806  1.1205
  149SAPE   C2816477   1.902   1.825   9.344  0.4427  0.1513 -0.3669
  149SAPE   H8R16478   2.009   1.805   9.362  0.3296 -0.5053 -0.3888
  149SAPE   C2916479   1.864   1.856   9.215 -0.3238 -0.5602 -0.6637
  149SAPE   H9R16480   1.944   1.892   9.148 -0.5785 -0.1687 -0.7578
  149SAPE  C21016481   1.724   1.863   9.163 -0.2948 -0.3512 -0.5722
  149SAPE  H10R16482   1.733   1.941   9.085  0.5911 -0.1312 -0.2607
  149SAPE  H10S16483   1.655   1.893   9.245  0.1610 -1.4691  0.2521
  149SAPE  C21116484   1.674   1.728   9.115  0.3415  0.4509 -0.0772
  149SAPE  H11R16485   1.631   1.665   9.194  1.6167  1.9540  1.9235
  149SAPE  C21216486   1.676   1.680   8.986  0.0605  0.2509 -0.1983
  149SAPE  H12R16487   1.640   1.578   8.966  1.6351 -0.2806 -0.4924
  149SAPE  C21316488   1.750   1.749   8.878  0.2118  0.4996  0.0608
  149SAPE  H13R16489   1.833   1.685   8.841 -0.2236 -0.1501  0.1945
  149SAPE  H13S16490   1.819   1.826   8.920  0.6763 -0.3906  0.9758
  149SAPE  C21416491   1.667   1.807   8.770  1.3860  0.2151  0.1062
  149SAPE  H14R16492   1.603   1.891   8.800  2.5430  1.6350 -1.1911
  149SAPE  C21516493   1.687   1.783   8.639 -0.6331  0.0433  0.3266
  149SAPE  H15R16494   1.639   1.857   8.574 -1.2673  0.5249  1.3211
  149SAPE  C21616495   1.786   1.682   8.583 -0.7562 -0.3506  0.0397
  149SAPE  H16R16496   1.742   1.645   8.488  0.2031 -0.1432 -0.4992
  149SAPE  H16S16497   1.789   1.594   8.651 -1.3231  0.2020  0.7945
  149SAPE  C21716498   1.925   1.739   8.552 -0.4649  0.2816 -0.4852
  149SAPE  H17R16499   1.999   1.669   8.508  1.9088  1.1817  1.7587
  149SAPE  H17S16500   1.966   1.777   8.648 -0.1654 -0.2123 -0.4141
  149SAPE  C21816501   1.918   1.857   8.450  1.0446  0.7412  0.1654
  149SAPE  H18R16502   2.021   1.898   8.440  1.0079  0.2222 -4.1413
  149SAPE  H18S16503   1.854   1.937   8.492 -1.1734 -1.0510  0.3545
  149SAPE  C21916504   1.860   1.827   8.308 -0.1551 -0.7797 -0.5949
  149SAPE  H19R16505   1.755   1.796   8.326 -0.0720 -1.0454 -0.5647
  149SAPE  H19S16506   1.918   1.741   8.270 -0.0006 -0.3972 -1.2387
  149SAPE  C22016507   1.874   1.953   8.213 -0.3545  0.6483  0.4227
  149SAPE  H20R16508   1.836   2.043   8.266  0.1583 -0.3941  2.6835
  149SAPE  H20S16509   1.812   1.922   8.126 -0.6287 -0.7694  1.1047
  149SAPE  H20T16510   1.981   1.975   8.195 -0.0597 -0.2580  1.0047
  149SAPE   C3316511   1.296   1.830   9.497  0.3723 -0.8577 -0.4753
  149SAPE   H3X16512   1.379   1.898   9.468 -0.6135  0.6690  0.1556
  149SAPE   H3Y16513   1.206   1.895   9.495  1.3567  0.5727 -0.3661
  149SAPE   C3416514   1.276   1.712   9.399  1.0098  0.7395  0.6586
  149SAPE   H4X16515   1.264   1.743   9.293 -0.2102  0.3472  0.6662
  149SAPE   H4Y16516   1.185   1.651   9.416  1.9400 -1.5615 -1.7907
  149SAPE   C3516517   1.389   1.602   9.397 -0.8634 -0.0055  0.2334
  149SAPE   H5X16518   1.416   1.556   9.494 -0.6292  2.3195  1.3395
  149SAPE   H5Y16519   1.480   1.657   9.364  0.3696 -0.7622  2.1822
  149SAPE   C3616520   1.363   1.488   9.298 -0.3785  0.2175  0.2259
  149SAPE   H6X16521   1.273   1.430   9.329 -0.8401  0.8115  0.0167
  149SAPE   H6Y16522   1.432   1.402   9.313  0.1591  0.7479  0.9017
  149SAPE   C3716523   1.356   1.527   9.150  0.0444  0.4314 -0.0807
  149SAPE   H7X16524   1.457   1.566   9.128  0.8596 -1.2902  0.4686
  149SAPE   H7Y16525   1.275   1.603   9.142  0.8004  1.5344  2.0207
  149SAPE   C3816526   1.334   1.416   9.039  0.6976 -0.0936 -0.2250
  149SAPE   H8X16527   1.235   1.374   9.069  1.1279 -1.1536 -0.2509
  149SAPE   H8Y16528   1.405   1.331   9.048 -0.4607 -1.1951 -0.9655
  149SAPE   C3916529   1.330   1.461   8.892 -0.0978  0.6126  0.1189
  149SAPE   H9X16530   1.319   1.371   8.828  0.8586  0.7669 -0.2662
  149SAPE   H9Y16531   1.418   1.524   8.870  0.5480 -0.6296 -0.9436
  149SAPE  C31016532   1.201   1.541   8.878 -0.7518 -0.0521  0.1239
  149SAPE  H10X16533   1.207   1.631   8.943  1.3621 -1.1039  1.4948
  149SAPE  H10Y16534   1.115   1.478   8.910 -0.3703 -1.5379 -1.6598
  149SAPE  C31116535   1.167   1.574   8.735  0.3315  0.1059  0.4521
  149SAPE  H11X16536   1.061   1.608   8.728  1.1390  3.4829  2.2748
  149SAPE  H11Y16537   1.192   1.498   8.659  1.4062  0.6347  0.2514
  149SAPE  C31216538   1.260   1.685   8.686 -0.0733 -0.7686  0.3740
  149SAPE  H12X16539   1.359   1.642   8.660  0.3876 -0.0581  0.8979
  149SAPE  H12Y16540   1.293   1.747   8.772  0.2810  0.3269 -0.5208
  149SAPE  C31316541   1.214   1.779   8.571  0.1897 -0.2088 -0.3529
  149SAPE  H13X16542   1.138   1.854   8.601  1.1157  1.1822 -1.3635
  149SAPE  H13Y16543   1.176   1.735   8.477  2.8918  1.9288 -2.6581
  149SAPE  C31416544   1.333   1.862   8.527  0.1128 -0.4815  0.0194
  149SAPE  H14X16545   1.397   1.813   8.451  1.0358 -0.4346  0.7489
  149SAPE  H14Y16546   1.411   1.855   8.606  0.3309 -1.3337 -0.2573
  149SAPE  C31516547   1.298   2.005   8.492  0.4708  0.1683 -0.6595
  149SAPE  H15X16548   1.215   2.027   8.563 -0.2398 -2.8625 -0.4193
  149SAPE  H15Y16549   1.253   1.999   8.390 -0.7461 -0.6943 -0.0958
  149SAPE  C31616550   1.423   2.095   8.508 -0.4319  0.1349  0.2537
  149SAPE  H16X16551   1.489   2.074   8.421 -1.4597  0.2099 -0.5618
  149SAPE  H16Y16552   1.476   2.058   8.598  1.4886 -1.2426 -1.3420
  149SAPE  C31716553   1.396   2.243   8.506 -0.2335 -0.7844 -0.2658
  149SAPE  H17X16554   1.353   2.266   8.606  1.6879  0.5420  0.3179
  149SAPE  H17Y16555   1.314   2.252   8.431 -0.5567 -1.4840 -0.0098
  149SAPE  C31816556   1.524   2.330   8.473 -0.1923 -0.6112 -0.7683
  149SAPE  H18X16557   1.551   2.306   8.368 -0.8836 -0.8017 -0.9060
  149SAPE  H18Y16558   1.609   2.303   8.539 -1.4745 -1.4802  0.5857
  149SAPE  H18Z16559   1.494   2.437   8.471 -0.3841 -0.4400  3.0903
  150SAPE     N16560   2.149   1.446  10.713 -0.4207 -0.0096 -0.1024
  150SAPE   HN116561   2.121   1.480  10.619 -0.2267 -1.5366 -0.7350
  150SAPE   HN216562   2.110   1.350  10.720 -2.2852  0.7789  0.8524
  150SAPE   HN316563   2.103   1.498  10.790 -3.3094  0.4128 -1.9736
  150SAPE   C1216564   2.297   1.445  10.716 -0.3038 -0.1052  0.3115
  150SAPE  H12A16565   2.338   1.401  10.623 -3.2652 -0.7060 -0.8267
  150SAPE  H12B16566   2.333   1.393  10.808 -0.3719 -1.6420 -0.4864
  150SAPE   C1116567   2.340   1.590  10.734  0.0080 -1.0252 -0.0428
  150SAPE  H11A16568   2.442   1.587  10.779  0.5381 -1.4733 -1.2248
  150SAPE  H11B16569   2.279   1.641  10.811  1.2702 -0.0527  0.3643
  150SAPE     P16570   2.346   1.818  10.602 -0.5315 -0.0312  0.2735
  150SAPE   O1316571   2.227   1.878  10.548 -0.3511 -0.4781  0.6213
  150SAPE   O1416572   2.390   1.870  10.735 -0.0944  0.1763 -0.5385
  150SAPE   O1216573   2.336   1.656  10.603 -0.6646  0.4839 -1.0795
  150SAPE   O1116574   2.462   1.843  10.500 -0.1792  0.8905  0.4507
  150SAPE    C116575   2.577   1.765  10.492 -0.5346 -0.4157 -0.2543
  150SAPE    HA16576   2.660   1.837  10.511 -2.1330  0.7617  3.0976
  150SAPE    HB16577   2.581   1.690  10.573 -2.0004 -0.4847 -0.2172
  150SAPE    C216578   2.604   1.706  10.350  0.1178 -0.0872 -0.2879
  150SAPE    HS16579   2.712   1.687  10.334 -0.0999 -1.3494 -0.3593
  150SAPE   O2116580   2.545   1.799  10.247  0.1574 -0.4388 -0.3109
  150SAPE   C2116581   2.622   1.898  10.225  0.3216 -0.1305 -0.5440
  150SAPE   O2216582   2.724   1.920  10.286  0.2691 -0.0051  0.2690
  150SAPE   C2216583   2.583   1.963  10.102  0.2226 -0.0279  0.4581
  150SAPE   H2R16584   2.476   1.994  10.093  0.1575 -0.6094 -1.0048
  150SAPE   H2S16585   2.650   2.051  10.096  0.3973 -0.1292  0.9582
  150SAPE    C316586   2.540   1.563  10.338 -0.4975  0.2445  0.3343
  150SAPE    HX16587   2.429   1.569  10.348 -0.2888  0.4104  3.6147
  150SAPE    HY16588   2.572   1.503  10.426  0.4128  1.0362  0.5557
  150SAPE   O3116589   2.594   1.509  10.216  0.1073  0.2127 -0.0595
  150SAPE   C3116590   2.514   1.498  10.107  0.1780  0.5694  0.5095
  150SAPE   O3216591   2.392   1.513  10.100  0.2205  0.1285  0.0307
  150SAPE   C3216592   2.601   1.446  10.005 -1.5259 -0.0041  0.0088
  150SAPE   H2X16593   2.571   1.341   9.986  2.4516 -1.3007  0.1274
  150SAPE   H2Y16594   2.707   1.439  10.036 -2.1586 -1.8624  2.0597
  150SAPE   C2316595   2.624   1.881   9.975 -0.6443  0.2933  0.1763
  150SAPE   H3R16596   2.597   1.774   9.982  3.2854 -0.9310 -0.8095
  150SAPE   H3S16597   2.734   1.887   9.964 -0.4655  1.5995  2.1870
  150SAPE   C2416598   2.563   1.944   9.849  0.6051 -0.8837 -0.3633
  150SAPE   H4R16599   2.453   1.939   9.856  0.6376 -0.8736  0.1803
  150SAPE   H4S16600   2.598   1.884   9.763  0.8424 -1.1742 -0.0663
  150SAPE   C2516601   2.617   2.085   9.823 -0.5054 -0.4403 -0.2538
  150SAPE   H5R16602   2.595   2.169   9.890 -0.4815  0.2545 -1.1027
  150SAPE   C2616603   2.702   2.109   9.726 -0.3385  0.9515  0.0165
  150SAPE   H6R16604   2.732   2.211   9.700 -1.0364  0.4974 -2.9710
  150SAPE   C2716605   2.753   2.013   9.613 -0.1709 -0.9380  0.2338
  150SAPE   H7R16606   2.683   2.013   9.526  0.0447 -1.2150  0.0588
  150SAPE   H7S16607   2.765   1.910   9.653 -0.1245 -1.2558 -0.5727
  150SAPE   C2816608   2.891   2.053   9.566 -0.3680  0.1695  0.4323
  150SAPE   H8R16609   2.968   2.025   9.640  0.5321  1.0117 -0.1559
  150SAPE   C2916610   2.932   2.105   9.446 -0.4126  0.7497 -0.3116
  150SAPE   H9R16611   3.039   2.123   9.431 -0.4861  0.7227 -0.8843
  150SAPE  C21016612   2.857   2.152   9.324 -0.5254  0.4799 -0.2215
  150SAPE  H10R16613   2.751   2.118   9.328 -1.0977  2.1929  0.0536
  150SAPE  H10S16614   2.902   2.104   9.235 -0.2962  2.9716 -1.5351
  150SAPE  C21116615   2.857   2.303   9.317 -1.3233 -0.2666  0.2149
  150SAPE  H11R16616   2.871   2.355   9.413 -0.2315  0.5224 -0.3576
  150SAPE  C21216617   2.841   2.380   9.209 -0.9780  0.0830  0.0476
  150SAPE  H12R16618   2.851   2.490   9.217 -1.9627  0.1035  1.3442
  150SAPE  C21316619   2.820   2.324   9.077 -0.1196  0.5653  1.1313
  150SAPE  H13R16620   2.783   2.220   9.070 -1.2761  1.0418 -0.7189
  150SAPE  H13S16621   2.908   2.341   9.011 -0.2896 -0.6856  0.5641
  150SAPE  C21416622   2.712   2.412   9.028 -0.0813 -0.1290 -0.2661
  150SAPE  H14R16623   2.613   2.394   9.073  0.5805 -0.0381  1.3122
  150SAPE  C21516624   2.712   2.497   8.922 -0.5199  0.1387  0.3854
  150SAPE  H15R16625   2.616   2.548   8.902 -0.9917  0.7326  3.6648
  150SAPE  C21616626   2.823   2.546   8.827  0.1376  0.7872 -0.4535
  150SAPE  H16R16627   2.906   2.472   8.834 -0.9224 -0.3046  0.9897
  150SAPE  H16S16628   2.869   2.632   8.879 -1.1371  0.4947  1.2327
  150SAPE  C21716629   2.771   2.572   8.682  0.1811 -0.8247  0.4212
  150SAPE  H17R16630   2.859   2.621   8.635  1.0698 -0.8551  1.9997
  150SAPE  H17S16631   2.684   2.638   8.663  1.0507  0.2702  0.1730
  150SAPE  C21816632   2.750   2.443   8.604  0.3827 -0.2667  0.6475
  150SAPE  H18R16633   2.689   2.363   8.650 -1.9972  1.1563  0.1259
  150SAPE  H18S16634   2.856   2.408   8.598  1.1999  1.8072  1.8808
  150SAPE  C21916635   2.688   2.485   8.476  0.6843  0.4846  0.1533
  150SAPE  H19R16636   2.748   2.553   8.412  1.3003 -1.7317 -1.7704
  150SAPE  H19S16637   2.602   2.551   8.498  0.9491  0.0373  2.9669
  150SAPE  C22016638   2.658   2.368   8.382 -0.2694  0.5537 -0.1043
  150SAPE  H20R16639   2.575   2.309   8.426  0.2649  0.0021  0.1834
  150SAPE  H20S16640   2.753   2.320   8.350  0.0100  2.5461 -2.6427
  150SAPE  H20T16641   2.612   2.405   8.288  0.2256  0.1129 -0.5285
  150SAPE   C3316642   2.600   1.529   9.868  0.1595  0.2004  0.0758
  150SAPE   H3X16643   2.663   1.621   9.874 -0.2949  0.6971 -2.0803
  150SAPE   H3Y16644   2.492   1.551   9.851  0.4836  1.0689 -0.9536
  150SAPE   C3416645   2.652   1.448   9.744  0.4086  0.3245  0.5025
  150SAPE   H4X16646   2.570   1.384   9.706  0.1357  0.0844  1.4659
  150SAPE   H4Y16647   2.740   1.384   9.768  0.7831  0.9529  0.8191
  150SAPE   C3516648   2.687   1.548   9.638  0.1243 -0.1169  0.3922
  150SAPE   H5X16649   2.771   1.616   9.664  1.2804 -1.7141  0.9736
  150SAPE   H5Y16650   2.607   1.622   9.619 -0.1512  0.0114  1.9159
  150SAPE   C3616651   2.717   1.480   9.508 -0.3356  0.8961 -0.5423
  150SAPE   H6X16652   2.630   1.425   9.465 -0.7325 -1.3384  2.6999
  150SAPE   H6Y16653   2.775   1.394   9.548 -1.4726  1.0952  1.7059
  150SAPE   C3716654   2.800   1.559   9.409  0.9084 -0.3543  0.5668
  150SAPE   H7X16655   2.905   1.572   9.444 -0.0059  1.9190  2.8422
  150SAPE   H7Y16656   2.748   1.656   9.389  1.9069 -0.1868 -1.4193
  150SAPE   C3816657   2.807   1.481   9.274 -0.3221 -0.0349 -0.0967
  150SAPE   H8X16658   2.705   1.467   9.231 -0.5196 -1.1762  0.6836
  150SAPE   H8Y16659   2.855   1.382   9.289 -0.3224 -0.1716 -0.9810
  150SAPE   C3916660   2.894   1.546   9.169 -0.6467  0.1583 -0.1405
  150SAPE   H9X16661   2.997   1.507   9.181 -0.4886  0.2189 -1.2073
  150SAPE   H9Y16662   2.898   1.655   9.192 -0.1971  0.3366 -1.0377
  150SAPE  C31016663   2.847   1.520   9.028  0.5246 -0.4156 -0.8117
  150SAPE  H10X16664   2.752   1.575   9.013 -0.0648 -1.1964 -0.0773
  150SAPE  H10Y16665   2.812   1.415   9.013 -1.4653  0.0351  0.4019
  150SAPE  C31116666   2.945   1.546   8.915  0.8565  0.2816  0.0053
  150SAPE  H11X16667   3.020   1.465   8.913  2.4111  1.6518  0.5427
  150SAPE  H11Y16668   2.997   1.644   8.927  1.1824 -0.1502  2.7524
  150SAPE  C31216669   2.876   1.535   8.776 -0.5577 -0.2317  0.1317
  150SAPE  H12X16670   2.802   1.615   8.755  0.3456  0.6237  0.0989
  150SAPE  H12Y16671   2.827   1.437   8.761  1.7834 -1.5614  0.6077
  150SAPE  C31316672   2.977   1.546   8.655  0.6144 -0.2653 -0.3316
  150SAPE  H13X16673   2.927   1.528   8.557 -1.8218  1.1087  0.5785
  150SAPE  H13Y16674   3.056   1.472   8.679 -0.1544 -1.0352 -0.1115
  150SAPE  C31416675   3.033   1.685   8.640  0.4493  0.5934 -0.1607
  150SAPE  H14X16676   3.077   1.722   8.735 -2.2714  0.7205  1.1320
  150SAPE  H14Y16677   2.953   1.759   8.618  1.1718  1.4291 -0.0107
  150SAPE  C31516678   3.129   1.690   8.523  0.3065 -0.6843  0.3786
  150SAPE  H15X16679   3.167   1.795   8.524  2.0367 -1.2765  1.4627
  150SAPE  H15Y16680   3.096   1.659   8.421  2.1515 -2.7672  0.3322
  150SAPE  C31616681   3.260   1.609   8.544 -0.1932  0.5684 -0.0794
  150SAPE  H16X16682   3.335   1.638   8.468 -1.0570  2.1976 -0.3644
  150SAPE  H16Y16683   3.237   1.504   8.516 -0.8011  0.4363  0.8620
  150SAPE  C31716684   3.328   1.633   8.681  0.3789 -0.4662 -0.2806
  150SAPE  H17X16685   3.407   1.558   8.703  2.6355  2.0431  0.7685
  150SAPE  H17Y16686   3.266   1.623   8.772  0.9587  0.0391  0.1779
  150SAPE  C31816687   3.409   1.762   8.687 -0.2247  0.0134  0.5051
  150SAPE  H18X16688   3.346   1.844   8.647  1.2668 -0.6028 -3.7010
  150SAPE  H18Y16689   3.476   1.757   8.599 -0.9182 -0.2346 -0.0266
  150SAPE  H18Z16690   3.460   1.782   8.783  1.1093 -2.4436  0.4042
  151SAPE     N16691   2.052   6.314  10.283  0.2374 -0.3159  0.1526
  151SAPE   HN116692   1.994   6.394  10.249  0.5567  0.5591  1.6012
  151SAPE   HN216693   2.106   6.339  10.368  0.3553 -2.6552  0.8514
  151SAPE   HN316694   2.118   6.287  10.208  1.5696  1.9774  0.4096
  151SAPE   C1216695   1.954   6.203  10.315  0.3109 -0.2085 -0.0191
  151SAPE  H12A16696   1.917   6.219  10.419  0.1229  0.5759 -0.1989
  151SAPE  H12B16697   2.012   6.108  10.310  0.0673 -0.5286  2.1147
  151SAPE   C1116698   1.833   6.214  10.218 -0.4691  0.0666 -0.6004
  151SAPE  H11A16699   1.773   6.121  10.221  0.1865 -0.3402  1.9059
  151SAPE  H11B16700   1.871   6.209  10.113 -0.7044 -1.9174 -0.6245
  151SAPE     P16701   1.608   6.324  10.284 -0.2061  0.0976  0.1218
  151SAPE   O1316702   1.600   6.235  10.402 -0.4859  0.3345 -0.4334
  151SAPE   O1416703   1.553   6.462  10.289  0.4553  0.8764  0.3618
  151SAPE   O1216704   1.755   6.329  10.238  0.3082  0.4090 -0.1048
  151SAPE   O1116705   1.543   6.250  10.161  0.0185  0.1420  0.2221
  151SAPE    C116706   1.507   6.313  10.037  0.7201 -0.4350 -0.5766
  151SAPE    HA16707   1.401   6.348  10.034  0.1706 -2.0569 -0.9476
  151SAPE    HB16708   1.572   6.401  10.020  0.3063 -0.2764 -1.3691
  151SAPE    C216709   1.525   6.208   9.924  0.8351  0.2733  0.4269
  151SAPE    HS16710   1.531   6.253   9.823 -0.8402 -1.2779 -0.4146
  151SAPE   O2116711   1.410   6.119   9.925  0.0792 -0.2064  0.3620
  151SAPE   C2116712   1.304   6.163   9.852  0.7314  0.6194 -0.0263
  151SAPE   O2216713   1.302   6.276   9.804  0.4742 -0.3576 -0.0589
  151SAPE   C2216714   1.180   6.066   9.842 -0.1421 -0.3564 -0.4277
  151SAPE   H2R16715   1.109   6.136   9.890  1.7941  1.6341 -0.3123
  151SAPE   H2S16716   1.160   6.050   9.734  1.7188 -0.4666 -0.7857
  151SAPE    C316717   1.646   6.121   9.938 -0.9116  0.0553  0.0631
  151SAPE    HX16718   1.642   6.070  10.036 -1.2807 -1.1802 -0.5756
  151SAPE    HY16719   1.734   6.188   9.937  1.4009 -2.6226 -3.9958
  151SAPE   O3116720   1.676   6.020   9.839  0.3707 -0.1574 -0.1787
  151SAPE   C3116721   1.797   5.972   9.830 -0.0021 -0.2840  0.1301
  151SAPE   O3216722   1.886   5.982   9.917  0.2037 -0.1439 -0.1394
  151SAPE   C3216723   1.816   5.894   9.699 -0.4924 -0.1088 -0.4804
  151SAPE   H2X16724   1.734   5.819   9.696 -1.4766  0.9671 -2.7375
  151SAPE   H2Y16725   1.911   5.839   9.711 -0.8368 -0.7363 -0.5975
  151SAPE   C2316726   1.199   5.947   9.929 -0.0377  0.0943 -0.1209
  151SAPE   H3R16727   1.242   5.966  10.029  1.6435 -0.5174 -0.6864
  151SAPE   H3S16728   1.287   5.894   9.887  1.0247  0.3863  1.6550
  151SAPE   C2416729   1.079   5.854   9.935  0.5093 -0.5582  0.5566
  151SAPE   H4R16730   1.046   5.840   9.830  0.2735 -2.2095  0.8188
  151SAPE   H4S16731   0.995   5.897   9.993  1.4063 -0.1939  1.6166
  151SAPE   C2516732   1.125   5.722  10.003 -0.8996  0.4046  0.4736
  151SAPE   H5R16733   1.191   5.740  10.089  2.2172  1.7021 -1.9832
  151SAPE   C2616734   1.078   5.599   9.971  0.3439 -0.1426  0.3115
  151SAPE   H6R16735   1.109   5.507  10.023 -2.3029 -1.6959 -0.6308
  151SAPE   C2716736   0.978   5.564   9.859 -0.5319 -0.2665 -0.2162
  151SAPE   H7R16737   1.004   5.465   9.815 -0.2014 -0.0043 -0.6169
  151SAPE   H7S16738   0.993   5.626   9.769 -0.3731  3.4109  2.1492
  151SAPE   C2816739   0.828   5.569   9.899  0.1250 -0.7472 -0.0067
  151SAPE   H8R16740   0.800   5.517   9.992 -1.9840  1.7486  0.8706
  151SAPE   C2916741   0.729   5.617   9.821  0.0286  0.0333  0.1889
  151SAPE   H9R16742   0.626   5.624   9.859  0.3050 -0.9118  1.1676
  151SAPE  C21016743   0.749   5.663   9.676 -0.5647  0.0060 -0.3120
  151SAPE  H10R16744   0.852   5.701   9.658 -0.6814  0.7119  0.4634
  151SAPE  H10S16745   0.688   5.756   9.676  0.7492  0.9070  0.3726
  151SAPE  C21116746   0.692   5.575   9.565  0.1203  0.1383  0.1190
  151SAPE  H11R16747   0.662   5.472   9.591 -0.5523  0.4234  0.4809
  151SAPE  C21216748   0.672   5.611   9.434  0.9501  0.7584  0.5863
  151SAPE  H12R16749   0.629   5.540   9.362  2.5100  0.5484 -0.2053
  151SAPE  C21316750   0.719   5.743   9.375  0.1058  0.0905  0.1501
  151SAPE  H13R16751   0.778   5.801   9.449  0.6752 -0.4117  0.0906
  151SAPE  H13S16752   0.634   5.806   9.342 -0.0927  0.6139  1.5759
  151SAPE  C21416753   0.802   5.720   9.257 -0.0129  0.1990  0.2090
  151SAPE  H14R16754   0.909   5.711   9.282  0.3079  0.4664 -1.0060
  151SAPE  C21516755   0.769   5.710   9.122  0.0437 -0.8329 -0.6112
  151SAPE  H15R16756   0.846   5.693   9.045  1.1517  2.0617 -0.2707
  151SAPE  C21616757   0.631   5.726   9.061  0.2429 -0.4775  0.2831
  151SAPE  H16R16758   0.581   5.813   9.109  0.6092 -0.8642  1.3944
  151SAPE  H16S16759   0.568   5.636   9.074 -1.0874  0.7295  2.9841
  151SAPE  C21716760   0.622   5.750   8.914  0.6647  0.0263  0.2544
  151SAPE  H17R16761   0.702   5.824   8.889  0.5255 -0.9353 -3.7002
  151SAPE  H17S16762   0.536   5.815   8.887 -0.3736 -1.1101  0.7272
  151SAPE  C21816763   0.617   5.623   8.833 -0.3234 -0.0024 -0.3017
  151SAPE  H18R16764   0.540   5.625   8.753 -1.2682  0.5603  0.5980
  151SAPE  H18S16765   0.609   5.528   8.891 -2.7636 -0.6696 -1.6020
  151SAPE  C21916766   0.752   5.611   8.759 -0.0858  0.7845  0.3181
  151SAPE  H19R16767   0.824   5.584   8.840 -0.1230  0.5632  0.2782
  151SAPE  H19S16768   0.774   5.713   8.719 -0.2452  0.8100  0.2942
  151SAPE  C22016769   0.759   5.508   8.640 -0.2103  0.0306 -0.6540
  151SAPE  H20R16770   0.861   5.501   8.597 -0.8370  0.5422 -2.3009
  151SAPE  H20S16771   0.690   5.542   8.560 -2.2282  1.3863  1.4863
  151SAPE  H20T16772   0.729   5.408   8.677 -1.2710  0.0318 -1.4755
  151SAPE   C3316773   1.822   5.987   9.579 -0.9105  0.4405  0.3148
  151SAPE   H3X16774   1.903   6.060   9.600 -0.8423  0.4216  0.1237
  151SAPE   H3Y16775   1.729   6.045   9.565 -1.9386 -1.0758  0.6017
  151SAPE   C3416776   1.834   5.913   9.448  0.4354  0.2185 -0.2430
  151SAPE   H4X16777   1.743   5.850   9.439  0.4256  0.1586  0.2880
  151SAPE   H4Y16778   1.921   5.844   9.444  0.7809  0.4943 -5.5223
  151SAPE   C3516779   1.836   6.008   9.327  0.0477  0.0234 -0.1868
  151SAPE   H5X16780   1.927   6.069   9.308 -0.0709 -0.2261 -1.7530
  151SAPE   H5Y16781   1.753   6.081   9.340 -1.9213 -2.4326  2.3557
  151SAPE   C3616782   1.822   5.928   9.198 -0.1557  0.8611  0.2260
  151SAPE   H6X16783   1.738   5.856   9.211  1.1364 -1.2985 -2.4165
  151SAPE   H6Y16784   1.913   5.866   9.184  0.0780  1.9691 -5.8744
  151SAPE   C3716785   1.792   6.006   9.063 -0.2201 -0.7306 -0.4191
  151SAPE   H7X16786   1.874   6.081   9.069 -0.9665  0.0208  0.9317
  151SAPE   H7Y16787   1.698   6.065   9.077 -0.9735 -2.3815  2.0801
  151SAPE   C3816788   1.791   5.915   8.945  0.1282  0.6511 -0.0784
  151SAPE   H8X16789   1.700   5.852   8.945  0.6957 -0.2177 -1.3970
  151SAPE   H8Y16790   1.873   5.841   8.934 -0.4605  0.3658 -3.9826
  151SAPE   C3916791   1.790   5.998   8.810  0.1022  0.6121 -0.7083
  151SAPE   H9X16792   1.894   5.995   8.772  0.1217 -1.0725 -0.6084
  151SAPE   H9Y16793   1.770   6.105   8.829 -1.8532  0.4822 -1.7621
  151SAPE  C31016794   1.679   5.937   8.708 -0.6507 -0.0434  0.4308
  151SAPE  H10X16795   1.574   5.946   8.742 -1.0803  1.4931 -1.1422
  151SAPE  H10Y16796   1.720   5.836   8.685  0.7176  0.9170 -1.6872
  151SAPE  C31116797   1.678   6.017   8.586 -0.3083 -0.5000 -0.3748
  151SAPE  H11X16798   1.779   6.033   8.542 -1.2641  1.7772 -1.9037
  151SAPE  H11Y16799   1.640   6.120   8.601 -0.2897 -0.5448 -0.0085
  151SAPE  C31216800   1.587   5.967   8.473  0.4230 -0.4161  0.0635
  151SAPE  H12X16801   1.569   6.045   8.396  0.3531  1.2737  1.7051
  151SAPE  H12Y16802   1.487   5.945   8.514 -0.7470  1.8733 -1.3159
  151SAPE  C31316803   1.638   5.842   8.402 -0.0709 -0.3237  0.1866
  151SAPE  H13X16804   1.679   5.771   8.477 -1.7006 -1.9564 -0.3962
  151SAPE  H13Y16805   1.719   5.854   8.328  0.3574 -2.0416  0.3462
  151SAPE  C31416806   1.523   5.760   8.327  0.2543 -0.0983 -0.4071
  151SAPE  H14X16807   1.462   5.705   8.402  1.5297  0.0632  0.7851
  151SAPE  H14Y16808   1.567   5.685   8.259 -2.9338 -2.1180 -0.4325
  151SAPE  C31516809   1.419   5.848   8.256  0.8116 -0.2630 -0.6502
  151SAPE  H15X16810   1.469   5.905   8.175  0.5668  0.8884 -0.0168
  151SAPE  H15Y16811   1.394   5.930   8.327  3.2487 -0.7781  0.9399
  151SAPE  C31616812   1.303   5.770   8.202 -0.5122  0.2827  0.2468
  151SAPE  H16X16813   1.248   5.699   8.268  1.1830 -3.2954 -1.8714
  151SAPE  H16Y16814   1.348   5.708   8.122  0.7756  0.6702  0.6550
  151SAPE  C31716815   1.199   5.867   8.121 -0.7763 -0.2910  0.1993
  151SAPE  H17X16816   1.262   5.926   8.051 -1.7191 -2.4018 -2.6225
  151SAPE  H17Y16817   1.145   5.939   8.185 -1.4621 -1.6851  1.2571
  151SAPE  C31816818   1.101   5.789   8.040 -0.1744 -0.3239 -0.3389
  151SAPE  H18X16819   1.158   5.712   7.984 -1.6796  0.2189 -2.7754
  151SAPE  H18Y16820   1.056   5.834   7.949 -0.3458 -2.3158 -1.2848
  151SAPE  H18Z16821   1.024   5.749   8.109  0.2034  3.4829  2.6437
  152SAPE     N16822   2.293   3.002  10.548 -0.6170  0.3891  0.2432
  152SAPE   HN116823   2.356   2.999  10.465  1.4887  2.1864  1.6546
  152SAPE   HN216824   2.199   2.958  10.535 -1.1660  0.9013  2.1737
  152SAPE   HN316825   2.284   3.105  10.561  0.2415  0.8796 -2.3795
  152SAPE   C1216826   2.346   2.949  10.677  0.2017 -0.4433  0.2215
  152SAPE  H12A16827   2.343   2.838  10.676 -1.5295 -0.4540 -2.4450
  152SAPE  H12B16828   2.277   2.988  10.756  0.5009  1.6384 -0.4852
  152SAPE   C1116829   2.478   3.020  10.706 -0.0333  0.3022 -0.2221
  152SAPE  H11A16830   2.511   3.007  10.811 -0.6910 -0.5808 -0.1170
  152SAPE  H11B16831   2.471   3.130  10.692 -2.9989  0.3311  0.8905
  152SAPE     P16832   2.731   2.950  10.644  0.1191 -0.0928  0.0310
  152SAPE   O1316833   2.757   2.906  10.784 -0.6723 -0.3251  0.1003
  152SAPE   O1416834   2.797   2.855  10.546 -0.7066 -0.2518  0.4624
  152SAPE   O1216835   2.575   2.964  10.611 -0.3150 -0.1319  0.6552
  152SAPE   O1116836   2.781   3.098  10.621  0.3116  0.1747  0.8534
  152SAPE    C116837   2.923   3.119  10.608 -0.7453  0.5209  0.2038
  152SAPE    HA16838   2.955   3.206  10.669  2.4957 -0.8481  0.7129
  152SAPE    HB16839   2.982   3.039  10.658 -1.7525  0.3995  1.2224
  152SAPE    C216840   2.983   3.150  10.463 -0.0215  0.3450  0.1581
  152SAPE    HS16841   2.957   3.254  10.435  0.1530  0.1053 -0.9255
  152SAPE   O2116842   2.927   3.065  10.363 -0.0500 -0.3132 -0.3262
  152SAPE   C2116843   2.808   3.100  10.319 -0.4460  0.6618 -0.5950
  152SAPE   O2216844   2.746   3.199  10.362 -0.0227  0.8258 -0.7915
  152SAPE   C2216845   2.767   2.998  10.213 -0.1806 -0.4589 -0.2359
  152SAPE   H2R16846   2.859   2.940  10.191  1.0136 -0.3336  3.6745
  152SAPE   H2S16847   2.691   2.935  10.263 -0.4073 -0.1337 -0.1641
  152SAPE    C316848   3.137   3.149  10.452  0.1816  0.0566  0.0736
  152SAPE    HX16849   3.164   3.059  10.511 -1.1480 -1.0929 -0.9744
  152SAPE    HY16850   3.168   3.241  10.506 -0.0471 -0.4799  1.1397
  152SAPE   O3116851   3.195   3.145  10.317  0.2528  0.3737 -0.9064
  152SAPE   C3116852   3.203   3.016  10.270  0.3831 -0.2276 -0.2695
  152SAPE   O3216853   3.163   2.916  10.319  0.0483 -0.4816 -0.2024
  152SAPE   C3216854   3.279   3.025  10.136 -0.4511 -0.2215  0.3938
  152SAPE   H2X16855   3.299   2.924  10.093  1.0046  0.2783 -0.1962
  152SAPE   H2Y16856   3.379   3.067  10.163 -0.6476 -0.2355  1.1673
  152SAPE   C2316857   2.691   3.058  10.088  0.6017  0.0836  0.2186
  152SAPE   H3R16858   2.609   3.122  10.129  0.0133 -1.4003  1.4580
  152SAPE   H3S16859   2.643   2.970  10.042  1.7794  0.0783 -1.0549
  152SAPE   C2416860   2.771   3.138   9.976 -0.1908 -0.4227 -1.0465
  152SAPE   H4R16861   2.832   3.069   9.915  1.3869 -0.5357  0.5802
  152SAPE   H4S16862   2.855   3.199  10.015 -0.5512  1.9345 -3.6457
  152SAPE   C2516863   2.693   3.245   9.912  0.4618 -0.6341  0.8505
  152SAPE   H5R16864   2.611   3.288   9.971 -1.7272 -1.0414 -1.7361
  152SAPE   C2616865   2.716   3.295   9.784  0.1122  0.5595  0.5165
  152SAPE   H6R16866   2.659   3.384   9.753 -1.7101 -0.6768  0.1208
  152SAPE   C2716867   2.813   3.256   9.673  0.3009 -0.0520  0.2680
  152SAPE   H7R16868   2.879   3.175   9.711 -0.6636 -0.6909  0.5961
  152SAPE   H7S16869   2.878   3.343   9.650 -1.8353  2.0026  1.5960
  152SAPE   C2816870   2.740   3.186   9.560 -0.3003  0.6367 -0.6811
  152SAPE   H8R16871   2.719   3.079   9.573  0.9108  0.4027 -0.5451
  152SAPE   C2916872   2.708   3.241   9.441  0.1170  0.0936 -0.3663
  152SAPE   H9R16873   2.663   3.173   9.368  0.6008  0.7537 -1.2932
  152SAPE  C21016874   2.742   3.384   9.396 -0.5337 -1.0712 -1.1242
  152SAPE  H10R16875   2.826   3.414   9.463 -2.7710 -1.1139  1.9232
  152SAPE  H10S16876   2.659   3.446   9.435 -0.7340 -2.4292  0.7333
  152SAPE  C21116877   2.764   3.416   9.255 -0.2728  0.1041 -0.3516
  152SAPE  H11R16878   2.698   3.365   9.184 -0.1537  0.8187 -0.9974
  152SAPE  C21216879   2.835   3.526   9.210  0.9177  0.9612 -0.0271
  152SAPE  H12R16880   2.843   3.556   9.105 -1.7488  1.5139 -0.1400
  152SAPE  C21316881   2.905   3.625   9.302  0.0070  0.3319  0.3727
  152SAPE  H13R16882   2.973   3.562   9.364  2.9058  2.6073 -0.2899
  152SAPE  H13S16883   2.842   3.669   9.381  0.7686 -0.4412  1.4471
  152SAPE  C21416884   2.988   3.735   9.247  0.2021 -0.0941  0.2767
  152SAPE  H14R16885   2.932   3.829   9.245 -0.2461 -0.3557  0.2306
  152SAPE  C21516886   3.117   3.743   9.208 -0.3849  0.4055 -0.1485
  152SAPE  H15R16887   3.153   3.840   9.171  0.7486  0.5530  1.2633
  152SAPE  C21616888   3.223   3.631   9.210  0.5807 -0.2879 -0.6940
  152SAPE  H16R16889   3.176   3.539   9.167 -0.2019 -0.7697  1.0707
  152SAPE  H16S16890   3.242   3.605   9.316  1.0433 -1.4725 -1.0410
  152SAPE  C21716891   3.355   3.662   9.137  0.7324  0.2513 -0.5322
  152SAPE  H17R16892   3.433   3.591   9.170  2.2388  0.7246 -2.8568
  152SAPE  H17S16893   3.396   3.759   9.171  0.0200  0.0649  0.9465
  152SAPE  C21816894   3.341   3.655   8.981 -0.4070  0.1793 -0.8960
  152SAPE  H18R16895   3.266   3.735   8.964  0.3492  1.4506  1.4412
  152SAPE  H18S16896   3.282   3.569   8.942 -2.9003 -0.0691  2.8760
  152SAPE  C21916897   3.466   3.683   8.898  0.6664  0.2425 -0.0023
  152SAPE  H19R16898   3.534   3.600   8.926  0.4186  1.0481  3.4965
  152SAPE  H19S16899   3.525   3.762   8.949 -0.3495  0.6614  0.5433
  152SAPE  C22016900   3.466   3.717   8.750  0.6720 -0.0836  0.1638
  152SAPE  H20R16901   3.568   3.737   8.709  0.9483 -0.7007  0.5216
  152SAPE  H20S16902   3.398   3.800   8.722  1.7969  0.7895 -0.0545
  152SAPE  H20T16903   3.425   3.633   8.690 -2.4050  1.8904 -0.6641
  152SAPE   C3316904   3.209   3.113  10.032 -0.2624 -0.1976  0.2526
  152SAPE   H3X16905   3.194   3.216  10.073 -0.0883  0.6430 -1.6907
  152SAPE   H3Y16906   3.107   3.084   9.998 -0.3863  2.6768 -2.2926
  152SAPE   C3416907   3.297   3.135   9.910  0.4833  0.4683 -0.4615
  152SAPE   H4X16908   3.339   3.041   9.869  0.6177  0.4590 -0.3013
  152SAPE   H4Y16909   3.386   3.190   9.949  0.3979 -0.7429  1.5584
  152SAPE   C3516910   3.222   3.210   9.796 -0.0247 -0.1235  0.8800
  152SAPE   H5X16911   3.191   3.304   9.846  2.3499  0.6367  1.0768
  152SAPE   H5Y16912   3.135   3.152   9.761  0.2639 -0.2261  0.3241
  152SAPE   C3616913   3.315   3.242   9.679 -0.0161  0.2086  0.2255
  152SAPE   H6X16914   3.356   3.143   9.648  0.8825  0.7061 -0.2038
  152SAPE   H6Y16915   3.404   3.293   9.721  0.5441 -0.5855  0.0384
  152SAPE   C3716916   3.258   3.327   9.559  0.1964 -0.2548 -0.2081
  152SAPE   H7X16917   3.340   3.340   9.486  0.5168 -0.6734  0.0725
  152SAPE   H7Y16918   3.228   3.421   9.610 -0.9622 -0.3952 -0.5944
  152SAPE   C3816919   3.136   3.264   9.486 -0.0761  0.0129 -0.1807
  152SAPE   H8X16920   3.048   3.319   9.526  0.2806 -0.5076  1.3862
  152SAPE   H8Y16921   3.126   3.155   9.507  2.2040  0.0842  1.5665
  152SAPE   C3916922   3.128   3.289   9.330  0.2311 -0.1967 -0.2417
  152SAPE   H9X16923   3.197   3.374   9.310  0.5236  0.1543  1.9850
  152SAPE   H9Y16924   3.030   3.337   9.313  0.5289  0.6996  0.4839
  152SAPE  C31016925   3.155   3.171   9.241 -0.6443  0.5461  0.3603
  152SAPE  H10X16926   3.099   3.083   9.279 -0.9809  0.1444 -0.9814
  152SAPE  H10Y16927   3.264   3.152   9.244 -0.8436 -1.0155 -0.7286
  152SAPE  C31116928   3.116   3.190   9.099 -0.3468  0.0508 -0.6195
  152SAPE  H11X16929   3.026   3.254   9.091  0.7374  1.3976 -3.9434
  152SAPE  H11Y16930   3.085   3.087   9.070 -1.6810  0.6021 -1.1909
  152SAPE  C31216931   3.240   3.237   9.022 -0.6645  0.1250 -0.8912
  152SAPE  H12X16932   3.327   3.170   9.040 -0.2598  1.2525  1.6812
  152SAPE  H12Y16933   3.271   3.334   9.065 -0.4575 -1.2843  2.4608
  152SAPE  C31316934   3.212   3.238   8.872  0.3122 -0.2479 -0.1966
  152SAPE  H13X16935   3.148   3.329   8.868  0.9729  0.3644  1.9154
  152SAPE  H13Y16936   3.164   3.142   8.843 -0.4891 -0.6355  2.1767
  152SAPE  C31416937   3.335   3.256   8.781  0.3188 -1.1511  0.1438
  152SAPE  H14X16938   3.404   3.170   8.799  2.5134  0.2910 -0.9156
  152SAPE  H14Y16939   3.394   3.345   8.811 -0.1762 -0.8578  0.2609
  152SAPE  C31516940   3.306   3.250   8.627  0.2519 -0.5080 -0.6202
  152SAPE  H15X16941   3.234   3.335   8.616  2.3886  1.7945  1.6508
  152SAPE  H15Y16942   3.246   3.157   8.613 -1.0950  0.2382 -0.0575
  152SAPE  C31616943   3.428   3.267   8.535  0.1397  0.2306  0.4256
  152SAPE  H16X16944   3.460   3.371   8.556  0.2606  0.8145 -2.3066
  152SAPE  H16Y16945   3.405   3.263   8.427  2.1213  2.2427 -0.1593
  152SAPE  C31716946   3.543   3.160   8.561  0.0613 -0.5747 -0.8173
  152SAPE  H17X16947   3.516   3.053   8.570  0.9652 -0.8409 -1.2202
  152SAPE  H17Y16948   3.572   3.187   8.665 -0.4748  0.0827 -0.8292
  152SAPE  C31816949   3.671   3.168   8.484  0.2477 -0.5931  0.7255
  152SAPE  H18X16950   3.657   3.126   8.382  2.4644  0.3535 -0.0450
  152SAPE  H18Y16951   3.743   3.102   8.538 -0.5606 -2.4365 -0.3593
  152SAPE  H18Z16952   3.715   3.270   8.470 -2.3529  0.3324 -1.6409
  153SAPE     N16953   2.504   5.069  10.796  0.0432 -0.0840  0.8101
  153SAPE   HN116954   2.421   5.031  10.846  0.3413 -1.0045  0.6291
  153SAPE   HN216955   2.571   4.991  10.782  0.0404 -0.1569  1.1859
  153SAPE   HN316956   2.541   5.134  10.869 -0.1281  1.6255 -0.5742
  153SAPE   C1216957   2.490   5.148  10.677  0.8489  0.5609  0.5176
  153SAPE  H12A16958   2.444   5.243  10.711  0.5991  0.3980  0.6414
  153SAPE  H12B16959   2.413   5.096  10.617  0.9159 -0.6645  1.4517
  153SAPE   C1116960   2.623   5.182  10.608 -0.3944  0.1141 -0.2044
  153SAPE  H11A16961   2.602   5.224  10.507  0.8863  0.9736 -0.1324
  153SAPE  H11B16962   2.676   5.085  10.596  0.5921  0.6931 -0.6264
  153SAPE     P16963   2.828   5.337  10.647 -0.0491  0.2103 -0.1286
  153SAPE   O1316964   2.853   5.448  10.735 -0.4094  0.6558 -0.4978
  153SAPE   O1416965   2.921   5.226  10.645 -0.0887 -0.4660  0.2506
  153SAPE   O1216966   2.698   5.263  10.690 -0.1971 -0.4754  0.6753
  153SAPE   O1116967   2.801   5.396  10.502  0.7280  0.3496 -0.3771
  153SAPE    C116968   2.909   5.454  10.420 -0.2009 -0.5554  0.1422
  153SAPE    HA16969   2.879   5.559  10.399  0.1093 -0.1425  1.6857
  153SAPE    HB16970   3.000   5.459  10.483 -0.9146  0.3944  1.1246
  153SAPE    C216971   2.939   5.370  10.292  0.2735 -0.3563  0.0120
  153SAPE    HS16972   2.870   5.409  10.215 -0.5559 -1.6121  0.0933
  153SAPE   O2116973   2.921   5.229  10.319 -0.1367  0.2415 -0.1155
  153SAPE   C2116974   2.796   5.183  10.295 -0.5728  1.0670  0.1728
  153SAPE   O2216975   2.708   5.247  10.248  0.6111 -0.5182  0.5899
  153SAPE   C2216976   2.788   5.029  10.324  0.0370 -0.2532  0.9145
  153SAPE   H2R16977   2.855   4.973  10.255 -0.4374 -1.6531  1.5801
  153SAPE   H2S16978   2.833   5.010  10.423  2.7317  0.1711 -0.1387
  153SAPE    C316979   3.086   5.395  10.243 -0.3605  0.1610  0.4164
  153SAPE    HX16980   3.156   5.387  10.329  0.0279 -1.7336 -0.0238
  153SAPE    HY16981   3.099   5.495  10.196  2.2074  1.1030  2.8146
  153SAPE   O3116982   3.124   5.298  10.134  0.0864 -0.1434 -0.2109
  153SAPE   C3116983   3.063   5.318  10.020 -0.3599 -0.5297 -0.7966
  153SAPE   O3216984   2.997   5.417   9.990  0.0670 -0.3280 -0.2621
  153SAPE   C3216985   3.082   5.197   9.932 -0.2844  0.2989  0.4109
  153SAPE   H2X16986   2.999   5.127   9.959 -1.0266  1.7592  2.1805
  153SAPE   H2Y16987   3.184   5.157   9.949 -0.2812  0.7433  1.5270
  153SAPE   C2316988   2.640   4.989  10.320 -0.0873  0.6404  0.4027
  153SAPE   H3R16989   2.580   5.076  10.354  0.8579  1.4155  0.1159
  153SAPE   H3S16990   2.630   4.898  10.383  3.8008  0.5084  1.0889
  153SAPE   C2416991   2.588   4.970  10.175 -0.2514  0.2886  0.0227
  153SAPE   H4R16992   2.636   5.049  10.113 -0.7117 -0.1336 -0.9039
  153SAPE   H4S16993   2.480   4.995  10.175 -0.9321 -2.2941  1.2491
  153SAPE   C2516994   2.615   4.835  10.109  0.4458  0.2849  0.1443
  153SAPE   H5R16995   2.562   4.754  10.162 -2.0484  1.0367 -1.0018
  153SAPE   C2616996   2.678   4.821   9.990  0.3201 -0.2557  0.0398
  153SAPE   H6R16997   2.688   4.724   9.940 -1.6132  0.1287 -1.1948
  153SAPE   C2716998   2.751   4.931   9.913 -0.6640 -0.5886 -0.0937
  153SAPE   H7R16999   2.852   4.906   9.875 -1.3683 -2.2726 -0.9462
  153SAPE   H7S17000   2.773   5.016   9.981 -0.2326 -0.9244  0.1941
  153SAPE   C2817001   2.667   4.983   9.799  0.5501  0.1186 -0.0855
  153SAPE   H8R17002   2.567   5.018   9.827  0.5114  0.2342 -0.3675
  153SAPE   C2917003   2.701   4.994   9.669 -0.0592 -0.4906  0.1165
  153SAPE   H9R17004   2.627   5.046   9.607  0.2536  0.3359  0.4133
  153SAPE  C21017005   2.836   4.958   9.608 -0.1966  0.0227  0.7458
  153SAPE  H10R17006   2.919   5.010   9.661 -1.2144  1.3356  1.1129
  153SAPE  H10S17007   2.843   5.014   9.512  2.0843 -0.1707  0.7439
  153SAPE  C21117008   2.866   4.809   9.594  0.0962  0.3594  0.7993
  153SAPE  H11R17009   2.909   4.768   9.687 -0.5745 -1.6873  0.2650
  153SAPE  C21217010   2.839   4.728   9.487  0.9759 -0.1548 -0.6141
  153SAPE  H12R17011   2.874   4.624   9.494 -0.5221 -0.7455 -1.4003
  153SAPE  C21317012   2.775   4.774   9.360  1.1860 -0.0740  0.1271
  153SAPE  H13R17013   2.852   4.822   9.296  0.6298  0.4495 -0.1622
  153SAPE  H13S17014   2.694   4.847   9.383  0.0470 -1.0953 -0.5438
  153SAPE  C21417015   2.711   4.657   9.293 -0.3619 -0.0085  0.2334
  153SAPE  H14R17016   2.645   4.598   9.358  0.9837 -1.5108  0.3048
  153SAPE  C21517017   2.757   4.607   9.176  0.0059 -0.3487  0.8295
  153SAPE  H15R17018   2.695   4.522   9.145  0.2707 -0.1091 -0.4015
  153SAPE  C21617019   2.870   4.654   9.085  0.5000 -0.1607  0.5142
  153SAPE  H16R17020   2.949   4.581   9.056  0.7823  0.7468 -1.1157
  153SAPE  H16S17021   2.947   4.708   9.146  0.7106  1.0117 -0.7533
  153SAPE  C21717022   2.830   4.748   8.966 -1.2397  0.0960  0.0463
  153SAPE  H17R17023   2.927   4.769   8.916 -1.3781 -1.9405 -1.1566
  153SAPE  H17S17024   2.782   4.840   9.006  0.5378  0.3607  1.7414
  153SAPE  C21817025   2.749   4.675   8.855  0.7624  0.1120 -0.3238
  153SAPE  H18R17026   2.681   4.602   8.903 -0.4189  1.4496  0.1227
  153SAPE  H18S17027   2.818   4.616   8.792  1.3603 -0.0568  0.4758
  153SAPE  C21917028   2.680   4.783   8.773  0.6778  0.1088 -0.3329
  153SAPE  H19R17029   2.754   4.866   8.766 -0.7925  1.4674 -0.4149
  153SAPE  H19S17030   2.590   4.809   8.834 -0.0190 -1.9440 -0.3951
  153SAPE  C22017031   2.627   4.727   8.636 -0.4428 -0.7573 -0.4172
  153SAPE  H20R17032   2.709   4.688   8.572  0.1146  0.4159 -0.4231
  153SAPE  H20S17033   2.578   4.807   8.577  2.9382  2.4650  0.7444
  153SAPE  H20T17034   2.558   4.641   8.655 -1.7993  0.1383 -1.0790
  153SAPE   C3317035   3.070   5.217   9.782  0.0236  0.0905 -0.2095
  153SAPE   H3X17036   2.968   5.244   9.747 -0.2535  0.0644  0.5541
  153SAPE   H3Y17037   3.083   5.117   9.736  4.1336  1.2104 -1.9005
  153SAPE   C3417038   3.172   5.305   9.717  0.1221 -0.1174  0.3766
  153SAPE   H4X17039   3.274   5.276   9.750 -0.3465 -1.3012  0.8134
  153SAPE   H4Y17040   3.151   5.410   9.746 -0.0603  1.5828 -4.7836
  153SAPE   C3517041   3.167   5.284   9.559  0.7991  0.7183  0.6443
  153SAPE   H5X17042   3.223   5.368   9.513  1.5770  1.6251  3.0814
  153SAPE   H5Y17043   3.060   5.293   9.532  1.0625 -1.5339 -1.4305
  153SAPE   C3617044   3.238   5.152   9.506 -0.3311 -0.3581 -0.1765
  153SAPE   H6X17045   3.191   5.076   9.571  0.6558 -1.1356 -0.3518
  153SAPE   H6Y17046   3.344   5.150   9.538 -0.9664  0.5525  2.1463
  153SAPE   C3717047   3.227   5.118   9.359 -0.3499  0.0331  0.1834
  153SAPE   H7X17048   3.299   5.037   9.335 -1.5498 -0.5059 -1.7996
  153SAPE   H7Y17049   3.270   5.207   9.310  1.9489 -0.1100  1.8051
  153SAPE   C3817050   3.086   5.073   9.302 -0.4664  0.2486 -0.3574
  153SAPE   H8X17051   3.023   5.153   9.345 -1.4511 -1.1852  0.9549
  153SAPE   H8Y17052   3.044   4.981   9.347  3.2695 -2.5114 -1.9553
  153SAPE   C3917053   3.076   5.071   9.149 -0.1524  0.0968 -0.0718
  153SAPE   H9X17054   3.090   4.967   9.113  2.2859  0.7064 -1.0556
  153SAPE   H9Y17055   3.154   5.139   9.107  0.2985  0.4164  1.2123
  153SAPE  C31017056   2.938   5.118   9.092 -0.0968  0.0190  0.1746
  153SAPE  H10X17057   2.921   5.221   9.130  0.6146 -0.1892  1.0918
  153SAPE  H10Y17058   2.865   5.043   9.130  0.0268  0.9474  2.4421
  153SAPE  C31117059   2.932   5.133   8.944 -0.0114  0.3932  0.1246
  153SAPE  H11X17060   2.995   5.056   8.894 -1.5126 -2.7318  2.6728
  153SAPE  H11Y17061   2.985   5.227   8.919  1.7969 -0.8042 -0.6839
  153SAPE  C31217062   2.791   5.137   8.890  0.3632 -0.1617  0.3637
  153SAPE  H12X17063   2.740   5.224   8.938  1.4421  0.3261  0.6671
  153SAPE  H12Y17064   2.745   5.044   8.929  0.9224  0.2087  2.0156
  153SAPE  C31317065   2.782   5.134   8.738 -0.2829  0.4014 -0.3559
  153SAPE  H13X17066   2.675   5.152   8.711 -0.1331  0.0695 -1.1829
  153SAPE  H13Y17067   2.829   5.045   8.692  2.1124  0.6751  1.3981
  153SAPE  C31417068   2.853   5.253   8.676 -0.1292 -0.1657 -0.2909
  153SAPE  H14X17069   2.957   5.251   8.717  0.6079  0.7371 -2.0356
  153SAPE  H14Y17070   2.796   5.332   8.730 -2.0034 -1.6639  0.0419
  153SAPE  C31517071   2.844   5.246   8.523 -0.6566  0.3491  0.7431
  153SAPE  H15X17072   2.738   5.257   8.492 -0.0067 -0.0494 -1.8247
  153SAPE  H15Y17073   2.892   5.157   8.477  0.0208  0.9754  0.2188
  153SAPE  C31617074   2.926   5.361   8.463  0.0722 -0.3633 -0.3091
  153SAPE  H16X17075   3.024   5.362   8.515 -0.1312 -2.0185  0.1434
  153SAPE  H16Y17076   2.884   5.460   8.491  0.6139 -0.4791  0.9726
  153SAPE  C31717077   2.935   5.369   8.311  0.4304  0.8517 -0.0093
  153SAPE  H17X17078   2.831   5.388   8.278 -0.7079 -0.4692  2.5508
  153SAPE  H17Y17079   2.954   5.267   8.270 -3.2356 -0.0864  0.2804
  153SAPE  C31817080   3.025   5.478   8.249 -0.4539 -0.2472 -0.8078
  153SAPE  H18X17081   2.972   5.576   8.255 -0.1675 -0.1822  2.0826
  153SAPE  H18Y17082   3.040   5.455   8.142  1.8995 -0.1019 -0.5689
  153SAPE  H18Z17083   3.117   5.477   8.311  0.4670 -3.1131 -2.0477
  154SAPE     N17084   2.003   3.654  10.474 -0.3437 -0.0162 -0.3685
  154SAPE   HN117085   1.907   3.644  10.436 -0.0068 -4.3817 -0.5141
  154SAPE   HN217086   2.023   3.561  10.516  2.1736  0.6484  0.0570
  154SAPE   HN317087   2.013   3.728  10.547  1.8927 -1.2499  0.6446
  154SAPE   C1217088   2.099   3.685  10.368  0.1355 -0.8280 -0.2018
  154SAPE  H12A17089   2.090   3.613  10.284  2.3410  1.2006 -2.3065
  154SAPE  H12B17090   2.202   3.676  10.408  0.6364  1.1791 -0.9616
  154SAPE   C1117091   2.077   3.826  10.306 -0.2809 -0.3806  0.2768
  154SAPE  H11A17092   1.977   3.836  10.257 -1.8172 -1.3827  2.9565
  154SAPE  H11B17093   2.155   3.835  10.228 -0.1497 -2.5540  0.1073
  154SAPE     P17094   2.230   3.986  10.451 -0.5146 -0.1989  0.4378
  154SAPE   O1317095   2.195   4.104  10.530  0.3877 -0.3095 -0.5637
  154SAPE   O1417096   2.317   3.889  10.511  0.2189  0.4387 -0.0875
  154SAPE   O1217097   2.095   3.922  10.405  0.1296 -0.1326  0.0318
  154SAPE   O1117098   2.292   4.038  10.308  0.4646  0.7240 -0.2968
  154SAPE    C117099   2.209   4.138  10.242  0.2016 -0.0785 -0.4812
  154SAPE    HA17100   2.107   4.100  10.215 -1.1694  1.2913  2.3583
  154SAPE    HB17101   2.186   4.223  10.310  1.9399 -0.9817  1.3266
  154SAPE    C217102   2.284   4.200  10.118 -0.5319  0.5434 -0.3281
  154SAPE    HS17103   2.216   4.257  10.051 -0.5820  0.1306 -0.6347
  154SAPE   O2117104   2.344   4.093  10.044 -0.2276 -0.0356  0.2354
  154SAPE   C2117105   2.271   4.036   9.945  0.2018  0.7961 -0.3769
  154SAPE   O2217106   2.153   4.063   9.917 -0.2410 -0.3564 -0.8313
  154SAPE   C2217107   2.348   3.918   9.880 -0.3551  0.9411 -0.4009
  154SAPE   H2R17108   2.451   3.912   9.921 -0.5996 -2.0998  0.0168
  154SAPE   H2S17109   2.294   3.825   9.907  2.0648 -1.0215 -1.9149
  154SAPE    C317110   2.399   4.289  10.164  0.6455 -0.0434 -0.3113
  154SAPE    HX17111   2.463   4.217  10.220 -0.4215  1.8274  3.6905
  154SAPE    HY17112   2.369   4.372  10.231  1.9112 -0.4972  0.8717
  154SAPE   O3117113   2.475   4.337  10.050  1.0931 -0.0936 -0.3235
  154SAPE   C3117114   2.421   4.423   9.970  0.6030  0.3117  0.9656
  154SAPE   O3217115   2.307   4.467   9.988 -0.2536  0.1065  0.3096
  154SAPE   C3217116   2.524   4.462   9.863  0.3275 -0.2080  0.3301
  154SAPE   H2X17117   2.590   4.376   9.838  2.5394  1.7285 -0.9154
  154SAPE   H2Y17118   2.578   4.539   9.922  2.0764 -2.1167  1.3256
  154SAPE   C2317119   2.347   3.918   9.719 -0.2455  0.8138 -0.3423
  154SAPE   H3R17120   2.248   3.954   9.684  0.7526  4.4421  0.1186
  154SAPE   H3S17121   2.337   3.811   9.693 -1.9617  0.9862 -0.5105
  154SAPE   C2417122   2.454   4.002   9.649  0.1198 -0.4153 -0.6123
  154SAPE   H4R17123   2.437   4.106   9.685 -1.7355 -0.9542  0.1939
  154SAPE   H4S17124   2.446   4.004   9.538 -0.1190 -2.5979 -0.6715
  154SAPE   C2517125   2.580   3.939   9.690  0.9392 -0.0598 -0.2556
  154SAPE   H5R17126   2.628   3.990   9.775 -1.3135  0.2309  0.9281
  154SAPE   C2617127   2.632   3.833   9.625  0.3784  0.2211 -0.8658
  154SAPE   H6R17128   2.723   3.784   9.663 -0.6358 -0.1610  1.2103
  154SAPE   C2717129   2.570   3.767   9.505  0.0036  0.1859  0.0697
  154SAPE   H7R17130   2.467   3.735   9.530  1.2190 -3.7575  0.7358
  154SAPE   H7S17131   2.618   3.667   9.489 -1.9152 -0.6693 -0.7307
  154SAPE   C2817132   2.587   3.843   9.379 -0.2122 -0.1160  0.1608
  154SAPE   H8R17133   2.646   3.936   9.384  1.6448 -1.1416 -1.1352
  154SAPE   C2917134   2.521   3.802   9.268 -0.8229  0.3405 -0.9931
  154SAPE   H9R17135   2.526   3.860   9.175  0.2157  0.4838 -0.8522
  154SAPE  C21017136   2.443   3.672   9.265  0.1634  0.3344  0.6479
  154SAPE  H10R17137   2.376   3.673   9.354  0.0348  0.2360  0.5520
  154SAPE  H10S17138   2.505   3.580   9.280  0.7870  0.8185  1.1134
  154SAPE  C21117139   2.362   3.660   9.140  0.0523 -0.2142 -0.1852
  154SAPE  H11R17140   2.260   3.699   9.153 -0.7728 -1.9262 -1.1469
  154SAPE  C21217141   2.412   3.645   9.021 -0.0692 -0.0826 -0.1746
  154SAPE  H12R17142   2.350   3.646   8.930 -0.0213 -1.0640 -0.2352
  154SAPE  C21317143   2.555   3.601   8.988  0.2922  0.2518  0.4876
  154SAPE  H13R17144   2.621   3.580   9.075  1.9414 -1.7141 -1.1202
  154SAPE  H13S17145   2.620   3.677   8.941 -0.2585  0.6631  0.3786
  154SAPE  C21417146   2.570   3.479   8.907 -0.6270  0.1235 -0.0491
  154SAPE  H14R17147   2.478   3.421   8.888 -0.8688  0.2994  0.5622
  154SAPE  C21517148   2.685   3.425   8.862  0.9224 -0.7622 -0.3047
  154SAPE  H15R17149   2.669   3.330   8.808 -1.1701 -0.8016  0.3077
  154SAPE  C21617150   2.812   3.491   8.851 -0.3973  0.6798  0.0348
  154SAPE  H16R17151   2.888   3.411   8.865 -1.1487  0.0188  0.4311
  154SAPE  H16S17152   2.826   3.582   8.913 -0.3524  0.8387 -0.2063
  154SAPE  C21717153   2.831   3.535   8.703  0.5531 -0.2963 -0.4485
  154SAPE  H17R17154   2.755   3.610   8.673  2.6369  1.4377 -1.6568
  154SAPE  H17S17155   2.824   3.442   8.642  0.8642 -0.5627 -0.0816
  154SAPE  C21817156   2.969   3.606   8.679 -0.0861  0.1818 -0.5492
  154SAPE  H18R17157   2.978   3.672   8.590  1.9408  0.5556 -0.1050
  154SAPE  H18S17158   3.055   3.536   8.671 -0.1386 -0.0361  0.6343
  154SAPE  C21917159   3.018   3.702   8.787 -0.1588  0.1477 -0.3264
  154SAPE  H19R17160   3.127   3.725   8.781 -0.3694  0.9893 -1.1916
  154SAPE  H19S17161   3.008   3.652   8.886 -3.5228 -0.8274 -1.0369
  154SAPE  C22017162   2.936   3.829   8.807 -0.2850  0.8698  0.0127
  154SAPE  H20R17163   2.973   3.876   8.901  1.2835  0.8813 -0.5833
  154SAPE  H20S17164   2.826   3.814   8.814 -0.2144  0.9555  1.8847
  154SAPE  H20T17165   2.948   3.897   8.721  0.3102  2.1603  1.0889
  154SAPE   C3317166   2.488   4.532   9.730 -0.6238  0.0074 -0.2865
  154SAPE   H3X17167   2.583   4.575   9.693 -0.4449 -0.2278 -0.0996
  154SAPE   H3Y17168   2.420   4.618   9.750  1.1936  0.7360  3.9584
  154SAPE   C3417169   2.419   4.447   9.619 -0.0960  0.0121  0.1892
  154SAPE   H4X17170   2.327   4.399   9.658 -0.9442  0.5695 -1.0561
  154SAPE   H4Y17171   2.489   4.365   9.589  0.2625  0.8433 -1.3690
  154SAPE   C3517172   2.390   4.528   9.493  0.2097 -0.5288 -0.1214
  154SAPE   H5X17173   2.471   4.603   9.486 -0.1445 -0.1044  0.2509
  154SAPE   H5Y17174   2.292   4.574   9.518  0.5689  0.2361 -0.1182
  154SAPE   C3617175   2.396   4.469   9.352 -0.1157  0.2556 -0.1385
  154SAPE   H6X17176   2.342   4.373   9.335 -0.2150  0.4915 -1.2481
  154SAPE   H6Y17177   2.501   4.443   9.328 -0.4623 -1.0336 -0.3427
  154SAPE   C3717178   2.358   4.563   9.241  0.7117 -0.6104 -0.0126
  154SAPE   H7X17179   2.439   4.637   9.219  0.9776 -1.3337 -1.6315
  154SAPE   H7Y17180   2.270   4.619   9.278 -2.5568 -3.3627 -2.9053
  154SAPE   C3817181   2.313   4.492   9.111  0.5990  0.1124  0.1373
  154SAPE   H8X17182   2.224   4.429   9.133  0.7484 -0.4985 -0.9402
  154SAPE   H8Y17183   2.394   4.428   9.070 -1.3788 -1.4373 -1.6161
  154SAPE   C3917184   2.284   4.586   8.988  0.1537  0.3619  0.0073
  154SAPE   H9X17185   2.376   4.634   8.950 -0.6240  2.5210  0.6689
  154SAPE   H9Y17186   2.206   4.660   9.019 -0.1037  1.5180 -3.0868
  154SAPE  C31017187   2.238   4.500   8.874 -0.1819  0.2857  0.1603
  154SAPE  H10X17188   2.151   4.435   8.896  0.6014 -0.6346  0.6101
  154SAPE  H10Y17189   2.327   4.437   8.852 -0.8284 -0.3345 -0.7663
  154SAPE  C31117190   2.202   4.601   8.762  0.5197 -0.2432 -0.8488
  154SAPE  H11X17191   2.293   4.653   8.726  0.0003  2.7963  1.7326
  154SAPE  H11Y17192   2.127   4.676   8.796 -1.2735 -1.3170 -2.2602
  154SAPE  C31217193   2.129   4.536   8.644  0.6291  0.0479  0.6236
  154SAPE  H12X17194   2.037   4.490   8.686 -0.2688  0.8841 -0.3770
  154SAPE  H12Y17195   2.192   4.459   8.593 -2.6502 -0.4569 -3.2072
  154SAPE  C31317196   2.096   4.643   8.533  0.1615  0.0321  0.0458
  154SAPE  H13X17197   2.195   4.689   8.511  0.5066 -1.7966 -2.7734
  154SAPE  H13Y17198   2.019   4.714   8.570  0.5411 -0.5374  2.0692
  154SAPE  C31417199   2.046   4.575   8.402 -0.2321 -0.7374 -0.2607
  154SAPE  H14X17200   1.940   4.548   8.420  0.0659 -0.8432  1.5784
  154SAPE  H14Y17201   2.109   4.486   8.384  2.8964  1.6084 -1.8942
  154SAPE  C31517202   2.049   4.670   8.282 -0.7076 -0.2726  0.1870
  154SAPE  H15X17203   2.152   4.710   8.270 -1.2789  2.3795  2.9692
  154SAPE  H15Y17204   1.986   4.759   8.305 -1.6068 -0.1718 -2.3927
  154SAPE  C31617205   1.978   4.623   8.155  0.0326  0.3654  0.4968
  154SAPE  H16X17206   1.968   4.717   8.098  3.1171 -0.5416 -1.8362
  154SAPE  H16Y17207   1.878   4.576   8.169  0.2461  0.0081  0.8634
  154SAPE  C31717208   2.067   4.539   8.059  0.3704  0.3038 -0.5036
  154SAPE  H17X17209   2.093   4.444   8.112 -0.0269  0.7596  0.5430
  154SAPE  H17Y17210   2.157   4.596   8.028  1.4211 -1.4342 -0.8316
  154SAPE  C31817211   1.974   4.492   7.946  0.2630 -0.3888 -0.6556
  154SAPE  H18X17212   1.890   4.428   7.979  0.4046 -0.3567 -0.2194
  154SAPE  H18Y17213   2.037   4.438   7.872 -1.0337 -2.9898  0.0254
  154SAPE  H18Z17214   1.928   4.584   7.903 -2.9814 -0.9057  1.3702
  155SAPE     N17215   4.813   0.125  10.171  0.9808 -0.0915 -0.3593
  155SAPE   HN117216   4.784   0.220  10.200  0.5034 -0.0504 -0.9389
  155SAPE   HN217217   4.916   0.124  10.180  0.9921  0.0856 -0.4512
  155SAPE   HN317218   4.779   0.119  10.072  1.1512  2.6139 -0.6465
  155SAPE   C1217219   4.739   0.034  10.260 -0.1986 -0.4097 -0.7557
  155SAPE  H12A17220   4.733  -0.067  10.214 -2.2553  0.0270 -1.5676
  155SAPE  H12B17221   4.640   0.083  10.276  0.7704  0.9426  1.3988
  155SAPE   C1117222   4.811   0.036  10.389 -1.0297  0.0394 -0.4867
  155SAPE  H11A17223   4.759  -0.025  10.466  2.5042  0.0506  2.1889
  155SAPE  H11B17224   4.821   0.138  10.432 -0.4043 -0.2458  0.0644
  155SAPE     P17225   5.080   0.039  10.405 -0.1948  0.0923  0.1170
  155SAPE   O1317226   5.069   0.107  10.541  0.5967 -0.2897 -0.1337
  155SAPE   O1417227   5.192  -0.061  10.383  0.2770 -0.8137  0.2362
  155SAPE   O1217228   4.937  -0.029  10.377 -0.1737 -0.0841  0.4144
  155SAPE   O1117229   5.084   0.144  10.287  0.3361 -0.1783 -0.1431
  155SAPE    C117230   5.159   0.266  10.290 -0.4812 -0.1299  0.0437
  155SAPE    HA17231   5.098   0.353  10.323  0.5770  0.7323 -0.2380
  155SAPE    HB17232   5.248   0.261  10.355 -0.5100  0.7377  0.1637
  155SAPE    C217233   5.213   0.298  10.149 -0.2431 -0.6647 -0.3475
  155SAPE    HS17234   5.280   0.387  10.150 -0.2066 -0.6524 -1.6659
  155SAPE   O2117235   5.103   0.298  10.058 -0.3445 -0.0847  0.1268
  155SAPE   C2117236   5.048   0.417  10.043 -0.3527  0.0983  0.0112
  155SAPE   O2217237   5.088   0.523  10.092  0.6997  0.2839 -1.2952
  155SAPE   C2217238   4.941   0.413   9.932 -0.7213  0.3042  0.6299
  155SAPE   H2R17239   4.888   0.316   9.936  0.4066 -0.3793 -0.4509
  155SAPE   H2S17240   4.878   0.503   9.951 -3.9795 -1.4957 -0.9919
  155SAPE    C317241   5.312   0.181  10.108  0.6160  0.3294  0.0736
  155SAPE    HX17242   5.241   0.096  10.098  0.2208  0.7856 -1.2889
  155SAPE    HY17243   5.380   0.147  10.188  0.1504 -1.7527 -0.3494
  155SAPE   O3117244   5.390   0.214   9.994 -0.5065 -0.2274  0.7099
  155SAPE   C3117245   5.329   0.185   9.877  0.2614 -0.6610 -0.3845
  155SAPE   O3217246   5.227   0.119   9.872  0.5611  0.0857  0.0356
  155SAPE   C3217247   5.407   0.249   9.765 -0.2439 -0.6011  0.7662
  155SAPE   H2X17248   5.505   0.200   9.749  0.2578  0.3426  0.8710
  155SAPE   H2Y17249   5.419   0.356   9.792 -0.0738 -0.6574  0.9144
  155SAPE   C2317250   5.002   0.384   9.788  0.3119 -0.6045  0.3673
  155SAPE   H3R17251   4.916   0.362   9.721 -0.5145  0.9382  0.8650
  155SAPE   H3S17252   5.058   0.288   9.787 -0.7509 -1.3934  3.4504
  155SAPE   C2417253   5.090   0.500   9.737  0.2281  0.4179 -0.1905
  155SAPE   H4R17254   5.135   0.465   9.641 -2.3834 -0.9805 -1.0095
  155SAPE   H4S17255   5.168   0.520   9.813 -0.0140  3.1429 -0.5582
  155SAPE   C2517256   5.012   0.623   9.717 -0.0662  0.3089 -0.2374
  155SAPE   H5R17257   4.990   0.668   9.815  0.9597  0.4095 -0.0473
  155SAPE   C2617258   4.995   0.702   9.610  0.4051  0.5436 -0.3647
  155SAPE   H6R17259   4.923   0.783   9.622 -0.9891 -0.7854  0.5949
  155SAPE   C2717260   5.053   0.666   9.473 -0.3142  0.4741  0.1711
  155SAPE   H7R17261   5.084   0.559   9.470 -0.5673  0.2794  2.4207
  155SAPE   H7S17262   5.153   0.715   9.477  0.8222 -1.7331  0.3298
  155SAPE   C2817263   4.959   0.693   9.358 -0.4040 -0.1759  1.0117
  155SAPE   H8R17264   4.962   0.792   9.312 -4.2041  0.3196  1.4478
  155SAPE   C2917265   4.867   0.601   9.309  0.0709 -0.4503 -0.3288
  155SAPE   H9R17266   4.810   0.643   9.225  0.8020  0.9647 -0.1382
  155SAPE  C21017267   4.839   0.462   9.366 -0.3381  0.1997  0.4173
  155SAPE  H10R17268   4.805   0.477   9.471  0.0488  0.9688  0.4375
  155SAPE  H10S17269   4.931   0.400   9.371 -1.7463 -1.9502  1.6528
  155SAPE  C21117270   4.744   0.372   9.284 -0.5354  0.2850 -0.4803
  155SAPE  H11R17271   4.656   0.338   9.340  0.7483  0.6393  1.9069
  155SAPE  C21217272   4.770   0.323   9.162 -0.4922  0.4434 -0.0243
  155SAPE  H12R17273   4.704   0.249   9.114  1.0347 -0.3524 -0.9485
  155SAPE  C21317274   4.885   0.358   9.063  0.9245 -1.5069 -0.9554
  155SAPE  H13R17275   4.963   0.422   9.110  0.9513  0.2630 -3.2386
  155SAPE  H13S17276   4.849   0.422   8.980  2.3349 -0.2236 -0.6280
  155SAPE  C21417277   4.951   0.238   8.993 -0.1918 -0.8256 -0.1338
  155SAPE  H14R17278   4.911   0.237   8.890 -0.4745 -1.7652 -0.0217
  155SAPE  C21517279   5.050   0.161   9.037 -0.2686 -0.0191 -0.1832
  155SAPE  H15R17280   5.085   0.080   8.971 -1.0647 -0.6513  0.1559
  155SAPE  C21617281   5.115   0.151   9.173 -0.2027  0.0239 -0.7176
  155SAPE  H16R17282   5.086   0.229   9.246 -0.2051 -0.5151 -0.1334
  155SAPE  H16S17283   5.224   0.145   9.151 -0.6506 -0.1110 -3.3315
  155SAPE  C21717284   5.085   0.012   9.247 -0.2250  0.2555  0.5321
  155SAPE  H17R17285   5.125  -0.071   9.184 -0.6466  0.7933 -0.4689
  155SAPE  H17S17286   4.978  -0.004   9.272  0.6335 -0.7859  3.9977
  155SAPE  C21817287   5.147   0.001   9.391 -0.3796  0.2177  0.3772
  155SAPE  H18R17288   5.105   0.083   9.454 -0.4744 -1.5094  2.7052
  155SAPE  H18S17289   5.254   0.026   9.374 -0.3409 -0.4763 -0.4910
  155SAPE  C21917290   5.124  -0.128   9.464 -0.7322  0.8529 -0.6543
  155SAPE  H19R17291   5.014  -0.128   9.475 -0.7829  2.6580 -0.7518
  155SAPE  H19S17292   5.153  -0.135   9.571 -0.1475 -2.4916 -0.9326
  155SAPE  C22017293   5.173  -0.252   9.384  0.6444 -0.4411  0.5020
  155SAPE  H20R17294   5.113  -0.271   9.293  0.0363  0.7477  0.6412
  155SAPE  H20S17295   5.166  -0.338   9.455  1.8293 -2.8585 -2.1060
  155SAPE  H20T17296   5.277  -0.236   9.349  0.7253 -0.2289  0.8283
  155SAPE   C3317297   5.336   0.241   9.624  0.7395  0.0745  1.0735
  155SAPE   H3X17298   5.232   0.280   9.633  0.7244 -0.0499  1.4321
  155SAPE   H3Y17299   5.336   0.134   9.596 -0.2190 -0.0521  1.4991
  155SAPE   C3417300   5.421   0.315   9.522 -0.4304  0.4395  0.1853
  155SAPE   H4X17301   5.513   0.262   9.492  2.3442  2.4017  4.2644
  155SAPE   H4Y17302   5.442   0.417   9.560  0.2383 -0.0400  1.1587
  155SAPE   C3517303   5.347   0.341   9.386  0.0189 -0.2027 -0.2197
  155SAPE   H5X17304   5.251   0.394   9.406  1.1753  1.3277  1.5242
  155SAPE   H5Y17305   5.334   0.244   9.333 -1.5469 -0.1567  0.0081
  155SAPE   C3617306   5.426   0.428   9.288  0.2587 -0.4954  0.3310
  155SAPE   H6X17307   5.526   0.382   9.274  0.5721  0.6039 -1.3983
  155SAPE   H6Y17308   5.439   0.535   9.315 -0.6536 -0.7988  2.0851
  155SAPE   C3717309   5.354   0.431   9.152  0.3334  0.1005  0.5209
  155SAPE   H7X17310   5.248   0.450   9.180  0.3151  0.1900  0.3946
  155SAPE   H7Y17311   5.364   0.331   9.105 -1.7457  0.9678 -1.9856
  155SAPE   C3817312   5.399   0.529   9.037  0.3948  0.8202 -0.0687
  155SAPE   H8X17313   5.408   0.635   9.070  0.9681  0.9669 -0.6875
  155SAPE   H8Y17314   5.319   0.524   8.961  2.0880  0.7084 -1.9123
  155SAPE   C3917315   5.524   0.475   8.974 -0.3141  0.9326  0.6892
  155SAPE   H9X17316   5.503   0.367   8.954  2.2329  0.0866  2.0749
  155SAPE   H9Y17317   5.620   0.466   9.030  0.0618  1.4393  0.1337
  155SAPE  C31017318   5.564   0.525   8.835 -0.0103  0.0865 -0.0163
  155SAPE  H10X17319   5.618   0.440   8.789  3.2786  1.7850  0.3980
  155SAPE  H10Y17320   5.636   0.609   8.829  0.1174 -0.0110  0.1331
  155SAPE  C31117321   5.445   0.569   8.751  0.7419 -0.6516 -0.1918
  155SAPE  H11X17322   5.402   0.662   8.795 -3.0841 -2.0831 -0.4994
  155SAPE  H11Y17323   5.373   0.484   8.760 -1.2087  0.9206 -0.2103
  155SAPE  C31217324   5.483   0.591   8.606  0.0474 -0.9336  0.6488
  155SAPE  H12X17325   5.547   0.514   8.558 -0.7781 -0.9131 -0.5568
  155SAPE  H12Y17326   5.543   0.685   8.599  0.5008 -1.2807 -0.5168
  155SAPE  C31317327   5.360   0.617   8.517  1.1442  0.3420  0.0049
  155SAPE  H13X17328   5.315   0.714   8.549  1.4628  0.3022  0.5705
  155SAPE  H13Y17329   5.276   0.546   8.533 -0.4891  1.7374 -1.8126
  155SAPE  C31417330   5.408   0.617   8.365  0.4263 -0.3669 -0.3558
  155SAPE  H14X17331   5.444   0.513   8.347  3.8700  0.6163  0.1818
  155SAPE  H14Y17332   5.505   0.667   8.347  0.3962 -0.4970 -0.9163
  155SAPE  C31517333   5.301   0.678   8.276 -0.3500  0.1161 -0.6800
  155SAPE  H15X17334   5.284   0.786   8.294  3.0404  0.8730 -1.3830
  155SAPE  H15Y17335   5.203   0.627   8.284 -1.3821  2.3354  2.4590
  155SAPE  C31617336   5.345   0.672   8.131  0.1016  0.5012 -0.2161
  155SAPE  H16X17337   5.455   0.690   8.132  0.2475 -0.3008 -0.6733
  155SAPE  H16Y17338   5.291   0.750   8.073  0.5412  1.1041  0.1765
  155SAPE  C31717339   5.319   0.541   8.050  0.1217 -0.2179  0.6743
  155SAPE  H17X17340   5.210   0.518   8.052 -0.3573  1.7229 -0.4903
  155SAPE  H17Y17341   5.375   0.457   8.095 -1.1341 -1.2109  0.4517
  155SAPE  C31817342   5.349   0.569   7.902 -0.4885  0.1349  0.1915
  155SAPE  H18X17343   5.322   0.490   7.829  0.3203  0.1906 -0.1851
  155SAPE  H18Y17344   5.459   0.574   7.883 -0.7389  1.7538 -1.0503
  155SAPE  H18Z17345   5.313   0.672   7.879  0.5452  0.7230  1.0785
  156SAPE     N17346   0.562   5.070  10.625  0.1047  0.0026  0.1682
  156SAPE   HN117347   0.601   5.016  10.546 -2.5075 -1.7205 -0.0821
  156SAPE   HN217348   0.511   5.002  10.685  0.9760  0.5293  1.5696
  156SAPE   HN317349   0.494   5.143  10.592 -0.6759 -0.1445  1.3843
  156SAPE   C1217350   0.681   5.131  10.707  0.4723  0.4065  0.5426
  156SAPE  H12A17351   0.698   5.064  10.794  1.4036 -0.8305 -0.5550
  156SAPE  H12B17352   0.653   5.233  10.743  2.3703  0.2634  2.6276
  156SAPE   C1117353   0.814   5.141  10.640  0.8473  0.0610 -0.0575
  156SAPE  H11A17354   0.896   5.133  10.715  0.8967 -2.6262 -0.2877
  156SAPE  H11B17355   0.819   5.239  10.589  2.3320 -0.5594 -1.1635
  156SAPE     P17356   0.945   5.031  10.448 -0.2438 -0.3508 -0.0137
  156SAPE   O1317357   1.068   5.053  10.517 -0.0074  0.5533  0.4330
  156SAPE   O1417358   0.938   4.906  10.368 -0.1428  0.7107 -0.1627
  156SAPE   O1217359   0.826   5.044  10.545  0.4753  0.3341 -0.4036
  156SAPE   O1117360   0.913   5.158  10.364  0.0464 -0.1325  0.2633
  156SAPE    C117361   0.790   5.195  10.311  0.0932  0.2753 -0.8228
  156SAPE    HA17362   0.714   5.188  10.392  0.5248 -1.3320 -0.5094
  156SAPE    HB17363   0.792   5.302  10.285  1.0556  0.2663 -0.7961
  156SAPE    C217364   0.754   5.124  10.178 -0.0536  0.1153 -0.1259
  156SAPE    HS17365   0.773   5.017  10.201  0.2302  0.3567  0.7759
  156SAPE   O2117366   0.841   5.170  10.072  0.4546  0.0582  0.1224
  156SAPE   C2117367   0.852   5.081   9.973  0.0794 -0.4145 -0.3349
  156SAPE   O2217368   0.828   4.961   9.980 -0.2767  0.1824  0.4970
  156SAPE   C2217369   0.907   5.153   9.853 -0.1688 -0.8257 -0.2396
  156SAPE   H2R17370   0.989   5.220   9.885 -0.5408 -0.1971 -0.5881
  156SAPE   H2S17371   0.960   5.078   9.790  0.8243 -1.7949  1.6541
  156SAPE    C317372   0.601   5.151  10.142 -0.1898 -0.8079 -0.1057
  156SAPE    HX17373   0.586   5.259  10.125  0.9972 -1.1234 -4.1729
  156SAPE    HY17374   0.544   5.126  10.234 -2.1248  0.9210 -0.7571
  156SAPE   O3117375   0.551   5.067  10.034 -0.0085  0.8582  0.4403
  156SAPE   C3117376   0.422   5.064  10.012  0.0974  0.8120 -0.3189
  156SAPE   O3217377   0.346   5.147  10.063 -0.1619  0.5437  0.1241
  156SAPE   C3217378   0.388   4.950   9.918  0.5814  0.1959 -0.2565
  156SAPE   H2X17379   0.480   4.913   9.869  0.7027  1.4383 -0.9820
  156SAPE   H2Y17380   0.317   4.982   9.839 -0.3520  1.0122  0.8734
  156SAPE   C2317381   0.801   5.236   9.779 -0.3862  0.7515  0.4654
  156SAPE   H3R17382   0.852   5.297   9.701  0.0853 -0.3667 -0.1180
  156SAPE   H3S17383   0.740   5.303   9.844 -1.5849  0.3767 -0.2317
  156SAPE   C2417384   0.682   5.161   9.711  0.3942  0.4901  0.0880
  156SAPE   H4R17385   0.602   5.236   9.692  0.6751  0.5843 -0.7833
  156SAPE   H4S17386   0.649   5.089   9.789  3.8091  1.1067  2.3493
  156SAPE   C2517387   0.717   5.079   9.586 -1.1157 -0.4066 -0.5185
  156SAPE   H5R17388   0.819   5.038   9.583 -0.8004 -0.0608  2.5894
  156SAPE   C2617389   0.636   5.031   9.483 -0.3476  0.2821 -0.8494
  156SAPE   H6R17390   0.671   4.968   9.400  0.1449 -0.4008 -0.1403
  156SAPE   C2717391   0.481   5.033   9.467 -0.6260 -0.0424  0.3653
  156SAPE   H7R17392   0.447   5.030   9.573  2.7924 -0.2143  1.5975
  156SAPE   H7S17393   0.445   4.950   9.403 -1.9045  0.3992  0.4796
  156SAPE   C2817394   0.450   5.168   9.406 -0.6891  0.6932  0.0306
  156SAPE   H8R17395   0.436   5.245   9.484 -1.0089  0.2293  0.4363
  156SAPE   C2917396   0.411   5.197   9.283 -0.7674  0.2269 -0.7656
  156SAPE   H9R17397   0.379   5.300   9.257  1.0520  0.9043 -0.4427
  156SAPE  C21017398   0.402   5.097   9.169 -0.7547  0.5574  0.2051
  156SAPE  H10R17399   0.424   4.995   9.206 -1.0304  0.5262  0.2839
  156SAPE  H10S17400   0.479   5.122   9.092  1.3056  0.4103  2.1377
  156SAPE  C21117401   0.270   5.124   9.096  0.4452 -0.6803 -0.2115
  156SAPE  H11R17402   0.190   5.165   9.159  1.0076 -0.6122  0.4738
  156SAPE  C21217403   0.248   5.085   8.961  0.3683  0.0319  0.4173
  156SAPE  H12R17404   0.154   5.113   8.912 -1.2673 -1.7799  2.2948
  156SAPE  C21317405   0.350   5.025   8.865 -0.7249 -0.0410 -0.0416
  156SAPE  H13R17406   0.424   4.964   8.920 -2.2011 -1.6315  0.2392
  156SAPE  H13S17407   0.416   5.112   8.840 -0.6834  0.0322  0.3151
  156SAPE  C21417408   0.302   4.958   8.739 -0.2485 -0.2732  0.0319
  156SAPE  H14R17409   0.291   4.850   8.758  0.6840  0.0582  3.0244
  156SAPE  C21517410   0.303   5.006   8.612 -0.3929 -0.7472 -0.6516
  156SAPE  H15R17411   0.278   4.931   8.535  0.9957 -1.6942 -0.2281
  156SAPE  C21617412   0.333   5.149   8.575 -0.1358  0.4285  1.0054
  156SAPE  H16R17413   0.283   5.222   8.642 -0.2693  0.9451  0.3635
  156SAPE  H16S17414   0.279   5.167   8.479 -2.9636  1.0648  2.5806
  156SAPE  C21717415   0.479   5.190   8.580  0.2367  0.4591 -0.0385
  156SAPE  H17R17416   0.520   5.188   8.683 -1.9104  1.7610  0.9080
  156SAPE  H17S17417   0.479   5.298   8.555  1.0628  0.5299  0.2381
  156SAPE  C21817418   0.588   5.117   8.486  0.0483  0.6387 -0.2136
  156SAPE  H18R17419   0.536   5.096   8.389 -1.2522 -1.7743  0.9286
  156SAPE  H18S17420   0.602   5.019   8.534 -0.2309  0.5250 -0.3579
  156SAPE  C21917421   0.718   5.194   8.470  0.2848 -0.1827  0.2624
  156SAPE  H19R17422   0.758   5.193   8.574 -2.8030 -1.6803  1.5435
  156SAPE  H19S17423   0.683   5.296   8.442 -2.0616 -0.8498  0.5341
  156SAPE  C22017424   0.818   5.138   8.372 -0.7857 -0.2599 -0.2780
  156SAPE  H20R17425   0.905   5.207   8.371 -1.6941  0.9249  0.0956
  156SAPE  H20S17426   0.772   5.127   8.272 -1.2365 -1.6583  0.0549
  156SAPE  H20T17427   0.851   5.037   8.403 -0.7166 -0.3940 -0.7801
  156SAPE   C3317428   0.299   4.845   9.985 -0.8724 -0.2501  0.4032
  156SAPE   H3X17429   0.203   4.887  10.023 -0.3832  0.7511  0.5651
  156SAPE   H3Y17430   0.345   4.811  10.081 -0.8453 -1.3277  0.0248
  156SAPE   C3417431   0.288   4.721   9.892 -0.0429  0.3200 -0.0698
  156SAPE   H4X17432   0.234   4.649   9.957  0.2123 -0.6805 -0.9601
  156SAPE   H4Y17433   0.393   4.689   9.879  0.2038  1.4250 -1.0323
  156SAPE   C3517434   0.222   4.741   9.757 -0.5448 -0.6354 -0.2779
  156SAPE   H5X17435   0.284   4.821   9.712  0.1691 -0.0338  1.6525
  156SAPE   H5Y17436   0.128   4.798   9.775 -0.4628 -1.3188  2.9580
  156SAPE   C3617437   0.199   4.621   9.672  0.0354 -0.2350 -0.0465
  156SAPE   H6X17438   0.100   4.588   9.708 -0.2032  0.6228  0.0995
  156SAPE   H6Y17439   0.278   4.543   9.681  0.6862  0.5108  0.9869
  156SAPE   C3717440   0.185   4.663   9.523 -0.0009 -0.3830  0.2767
  156SAPE   H7X17441   0.177   4.571   9.461  2.5749 -0.5093  0.0474
  156SAPE   H7Y17442   0.286   4.705   9.503 -0.2843 -0.3850 -1.2612
  156SAPE   C3817443   0.088   4.780   9.486  0.4803  0.5980  0.4401
  156SAPE   H8X17444   0.118   4.861   9.556 -0.8192  1.5336 -0.0653
  156SAPE   H8Y17445  -0.021   4.763   9.500  0.6146  0.0066  0.8152
  156SAPE   C3917446   0.117   4.842   9.344 -0.3034 -0.8041  0.2272
  156SAPE   H9X17447   0.226   4.862   9.337 -0.4952  0.9225  1.3696
  156SAPE   H9Y17448   0.056   4.935   9.337  2.5521  1.1367 -0.7713
  156SAPE  C31017449   0.081   4.745   9.230  1.1421 -0.5214  0.1217
  156SAPE  H10X17450  -0.017   4.699   9.254  0.5986  0.1952 -0.6629
  156SAPE  H10Y17451   0.162   4.668   9.234  2.3012  0.3880 -2.7736
  156SAPE  C31117452   0.071   4.799   9.084  0.0221  0.2738 -0.3363
  156SAPE  H11X17453   0.164   4.845   9.045 -0.0185  0.2865 -0.4193
  156SAPE  H11Y17454  -0.020   4.863   9.082 -0.4017 -0.3096 -0.0369
  156SAPE  C31217455   0.052   4.682   8.981  0.1746  0.1036 -0.3491
  156SAPE  H12X17456  -0.021   4.616   9.034 -0.4306  1.5447  0.6761
  156SAPE  H12Y17457   0.148   4.627   8.987  1.2291  2.0108  0.8814
  156SAPE  C31317458  -0.001   4.721   8.842 -0.3267  0.1936  0.1393
  156SAPE  H13X17459   0.085   4.777   8.799  1.4203 -2.0266  0.5335
  156SAPE  H13Y17460  -0.096   4.778   8.846  0.4741  1.6340 -0.5380
  156SAPE  C31417461  -0.023   4.595   8.756 -0.0100 -0.4335 -0.0673
  156SAPE  H14X17462  -0.107   4.542   8.806 -0.4962  1.5532  1.3887
  156SAPE  H14Y17463   0.070   4.535   8.759 -0.3997 -1.0254  0.4183
  156SAPE  C31517464  -0.071   4.633   8.613 -0.6061 -0.0580 -0.1544
  156SAPE  H15X17465  -0.148   4.713   8.620  0.2498  0.7543  0.2730
  156SAPE  H15Y17466  -0.126   4.544   8.578 -2.8982  0.1447  2.5734
  156SAPE  C31617467   0.047   4.670   8.522 -0.9619  0.3456  0.0236
  156SAPE  H16X17468   0.119   4.588   8.501 -1.3016 -0.5405  2.1297
  156SAPE  H16Y17469   0.099   4.752   8.575 -1.0936 -0.8700  2.1219
  156SAPE  C31717470  -0.006   4.730   8.389 -0.4357  0.4640 -0.0854
  156SAPE  H17X17471  -0.073   4.814   8.419  1.3747  2.2301 -0.7620
  156SAPE  H17Y17472  -0.061   4.650   8.335 -2.6387  1.9525 -0.1709
  156SAPE  C31817473   0.113   4.776   8.309  0.1167  0.5651  0.3963
  156SAPE  H18X17474   0.176   4.840   8.374  1.4089 -0.7581  0.4915
  156SAPE  H18Y17475   0.087   4.832   8.217  1.2727 -1.1028 -1.0070
  156SAPE  H18Z17476   0.164   4.685   8.272 -0.6290 -0.8149  2.5430
  157SAPE     N17477   1.032   4.382  10.358  0.2354 -0.5437 -0.2512
  157SAPE   HN117478   1.024   4.387  10.255  0.8571  0.4751 -0.2673
  157SAPE   HN217479   1.131   4.354  10.373 -0.6408 -4.4932 -0.8621
  157SAPE   HN317480   0.963   4.315  10.398  2.1634 -2.0997  0.6172
  157SAPE   C1217481   1.020   4.525  10.413  0.1316  0.6524 -0.1421
  157SAPE  H12A17482   1.071   4.595  10.343 -0.4881  0.8193 -0.4278
  157SAPE  H12B17483   1.061   4.524  10.517  0.4238  2.9995 -0.1797
  157SAPE   C1117484   0.871   4.559  10.422 -0.2068 -1.0357 -0.1898
  157SAPE  H11A17485   0.832   4.575  10.319 -0.9633 -1.2830  0.0522
  157SAPE  H11B17486   0.849   4.658  10.468 -1.3576 -0.7514 -1.3019
  157SAPE     P17487   0.639   4.457  10.457 -0.1462 -0.0948 -0.4032
  157SAPE   O1317488   0.558   4.464  10.576 -0.3222 -0.1217 -0.3810
  157SAPE   O1417489   0.609   4.564  10.364  0.3115 -0.2571  0.0147
  157SAPE   O1217490   0.795   4.461  10.484 -0.3393  0.2984 -0.6543
  157SAPE   O1117491   0.621   4.316  10.388  0.7837 -0.1970 -0.1605
  157SAPE    C117492   0.670   4.287  10.257 -0.2004 -0.4855 -0.0052
  157SAPE    HA17493   0.681   4.383  10.201  0.1895 -1.1768 -1.1433
  157SAPE    HB17494   0.772   4.244  10.265 -0.5965 -1.0998  2.1898
  157SAPE    C217495   0.582   4.191  10.178  1.1259 -0.2233 -0.3051
  157SAPE    HS17496   0.569   4.097  10.236  1.0762 -1.8832 -2.8790
  157SAPE   O2117497   0.630   4.176  10.046 -0.5732  0.4604 -0.9099
  157SAPE   C2117498   0.604   4.054  10.001  0.9705  0.0227  0.1800
  157SAPE   O2217499   0.548   3.960  10.061  0.2040 -0.7529  0.2890
  157SAPE   C2217500   0.672   4.048   9.865 -0.4103 -0.3831 -0.1072
  157SAPE   H2R17501   0.764   4.109   9.872 -0.4486 -0.3694  0.3067
  157SAPE   H2S17502   0.702   3.944   9.839  1.3399 -0.3341  1.4895
  157SAPE    C317503   0.430   4.241  10.173  0.2211  0.3987 -0.4066
  157SAPE    HX17504   0.450   4.347  10.150  2.0577 -0.4320 -3.2527
  157SAPE    HY17505   0.376   4.229  10.269 -0.9464 -0.2628 -1.1191
  157SAPE   O3117506   0.344   4.175  10.071  0.1039  0.0818 -0.2150
  157SAPE   C3117507   0.283   4.264   9.990  0.1644  0.0670 -0.0374
  157SAPE   O3217508   0.303   4.384   9.989 -0.0061 -0.6518  0.6488
  157SAPE   C3217509   0.197   4.175   9.896 -0.8271 -0.3360  0.0042
  157SAPE   H2X17510   0.134   4.110   9.961  0.7075 -0.9974  0.9120
  157SAPE   H2Y17511   0.269   4.107   9.846 -0.5961  0.2944 -0.5307
  157SAPE   C2317512   0.578   4.101   9.750  0.0504 -0.8418 -0.4233
  157SAPE   H3R17513   0.543   4.202   9.780 -2.9527 -2.1399  0.9509
  157SAPE   H3S17514   0.487   4.038   9.741 -0.8932  0.5311 -0.7686
  157SAPE   C2417515   0.658   4.119   9.616  0.5001  0.7351 -0.4447
  157SAPE   H4R17516   0.764   4.130   9.648  0.0251  5.2196  0.1756
  157SAPE   H4S17517   0.629   4.217   9.572  1.2375  1.7801  1.3002
  157SAPE   C2517518   0.637   4.003   9.522 -0.4121 -0.9446  0.1127
  157SAPE   H5R17519   0.622   3.902   9.563  1.6261 -0.5970  1.9212
  157SAPE   C2617520   0.618   4.012   9.390 -0.1911 -0.1622 -0.3600
  157SAPE   H6R17521   0.619   3.927   9.320 -0.2439  1.2974 -2.2371
  157SAPE   C2717522   0.632   4.135   9.309 -0.1494 -0.2674  0.1123
  157SAPE   H7R17523   0.657   4.225   9.369  0.1410  1.0248 -1.8703
  157SAPE   H7S17524   0.529   4.144   9.267  0.5575 -1.3639 -2.0354
  157SAPE   C2817525   0.722   4.131   9.188  0.0276 -0.7005 -0.2717
  157SAPE   H8R17526   0.827   4.163   9.202 -0.4694  2.2409 -2.2467
  157SAPE   C2917527   0.680   4.103   9.061 -0.1180 -0.1297 -0.6753
  157SAPE   H9R17528   0.757   4.082   8.986  0.5567 -0.2391  0.0333
  157SAPE  C21017529   0.545   4.059   9.014 -0.4099  0.3033 -0.5852
  157SAPE  H10R17530   0.467   4.052   9.093  0.3403  1.5170  0.2941
  157SAPE  H10S17531   0.557   3.965   8.958  1.9609  0.1466  0.0758
  157SAPE  C21117532   0.494   4.170   8.930 -0.0352 -0.5447  0.0463
  157SAPE  H11R17533   0.484   4.265   8.984  0.7504 -0.3179 -0.1991
  157SAPE  C21217534   0.453   4.164   8.805  0.1509 -0.5268 -0.1278
  157SAPE  H12R17535   0.425   4.255   8.750  1.0519 -0.4409 -0.4770
  157SAPE  C21317536   0.452   4.047   8.706  0.1114  0.0408 -0.5647
  157SAPE  H13R17537   0.347   4.015   8.689 -1.2202  2.9929  1.1638
  157SAPE  H13S17538   0.504   3.960   8.753 -0.2563 -0.1187 -0.4519
  157SAPE  C21417539   0.525   4.067   8.577  0.0031  0.2460 -0.1720
  157SAPE  H14R17540   0.469   4.052   8.484  0.7609  0.4931 -0.6791
  157SAPE  C21517541   0.660   4.080   8.566 -0.1208  0.1656 -0.5098
  157SAPE  H15R17542   0.702   4.086   8.464 -0.1874 -1.6453 -0.6850
  157SAPE  C21617543   0.757   4.092   8.683  0.3938 -0.0907  0.4667
  157SAPE  H16R17544   0.846   4.028   8.666  0.4848 -0.2235  1.3681
  157SAPE  H16S17545   0.707   4.063   8.778  0.8435 -0.8885  0.4674
  157SAPE  C21717546   0.817   4.245   8.700  0.2992  0.1191  0.2454
  157SAPE  H17R17547   0.865   4.247   8.800 -0.2741 -0.3303  0.5367
  157SAPE  H17S17548   0.723   4.302   8.715  0.5382  0.5789  0.0307
  157SAPE  C21817549   0.892   4.301   8.585 -0.3947 -0.2523  0.0964
  157SAPE  H18R17550   0.944   4.389   8.626 -0.4790  0.2954 -0.9353
  157SAPE  H18S17551   0.819   4.339   8.510 -1.6980 -1.3943  0.7472
  157SAPE  C21917552   1.001   4.212   8.529 -0.0244  0.3098 -0.5258
  157SAPE  H19R17553   0.949   4.136   8.468  0.1829  0.5647 -1.0290
  157SAPE  H19S17554   1.048   4.144   8.602 -0.8793 -0.4273 -0.6543
  157SAPE  C22017555   1.088   4.293   8.435 -0.1905 -0.4194 -0.1462
  157SAPE  H20R17556   1.141   4.230   8.360  3.1331  0.7310  1.0593
  157SAPE  H20S17557   1.160   4.343   8.504 -1.6255 -1.5331  2.2792
  157SAPE  H20T17558   1.028   4.371   8.384  3.0885  0.6014 -2.8828
  157SAPE   C3317559   0.119   4.261   9.788  0.1537  1.0974  0.0238
  157SAPE   H3X17560   0.084   4.351   9.843  0.9251  0.8598  0.9411
  157SAPE   H3Y17561   0.040   4.196   9.745  1.1267 -0.0060 -0.1770
  157SAPE   C3417562   0.207   4.291   9.672  0.0819 -0.4106 -0.0360
  157SAPE   H4X17563   0.300   4.332   9.718 -1.1787 -0.7732  3.1223
  157SAPE   H4Y17564   0.159   4.373   9.614  1.4134  0.6575  0.3095
  157SAPE   C3517565   0.252   4.174   9.589 -0.3474  0.0005 -0.4124
  157SAPE   H5X17566   0.164   4.116   9.553 -0.4312 -0.2760  0.2266
  157SAPE   H5Y17567   0.318   4.108   9.649 -0.7286  0.3769  0.4369
  157SAPE   C3617568   0.326   4.205   9.458  0.3789 -0.0176 -0.3560
  157SAPE   H6X17569   0.368   4.121   9.398 -1.8292 -1.6015  0.2031
  157SAPE   H6Y17570   0.403   4.280   9.486 -0.1298 -0.5390  2.8252
  157SAPE   C3717571   0.223   4.263   9.361  0.2460 -0.0223 -0.3521
  157SAPE   H7X17572   0.176   4.347   9.416 -2.2462 -0.6881 -1.3377
  157SAPE   H7Y17573   0.138   4.194   9.343  1.7650 -1.9588 -0.4322
  157SAPE   C3817574   0.285   4.307   9.227 -0.2380  0.1049  0.0154
  157SAPE   H8X17575   0.345   4.224   9.183 -0.8985 -0.9228  0.9858
  157SAPE   H8Y17576   0.360   4.388   9.240  2.8256 -2.7187  1.6533
  157SAPE   C3917577   0.184   4.348   9.123  0.0978  0.3819 -0.4424
  157SAPE   H9X17578   0.249   4.398   9.048  0.6328 -0.6719 -0.6934
  157SAPE   H9Y17579   0.105   4.419   9.157 -0.0721  0.0074 -0.0357
  157SAPE  C31017580   0.114   4.229   9.058  0.2634  0.1512  1.0614
  157SAPE  H10X17581   0.054   4.159   9.120  0.6525 -1.8657 -0.7222
  157SAPE  H10Y17582   0.189   4.156   9.020  0.1208 -0.1734  1.3882
  157SAPE  C31117583   0.048   4.263   8.926 -0.0323  0.6125  0.7001
  157SAPE  H11X17584   0.126   4.273   8.847 -1.2890  0.0005 -0.6577
  157SAPE  H11Y17585  -0.002   4.362   8.929 -0.1705  0.5552  0.3779
  157SAPE  C31217586  -0.038   4.150   8.874 -0.5538  0.3947 -0.3814
  157SAPE  H12X17587  -0.116   4.126   8.949  0.1606 -1.0321 -0.0678
  157SAPE  H12Y17588   0.020   4.060   8.846 -1.2672 -0.0908 -0.3209
  157SAPE  C31317589  -0.110   4.192   8.750  0.4934  0.3462  0.2129
  157SAPE  H13X17590  -0.163   4.290   8.758 -3.4047 -1.4752 -0.6411
  157SAPE  H13Y17591  -0.198   4.127   8.729  0.4628  0.3888  0.2062
  157SAPE  C31417592  -0.013   4.197   8.633 -0.1345  0.2260  0.0116
  157SAPE  H14X17593   0.071   4.125   8.644  1.1188  1.6487  0.2322
  157SAPE  H14Y17594   0.038   4.296   8.626  1.4522 -0.6012 -0.6572
  157SAPE  C31517595  -0.080   4.171   8.496  0.1398  0.1918  0.5121
  157SAPE  H15X17596  -0.188   4.197   8.499  0.2368  0.6533  0.1271
  157SAPE  H15Y17597  -0.066   4.063   8.472 -1.5127  0.3893 -1.5521
  157SAPE  C31617598  -0.022   4.256   8.381  0.5255  0.2528 -0.1079
  157SAPE  H16X17599  -0.008   4.358   8.424  0.3706  0.2481 -0.0470
  157SAPE  H16Y17600  -0.101   4.268   8.304 -0.6408  1.3408  1.1882
  157SAPE  C31717601   0.099   4.203   8.319 -0.0804 -0.5012 -0.3749
  157SAPE  H17X17602   0.071   4.098   8.298 -0.6102 -0.1829 -1.3124
  157SAPE  H17Y17603   0.192   4.205   8.380  0.5196 -0.2944 -1.2877
  157SAPE  C31817604   0.130   4.276   8.189  0.3021  0.0816  0.7278
  157SAPE  H18X17605   0.209   4.222   8.132  0.0954 -1.2601  1.6419
  157SAPE  H18Y17606   0.145   4.385   8.200  0.1846  0.1774 -0.0223
  157SAPE  H18Z17607   0.048   4.273   8.114  0.3722  1.5513  0.5599
  158SAPE     N17608   1.224   5.254  10.577 -0.5386  0.1240  0.0993
  158SAPE   HN117609   1.220   5.301  10.669 -3.3126 -1.2629  0.8165
  158SAPE   HN217610   1.166   5.167  10.580 -0.4456  0.0577 -0.0012
  158SAPE   HN317611   1.320   5.224  10.554 -0.2868  1.6178 -0.9730
  158SAPE   C1217612   1.180   5.358  10.483  0.1493 -0.2743 -0.0296
  158SAPE  H12A17613   1.244   5.444  10.511 -0.0760 -0.7976  2.2515
  158SAPE  H12B17614   1.081   5.398  10.514  0.7022  0.0833  1.3447
  158SAPE   C1117615   1.211   5.330  10.329  0.5073  0.4694  0.2086
  158SAPE  H11A17616   1.193   5.417  10.261  2.5853  0.9272  0.1792
  158SAPE  H11B17617   1.146   5.248  10.291  2.6903 -0.6031 -1.3628
  158SAPE     P17618   1.456   5.413  10.291  0.3636 -0.0174 -0.0091
  158SAPE   O1317619   1.430   5.524  10.386 -0.1499 -0.4749  0.2664
  158SAPE   O1417620   1.590   5.353  10.296  0.3847 -0.5551  0.2785
  158SAPE   O1217621   1.346   5.301  10.310 -0.0421  0.2682 -0.2331
  158SAPE   O1117622   1.427   5.466  10.144 -0.4736 -0.3051 -0.0232
  158SAPE    C117623   1.393   5.382  10.038  0.3367 -0.2149 -0.0001
  158SAPE    HA17624   1.337   5.289  10.063  0.0595 -0.8022 -2.5359
  158SAPE    HB17625   1.323   5.438   9.973  1.1255 -1.9899 -2.5570
  158SAPE    C217626   1.512   5.343   9.948  0.3279  0.0557  0.4116
  158SAPE    HS17627   1.578   5.280  10.010  3.5353  0.5950 -2.1708
  158SAPE   O2117628   1.578   5.462   9.895 -0.4837  0.5615  0.1739
  158SAPE   C2117629   1.710   5.442   9.852  1.2924 -0.2374 -0.6286
  158SAPE   O2217630   1.772   5.339   9.882 -0.7552 -0.7030  0.1670
  158SAPE   C2217631   1.757   5.565   9.781 -0.6150  0.0914 -0.4276
  158SAPE   H2R17632   1.677   5.604   9.715 -0.1917 -0.2161 -1.1328
  158SAPE   H2S17633   1.780   5.636   9.863 -1.1557 -0.0835 -0.1215
  158SAPE    C317634   1.462   5.260   9.826 -0.9883  0.0835  0.3819
  158SAPE    HX17635   1.442   5.155   9.857 -0.4367 -0.2929 -0.5133
  158SAPE    HY17636   1.551   5.254   9.761  0.0215 -2.5502  1.8072
  158SAPE   O3117637   1.345   5.312   9.761  0.0097  0.5138 -0.6098
  158SAPE   C3117638   1.338   5.300   9.631 -0.1729  0.5776 -0.8213
  158SAPE   O3217639   1.419   5.240   9.565 -0.5898  0.1600  0.6387
  158SAPE   C3217640   1.218   5.373   9.580 -0.1257  0.0222 -0.2710
  158SAPE   H2X17641   1.233   5.479   9.607  1.7156  0.2484 -1.9443
  158SAPE   H2Y17642   1.129   5.333   9.634 -1.5728 -1.2894 -3.3513
  158SAPE   C2317643   1.888   5.533   9.698  0.2876 -0.3813 -0.0148
  158SAPE   H3R17644   1.940   5.447   9.745 -0.0136  0.4418  1.9130
  158SAPE   H3S17645   1.963   5.613   9.718 -1.3745  1.0548  0.8610
  158SAPE   C2417646   1.870   5.529   9.540  0.1130  0.6269 -0.8931
  158SAPE   H4R17647   1.971   5.498   9.504  0.5297  0.3977  0.4080
  158SAPE   H4S17648   1.850   5.623   9.485  0.3691  0.8014 -0.6943
  158SAPE   C2517649   1.780   5.416   9.501  0.1637  0.4429 -0.3083
  158SAPE   H5R17650   1.779   5.340   9.581  1.9841 -0.0444 -0.6864
  158SAPE   C2617651   1.683   5.412   9.408 -0.8820 -0.4491  0.5202
  158SAPE   H6R17652   1.625   5.320   9.393 -0.0952 -0.7891 -0.5815
  158SAPE   C2717653   1.653   5.514   9.303 -0.4781  0.8295  0.2894
  158SAPE   H7R17654   1.620   5.606   9.356 -2.2483  0.5133 -0.1926
  158SAPE   H7S17655   1.556   5.482   9.259  0.4029 -0.1494 -1.0118
  158SAPE   C2817656   1.742   5.549   9.194 -0.2831 -0.6327 -0.4045
  158SAPE   H8R17657   1.846   5.553   9.231 -0.0942  0.7150 -1.0345
  158SAPE   C2917658   1.716   5.582   9.064 -0.4112 -0.1754 -0.1675
  158SAPE   H9R17659   1.799   5.601   8.994  0.4388  0.0491  0.8689
  158SAPE  C21017660   1.576   5.572   9.018 -0.7484  0.5662 -0.6457
  158SAPE  H10R17661   1.510   5.617   9.096 -1.3793 -0.8935 -0.2946
  158SAPE  H10S17662   1.537   5.470   9.038  1.9928 -0.6629 -1.1118
  158SAPE  C21117663   1.549   5.625   8.877  0.6478 -0.2938 -0.3659
  158SAPE  H11R17664   1.476   5.707   8.878 -0.3331 -1.1367 -1.0520
  158SAPE  C21217665   1.596   5.592   8.756 -0.5537  1.0595 -0.1265
  158SAPE  H12R17666   1.568   5.653   8.669 -1.8024 -2.7648 -2.6263
  158SAPE  C21317667   1.689   5.475   8.734 -0.1684  0.3936  0.7699
  158SAPE  H13R17668   1.632   5.394   8.685  0.1135  1.4866 -1.4740
  158SAPE  H13S17669   1.723   5.427   8.829  0.3287  0.4769  0.6395
  158SAPE  C21417670   1.809   5.496   8.640  0.1737 -0.4575  0.1873
  158SAPE  H14R17671   1.785   5.548   8.546  4.2054  3.5760  1.0603
  158SAPE  C21517672   1.936   5.458   8.656  0.1534  0.7566  0.7825
  158SAPE  H15R17673   2.006   5.480   8.574  1.8406 -1.8467  1.3989
  158SAPE  C21617674   1.987   5.373   8.769 -0.3960 -0.4093  0.4122
  158SAPE  H16R17675   2.060   5.295   8.740  0.5209  0.0663  1.3705
  158SAPE  H16S17676   1.913   5.319   8.832  0.3628  0.3413  2.0079
  158SAPE  C21717677   2.043   5.468   8.881  0.1058  0.5495 -0.3060
  158SAPE  H17R17678   1.965   5.547   8.888  1.0162  1.5283 -0.8413
  158SAPE  H17S17679   2.141   5.516   8.859  0.6835 -0.6433 -0.4209
  158SAPE  C21817680   2.068   5.390   9.015 -0.2638  0.1993  0.4696
  158SAPE  H18R17681   2.132   5.304   8.985  0.2368  0.7025  0.0713
  158SAPE  H18S17682   1.970   5.352   9.050 -0.4777 -0.5762 -0.8875
  158SAPE  C21917683   2.123   5.475   9.127  0.1342 -0.1256  0.2886
  158SAPE  H19R17684   2.053   5.560   9.142 -0.6546 -0.9800  1.6869
  158SAPE  H19S17685   2.230   5.505   9.119  0.6501 -1.6464  0.9595
  158SAPE  C22017686   2.130   5.382   9.254 -0.6022 -0.5254 -0.9971
  158SAPE  H20R17687   2.025   5.347   9.270 -0.0711 -2.1316 -0.8554
  158SAPE  H20S17688   2.144   5.441   9.347 -2.4836  1.3503 -1.8050
  158SAPE  H20T17689   2.202   5.301   9.232 -0.8185 -0.6956 -1.0750
  158SAPE   C3317690   1.193   5.352   9.432 -0.0037  0.6199 -0.3115
  158SAPE   H3X17691   1.218   5.250   9.394  1.9352  1.4765 -1.5253
  158SAPE   H3Y17692   1.256   5.413   9.364  1.2537  1.3168  1.3916
  158SAPE   C3417693   1.041   5.377   9.402 -0.1892 -0.3140 -0.1153
  158SAPE   H4X17694   1.020   5.485   9.419  1.2634 -0.1138  0.6357
  158SAPE   H4Y17695   0.967   5.325   9.466 -1.7594  1.1261 -0.6983
  158SAPE   C3517696   0.993   5.351   9.259  0.4916 -0.1853 -0.3135
  158SAPE   H5X17697   1.039   5.263   9.209  0.7039 -1.8120  2.5073
  158SAPE   H5Y17698   1.023   5.435   9.194  1.9799 -0.1626  0.3614
  158SAPE   C3617699   0.841   5.326   9.262 -0.0430  0.2314 -0.2283
  158SAPE   H6X17700   0.783   5.414   9.296  1.3014  0.9028  0.4305
  158SAPE   H6Y17701   0.817   5.243   9.332  0.2765  0.9673  0.7869
  158SAPE   C3717702   0.769   5.300   9.126 -0.3096  0.5517 -0.4187
  158SAPE   H7X17703   0.794   5.392   9.069 -0.9788  1.2478  0.3735
  158SAPE   H7Y17704   0.659   5.291   9.143 -0.3544  3.1539  1.3157
  158SAPE   C3817705   0.828   5.186   9.047  0.3319  0.0906 -0.5217
  158SAPE   H8X17706   0.824   5.090   9.103 -0.6777  1.2922  1.5860
  158SAPE   H8Y17707   0.934   5.204   9.020  0.1588  0.8466 -0.7252
  158SAPE   C3917708   0.755   5.175   8.912  0.2759 -0.3438 -0.5599
  158SAPE   H9X17709   0.803   5.235   8.831  0.6688 -0.4829 -0.4327
  158SAPE   H9Y17710   0.649   5.205   8.923  0.5556  0.3899  0.2021
  158SAPE  C31017711   0.755   5.035   8.859  0.5736  0.0201 -0.0811
  158SAPE  H10X17712   0.690   5.034   8.769  0.3778 -0.4838  0.0642
  158SAPE  H10Y17713   0.696   4.968   8.925  0.3471  1.1415  0.8941
  158SAPE  C31117714   0.885   4.977   8.806  0.3286 -0.2527 -0.4510
  158SAPE  H11X17715   0.934   4.935   8.897 -2.0267  0.8034  1.4325
  158SAPE  H11Y17716   0.948   5.057   8.761  1.7740  0.3310  2.3557
  158SAPE  C31217717   0.871   4.867   8.700  0.2659 -0.3980  0.1273
  158SAPE  H12X17718   0.796   4.894   8.623  0.7140 -1.2275 -0.6116
  158SAPE  H12Y17719   0.817   4.779   8.740 -0.7861  0.2921  0.2842
  158SAPE  C31317720   1.013   4.815   8.655  0.1290  1.5174 -0.1461
  158SAPE  H13X17721   1.071   4.797   8.748  1.0093 -1.9836 -1.2293
  158SAPE  H13Y17722   1.075   4.893   8.606  3.3634 -0.4004  0.6608
  158SAPE  C31417723   1.024   4.671   8.599 -0.8567 -0.0554 -0.5499
  158SAPE  H14X17724   0.941   4.604   8.632 -1.5099  0.8230 -0.3533
  158SAPE  H14Y17725   1.122   4.631   8.631  0.4497  1.1127 -2.8341
  158SAPE  C31517726   1.037   4.671   8.452 -0.3060 -0.0641  0.0775
  158SAPE  H15X17727   1.079   4.579   8.407 -1.7138  0.0923 -1.6677
  158SAPE  H15Y17728   1.108   4.754   8.429 -2.0522  0.7114 -3.1573
  158SAPE  C31617729   0.912   4.704   8.379  1.3557  0.6968 -0.2751
  158SAPE  H16X17730   0.861   4.778   8.444 -1.8053 -1.6470  0.1235
  158SAPE  H16Y17731   0.861   4.606   8.380 -1.2005  1.9578  1.2041
  158SAPE  C31717732   0.921   4.762   8.236  0.2404 -0.3135 -0.2169
  158SAPE  H17X17733   0.976   4.691   8.172  3.6828  0.8499  1.2352
  158SAPE  H17Y17734   0.983   4.854   8.240 -0.8289  0.3972  2.8716
  158SAPE  C31817735   0.795   4.804   8.183 -0.0029 -0.4241  0.2652
  158SAPE  H18X17736   0.799   4.867   8.092 -0.0741  0.1220  0.6333
  158SAPE  H18Y17737   0.742   4.868   8.257  1.6393  0.2541  0.8988
  158SAPE  H18Z17738   0.733   4.715   8.159 -0.1271 -1.0727  2.6810
  159SAPE     N17739   3.112   3.719   6.224 -0.0956  0.0020  0.0410
  159SAPE   HN117740   3.011   3.694   6.230  0.1419 -0.9250  0.3469
  159SAPE   HN217741   3.118   3.801   6.161  0.7749  0.5616  0.8181
  159SAPE   HN317742   3.159   3.642   6.173  1.0576  2.6080 -3.1679
  159SAPE   C1217743   3.173   3.722   6.358 -0.8363  0.1730 -0.2639
  159SAPE  H12A17744   3.128   3.797   6.426 -2.0335 -0.2612 -0.5588
  159SAPE  H12B17745   3.281   3.740   6.339 -0.8937 -1.2463 -2.2056
  159SAPE   C1117746   3.168   3.579   6.411  0.0332 -0.5752 -0.2192
  159SAPE  H11A17747   3.060   3.556   6.419 -0.0973  0.3361  0.8553
  159SAPE  H11B17748   3.197   3.570   6.518 -3.8392 -1.4662  0.9296
  159SAPE     P17749   3.196   3.380   6.245  0.3505  0.8042 -0.1271
  159SAPE   O1317750   3.098   3.440   6.152  0.6284 -0.0846 -0.0688
  159SAPE   O1417751   3.321   3.315   6.190 -0.2225 -0.0638  0.0930
  159SAPE   O1217752   3.242   3.485   6.334  0.3752  0.0445  0.5646
  159SAPE   O1117753   3.115   3.284   6.344  0.2717 -0.3957 -0.0348
  159SAPE    C117754   3.033   3.180   6.292  0.0797  0.6180 -0.1493
  159SAPE    HA17755   3.050   3.160   6.185  5.3446  0.0040  0.5449
  159SAPE    HB17756   3.050   3.089   6.354 -1.7318 -1.2464 -2.2196
  159SAPE    C217757   2.882   3.216   6.318  0.2337 -0.5027  0.4644
  159SAPE    HS17758   2.839   3.284   6.242  1.1721  0.7728  1.0501
  159SAPE   O2117759   2.873   3.266   6.452  0.8150 -0.0688 -0.4591
  159SAPE   C2117760   2.861   3.393   6.474 -0.1558 -0.5661 -0.3117
  159SAPE   O2217761   2.837   3.474   6.387 -0.4024 -0.1620  0.7007
  159SAPE   C2217762   2.891   3.432   6.617  1.0614  0.2700  1.0120
  159SAPE   H2R17763   2.987   3.486   6.623  2.2334 -1.4882 -0.7490
  159SAPE   H2S17764   2.808   3.496   6.654  0.4733 -1.2203  2.3586
  159SAPE    C317765   2.792   3.090   6.301 -0.9055 -0.0013  0.7064
  159SAPE    HX17766   2.840   3.019   6.373  2.4761  2.5608  1.2091
  159SAPE    HY17767   2.807   3.059   6.196  0.7511  1.7657  0.3644
  159SAPE   O3117768   2.660   3.115   6.334  0.6057  0.2273  0.1183
  159SAPE   C3117769   2.569   3.022   6.290 -0.2861 -0.1336 -0.2729
  159SAPE   O3217770   2.591   2.942   6.202 -0.0931  0.2304 -0.0748
  159SAPE   C3217771   2.430   3.046   6.340 -0.6727  0.2893 -0.6126
  159SAPE   H2X17772   2.356   3.083   6.266  1.0570  1.9381 -1.5928
  159SAPE   H2Y17773   2.439   3.121   6.421  0.1067  0.3368 -0.7336
  159SAPE   C2317774   2.908   3.311   6.722 -0.2035 -0.2174  0.6365
  159SAPE   H3R17775   2.981   3.240   6.679  0.7700  1.6439 -0.9376
  159SAPE   H3S17776   2.817   3.257   6.756 -0.8298 -0.2422 -1.0270
  159SAPE   C2417777   2.969   3.366   6.852 -0.6365  0.8855  0.1409
  159SAPE   H4R17778   2.899   3.443   6.890 -1.0542  0.7386 -0.3320
  159SAPE   H4S17779   3.060   3.425   6.828  1.2204 -1.4504  1.0005
  159SAPE   C2517780   3.009   3.255   6.949 -1.1756  0.6320  0.2819
  159SAPE   H5R17781   3.055   3.165   6.908 -2.5981 -0.4564  0.9680
  159SAPE   C2617782   2.978   3.248   7.080  0.6279  0.1403  0.3730
  159SAPE   H6R17783   3.014   3.167   7.145  0.6580  1.3061  1.8676
  159SAPE   C2717784   2.907   3.363   7.152  0.2727  0.0030  0.0121
  159SAPE   H7R17785   2.841   3.434   7.097  2.5401  1.0493 -1.4958
  159SAPE   H7S17786   2.979   3.441   7.186  1.5762 -1.3664  0.4676
  159SAPE   C2817787   2.832   3.312   7.279 -0.9387 -0.1107  0.1095
  159SAPE   H8R17788   2.723   3.299   7.267 -0.8267 -0.6803 -0.3788
  159SAPE   C2917789   2.890   3.286   7.401 -0.0328 -0.1008  0.1173
  159SAPE   H9R17790   2.837   3.225   7.476 -0.4468  1.6925  1.3455
  159SAPE  C21017791   3.039   3.287   7.428 -0.3525 -0.6053  0.4907
  159SAPE  H10R17792   3.052   3.385   7.480 -1.0449  0.2372 -0.8606
  159SAPE  H10S17793   3.098   3.288   7.334  1.4516 -1.0432  1.5677
  159SAPE  C21117794   3.089   3.179   7.514 -1.0199 -1.0977 -0.0409
  159SAPE  H11R17795   3.150   3.100   7.469  0.1220 -1.7028  2.4025
  159SAPE  C21217796   3.059   3.168   7.647  0.1304  0.8454 -0.5212
  159SAPE  H12R17797   3.104   3.083   7.701  2.2949  1.6814 -0.9163
  159SAPE  C21317798   2.967   3.259   7.735  0.0720  0.2826 -0.4758
  159SAPE  H13R17799   2.957   3.364   7.700  0.8175  1.3505  2.2493
  159SAPE  H13S17800   3.023   3.260   7.831 -1.3372  1.6259  0.3834
  159SAPE  C21417801   2.820   3.217   7.777  0.1301  0.1754  0.3548
  159SAPE  H14R17802   2.776   3.132   7.722 -0.6958  2.7329 -3.3327
  159SAPE  C21517803   2.730   3.294   7.847 -0.0617  0.1658 -0.2438
  159SAPE  H15R17804   2.626   3.259   7.853 -0.5490  1.0517 -2.4956
  159SAPE  C21617805   2.747   3.428   7.911 -0.3520 -0.0755 -0.4578
  159SAPE  H16R17806   2.665   3.498   7.887 -1.4127 -1.3006 -0.5135
  159SAPE  H16S17807   2.844   3.475   7.882 -0.5712  0.6475 -0.0315
  159SAPE  C21717808   2.749   3.417   8.069 -0.0907 -0.1353 -0.0193
  159SAPE  H17R17809   2.767   3.521   8.103  1.8939 -0.4371 -0.0593
  159SAPE  H17S17810   2.843   3.363   8.093  0.5459  1.4622  1.2427
  159SAPE  C21817811   2.626   3.373   8.142 -0.1969 -0.5759 -0.8726
  159SAPE  H18R17812   2.593   3.273   8.106 -0.2666 -0.7259 -0.3999
  159SAPE  H18S17813   2.552   3.454   8.123 -2.0302 -1.4915  1.7795
  159SAPE  C21917814   2.649   3.368   8.298 -0.5491  0.7350 -0.2046
  159SAPE  H19R17815   2.695   3.459   8.342  1.7152 -0.0940 -0.7364
  159SAPE  H19S17816   2.716   3.283   8.323 -0.8593 -0.1780 -2.2642
  159SAPE  C22017817   2.521   3.331   8.374 -0.1907  0.3975 -0.5452
  159SAPE  H20R17818   2.439   3.384   8.320 -0.1192  2.9187  1.6123
  159SAPE  H20S17819   2.516   3.367   8.479 -0.4022  0.6162 -0.6275
  159SAPE  H20T17820   2.503   3.222   8.365 -3.3339  0.7933 -0.2391
  159SAPE   C3317821   2.374   2.915   6.417 -0.0149 -0.3217  0.3792
  159SAPE   H3X17822   2.380   2.823   6.354  0.1073 -0.0632  0.0070
  159SAPE   H3Y17823   2.265   2.932   6.425 -0.1961 -1.4009  0.3856
  159SAPE   C3417824   2.434   2.895   6.553  0.1333 -0.6496  0.3959
  159SAPE   H4X17825   2.443   2.999   6.591 -1.6042 -0.3064 -0.0402
  159SAPE   H4Y17826   2.538   2.856   6.556 -0.5933 -2.6408  2.3272
  159SAPE   C3517827   2.345   2.804   6.637  0.4880 -0.0375  0.1332
  159SAPE   H5X17828   2.327   2.709   6.583 -0.0675  0.7736 -1.1481
  159SAPE   H5Y17829   2.245   2.848   6.654  0.7609  2.0280 -2.9467
  159SAPE   C3617830   2.405   2.753   6.783  0.4497 -0.3789  0.0290
  159SAPE   H6X17831   2.429   2.854   6.824 -1.9826  0.1235  0.3619
  159SAPE   H6Y17832   2.494   2.696   6.748  0.9017  0.0239  0.5036
  159SAPE   C3717833   2.304   2.700   6.884 -0.3007  0.1083 -0.1577
  159SAPE   H7X17834   2.294   2.593   6.856  1.3093 -0.0701 -0.1193
  159SAPE   H7Y17835   2.202   2.746   6.882 -0.3281  0.0367 -0.4268
  159SAPE   C3817836   2.367   2.711   7.021  0.5076  0.1341 -0.4111
  159SAPE   H8X17837   2.359   2.819   7.045  2.6264  0.3490 -0.4507
  159SAPE   H8Y17838   2.470   2.670   7.015  0.4860  0.3126 -3.6490
  159SAPE   C3917839   2.292   2.622   7.122 -0.1060  0.5323  0.1173
  159SAPE   H9X17840   2.336   2.522   7.100  2.5438  1.7577 -0.5361
  159SAPE   H9Y17841   2.183   2.631   7.104  0.3378  2.9353 -1.9508
  159SAPE  C31017842   2.326   2.658   7.265 -0.3112 -0.8673 -0.9840
  159SAPE  H10X17843   2.337   2.767   7.280  1.3207 -1.0708 -0.4532
  159SAPE  H10Y17844   2.425   2.612   7.286  0.7721  2.1747  1.3379
  159SAPE  C31117845   2.227   2.595   7.366  0.5746 -0.1658 -0.0247
  159SAPE  H11X17846   2.238   2.484   7.357  0.5006 -0.5030  2.9986
  159SAPE  H11Y17847   2.122   2.623   7.346  0.3408  1.3230  2.7574
  159SAPE  C31217848   2.258   2.633   7.513 -0.3266  0.1432  0.0528
  159SAPE  H12X17849   2.160   2.617   7.565 -0.9602 -1.0378 -1.4144
  159SAPE  H12Y17850   2.296   2.737   7.517  2.1510 -0.7174  0.3893
  159SAPE  C31317851   2.367   2.549   7.573 -0.1781 -0.1539 -0.6122
  159SAPE  H13X17852   2.462   2.565   7.518  0.6495 -2.7014 -0.0900
  159SAPE  H13Y17853   2.346   2.440   7.562 -0.1279 -0.1754 -0.4936
  159SAPE  C31417854   2.382   2.577   7.726 -0.3817 -0.0804 -0.0764
  159SAPE  H14X17855   2.398   2.686   7.738 -0.6719 -0.1455  0.9850
  159SAPE  H14Y17856   2.470   2.535   7.779 -1.7123 -1.7572  0.9001
  159SAPE  C31517857   2.250   2.547   7.806  0.3983  0.1966 -0.2964
  159SAPE  H15X17858   2.223   2.442   7.780  1.0184 -0.9069  2.9502
  159SAPE  H15Y17859   2.164   2.614   7.786 -0.4827 -0.1661  1.9675
  159SAPE  C31617860   2.271   2.546   7.963 -0.6630  0.0691  0.2578
  159SAPE  H16X17861   2.278   2.653   7.992  3.3709 -0.2419  1.0323
  159SAPE  H16Y17862   2.375   2.513   7.984  0.5937  1.8895 -2.5082
  159SAPE  C31717863   2.178   2.468   8.055  0.2586 -0.0525  0.3005
  159SAPE  H17X17864   2.203   2.366   8.019  1.7653  0.3060  0.2625
  159SAPE  H17Y17865   2.073   2.490   8.024 -0.1632 -0.1448  1.6046
  159SAPE  C31817866   2.199   2.490   8.201  0.0506 -0.1646 -0.0103
  159SAPE  H18X17867   2.182   2.597   8.226  0.8016  0.3429 -1.5070
  159SAPE  H18Y17868   2.300   2.457   8.234  1.0537  1.0342 -1.7218
  159SAPE  H18Z17869   2.130   2.436   8.269 -0.3584  3.0697  2.3790
  160SAPE     N17870   2.930   2.493   6.101 -0.8083 -0.0722  0.3720
  160SAPE   HN117871   3.021   2.542   6.086 -1.1235 -0.3699 -3.7066
  160SAPE   HN217872   2.859   2.538   6.039 -0.7893 -3.2065 -2.1842
  160SAPE   HN317873   2.914   2.510   6.202  1.6627  1.2951  0.6314
  160SAPE   C1217874   2.927   2.346   6.085 -0.2303 -0.0662  1.2447
  160SAPE  H12A17875   2.987   2.301   6.167 -0.2974 -2.0425  0.2730
  160SAPE  H12B17876   2.978   2.330   5.988 -1.3166 -0.3442  0.7058
  160SAPE   C1117877   2.778   2.292   6.076 -0.3360  0.3025  0.7841
  160SAPE  H11A17878   2.731   2.302   6.176  0.1977  0.0304  1.0686
  160SAPE  H11B17879   2.780   2.182   6.069 -1.2823  0.0957  2.9972
  160SAPE     P17880   2.557   2.313   5.934  0.6484 -0.3863 -0.1867
  160SAPE   O1317881   2.499   2.380   5.819  0.3852  0.0642  0.0003
  160SAPE   O1417882   2.555   2.166   5.936 -0.2585 -0.1843 -0.3109
  160SAPE   O1217883   2.710   2.356   5.966 -0.1546 -1.0589  0.0510
  160SAPE   O1117884   2.495   2.371   6.070  0.3288  0.9518 -0.1026
  160SAPE    C117885   2.491   2.502   6.102 -0.0562  0.4648  0.2615
  160SAPE    HA17886   2.592   2.548   6.115  0.0097 -0.0326  1.6151
  160SAPE    HB17887   2.445   2.560   6.019  0.5143 -1.9936 -1.9035
  160SAPE    C217888   2.401   2.519   6.231  1.1431  0.3816 -0.2258
  160SAPE    HS17889   2.397   2.626   6.260  1.8189  0.3237  0.1023
  160SAPE   O2117890   2.444   2.441   6.349  0.2260  0.2207 -0.1877
  160SAPE   C2117891   2.570   2.465   6.384 -0.9966  0.5145  0.1844
  160SAPE   O2217892   2.636   2.558   6.340  0.2693 -1.1106 -0.0237
  160SAPE   C2217893   2.617   2.371   6.489  0.1019  0.6005  0.0663
  160SAPE   H2R17894   2.573   2.271   6.467 -2.3629  1.3066  1.3336
  160SAPE   H2S17895   2.728   2.364   6.487  0.1794  1.1443  1.4468
  160SAPE    C317896   2.258   2.466   6.191  0.2960  0.7111  0.1441
  160SAPE    HX17897   2.271   2.357   6.176  1.0913  1.0828 -2.5953
  160SAPE    HY17898   2.232   2.510   6.092  2.0110 -1.2117 -1.2572
  160SAPE   O3117899   2.151   2.506   6.280 -0.0691  0.3693 -0.4214
  160SAPE   C3117900   2.040   2.452   6.235 -0.3005 -0.5330 -0.8913
  160SAPE   O3217901   2.022   2.385   6.136  0.2549  0.1457  0.2937
  160SAPE   C3217902   1.933   2.488   6.340  0.5105 -1.1826 -0.2086
  160SAPE   H2X17903   1.844   2.422   6.331 -1.7835  1.0199  3.6385
  160SAPE   H2Y17904   1.905   2.593   6.317  1.5860 -0.9445 -0.5088
  160SAPE   C2317905   2.562   2.414   6.630 -0.2429 -0.4302 -0.4397
  160SAPE   H3R17906   2.452   2.402   6.629  0.0186 -3.6027 -0.1225
  160SAPE   H3S17907   2.588   2.522   6.643  0.2681 -0.4717 -1.0532
  160SAPE   C2417908   2.631   2.339   6.741 -0.0585  0.3030 -0.0487
  160SAPE   H4R17909   2.740   2.363   6.734  0.3591 -1.4701 -0.1410
  160SAPE   H4S17910   2.629   2.229   6.727  1.8184 -0.1925  2.6668
  160SAPE   C2517911   2.580   2.378   6.878  0.1223  0.4686 -0.1522
  160SAPE   H5R17912   2.508   2.461   6.870 -0.6129 -0.0836  0.4926
  160SAPE   C2617913   2.631   2.339   7.001 -0.2702 -0.3642  0.1100
  160SAPE   H6R17914   2.595   2.384   7.095 -1.5909 -1.3167  0.0792
  160SAPE   C2717915   2.721   2.218   7.010  0.6923 -0.4462  0.3571
  160SAPE   H7R17916   2.693   2.154   6.924  0.1386 -0.4727  0.5538
  160SAPE   H7S17917   2.700   2.171   7.109  1.9965 -2.8552 -0.4321
  160SAPE   C2817918   2.871   2.239   6.999  0.0696  0.6182  0.0201
  160SAPE   H8R17919   2.909   2.336   6.966  1.4484 -0.0991 -0.5703
  160SAPE   C2917920   2.963   2.138   7.010  0.5845  0.7452 -0.3224
  160SAPE   H9R17921   3.068   2.166   6.995  0.8870  0.2142  0.7388
  160SAPE  C21017922   2.943   1.991   7.038 -0.5517 -0.0484  0.9200
  160SAPE  H10R17923   3.001   1.927   6.967  1.6420  1.8212  0.9203
  160SAPE  H10S17924   2.837   1.957   7.039 -0.8772  0.9565  0.9741
  160SAPE  C21117925   3.002   1.979   7.174  0.0582 -0.0322  0.3604
  160SAPE  H11R17926   3.107   2.006   7.190 -0.1325  0.3342  1.0325
  160SAPE  C21217927   2.938   1.974   7.291  0.8134  0.5148  0.5459
  160SAPE  H12R17928   2.993   1.977   7.386 -0.2747 -3.6039  1.5245
  160SAPE  C21317929   2.787   1.951   7.298 -0.3165 -0.0954  0.2498
  160SAPE  H13R17930   2.760   1.879   7.218  1.9972  0.3507 -1.0227
  160SAPE  H13S17931   2.729   2.039   7.266 -0.9630 -0.0901  1.3676
  160SAPE  C21417932   2.754   1.908   7.443  0.3156 -0.4178  0.5288
  160SAPE  H14R17933   2.801   1.814   7.473  0.9945 -1.2951 -2.8570
  160SAPE  C21517934   2.699   1.981   7.543  0.3231 -0.4610 -0.3728
  160SAPE  H15R17935   2.680   1.933   7.640  0.8209  1.4453  0.7151
  160SAPE  C21617936   2.635   2.114   7.536  0.7152  0.3182  0.4936
  160SAPE  H16R17937   2.559   2.120   7.455 -1.0729 -2.0318  1.8608
  160SAPE  H16S17938   2.704   2.196   7.507 -0.2824  0.4222 -1.8350
  160SAPE  C21717939   2.572   2.157   7.666 -0.4428  0.3242 -0.6248
  160SAPE  H17R17940   2.508   2.075   7.704 -0.6575  0.5741 -0.4354
  160SAPE  H17S17941   2.498   2.240   7.660 -0.0520  0.6926 -0.4298
  160SAPE  C21817942   2.682   2.189   7.764 -0.1885  0.1152  1.3029
  160SAPE  H18R17943   2.735   2.272   7.713 -0.4291  0.4519  1.5910
  160SAPE  H18S17944   2.750   2.104   7.783  0.5722  0.5690  0.6714
  160SAPE  C21917945   2.630   2.254   7.887  0.9512 -0.5287 -0.3854
  160SAPE  H19R17946   2.596   2.171   7.952 -1.6731 -0.2667 -1.2691
  160SAPE  H19S17947   2.533   2.306   7.873  0.9771 -0.2953  0.2667
  160SAPE  C22017948   2.717   2.351   7.974 -0.3230 -0.7367  0.4671
  160SAPE  H20R17949   2.651   2.414   8.037  2.0774  1.2283  1.1571
  160SAPE  H20S17950   2.771   2.419   7.906  1.1852 -2.2673  0.0632
  160SAPE  H20T17951   2.786   2.298   8.043  1.0223 -0.9631 -0.9987
  160SAPE   C3317952   1.972   2.488   6.489  0.3932 -0.5986 -0.6467
  160SAPE   H3X17953   2.069   2.540   6.504  0.6170 -1.5650  1.7210
  160SAPE   H3Y17954   1.995   2.388   6.529 -0.5904  0.3047  2.4484
  160SAPE   C3417955   1.870   2.573   6.579 -0.8278 -0.1471 -0.3073
  160SAPE   H4X17956   1.770   2.525   6.583 -1.1002  0.1656 -2.2856
  160SAPE   H4Y17957   1.849   2.669   6.528 -1.0990 -0.3013 -0.4871
  160SAPE   C3517958   1.929   2.622   6.713  0.2966 -0.2307  0.3429
  160SAPE   H5X17959   2.021   2.683   6.698  0.1338 -0.2813 -0.9734
  160SAPE   H5Y17960   1.959   2.524   6.754 -0.9337 -0.1496  1.4875
  160SAPE   C3617961   1.829   2.701   6.804 -0.1380  0.7069  0.6229
  160SAPE   H6X17962   1.725   2.666   6.784 -0.2328  2.0190 -1.6436
  160SAPE   H6Y17963   1.827   2.807   6.770 -2.1301 -0.1632 -2.3678
  160SAPE   C3717964   1.897   2.695   6.941 -0.1777 -0.3919 -0.4076
  160SAPE   H7X17965   1.970   2.779   6.939 -0.8592  0.2068 -0.4863
  160SAPE   H7Y17966   1.941   2.596   6.966  0.0636 -0.3285 -0.5871
  160SAPE   C3817967   1.805   2.733   7.061 -0.6272 -0.1921  0.8361
  160SAPE   H8X17968   1.719   2.663   7.059  0.5706 -1.6981 -0.6035
  160SAPE   H8Y17969   1.772   2.838   7.047  0.7997  0.2500  0.7152
  160SAPE   C3917970   1.880   2.729   7.195 -0.0449 -0.2268  0.6269
  160SAPE   H9X17971   1.954   2.812   7.192 -1.5044  1.1266  0.7071
  160SAPE   H9Y17972   1.935   2.632   7.201 -0.4108 -0.6695 -2.0570
  160SAPE  C31017973   1.796   2.759   7.313  0.4133  0.0479 -0.2963
  160SAPE  H10X17974   1.707   2.693   7.322  0.9547 -0.5123  1.4618
  160SAPE  H10Y17975   1.762   2.863   7.294  0.1358 -0.2776 -1.6690
  160SAPE  C31117976   1.882   2.742   7.442  0.8318  0.0387 -0.0196
  160SAPE  H11X17977   1.976   2.798   7.424  1.8616 -1.8627 -0.8469
  160SAPE  H11Y17978   1.907   2.635   7.462 -0.4669 -0.1086  0.9794
  160SAPE  C31217979   1.826   2.805   7.567  0.0496 -0.1605 -0.2969
  160SAPE  H12X17980   1.719   2.774   7.575 -0.4741  1.4871 -0.5162
  160SAPE  H12Y17981   1.816   2.915   7.578  0.3664 -0.2517  0.9976
  160SAPE  C31317982   1.895   2.749   7.687  0.0414  0.2063  0.2626
  160SAPE  H13X17983   1.995   2.797   7.696  0.8046 -1.1474 -0.7104
  160SAPE  H13Y17984   1.914   2.641   7.701  0.1661  0.3489  1.2939
  160SAPE  C31417985   1.816   2.780   7.806 -0.2903 -0.8189  0.4873
  160SAPE  H14X17986   1.718   2.730   7.791  0.6405 -2.0712 -1.9242
  160SAPE  H14Y17987   1.805   2.890   7.810 -0.1730 -0.7759 -0.2931
  160SAPE  C31517988   1.875   2.733   7.943 -0.7843 -1.1276  0.4624
  160SAPE  H15X17989   1.959   2.803   7.963 -0.7502 -0.5144 -1.6220
  160SAPE  H15Y17990   1.922   2.633   7.941 -0.1076 -0.8013 -0.4039
  160SAPE  C31617991   1.765   2.741   8.047  0.8077 -0.5615  0.4907
  160SAPE  H16X17992   1.685   2.668   8.021 -0.5597  1.4376 -1.1691
  160SAPE  H16Y17993   1.722   2.843   8.047 -1.2308 -1.3481 -1.1921
  160SAPE  C31717994   1.805   2.712   8.195  0.1359  0.4351 -0.6080
  160SAPE  H17X17995   1.721   2.754   8.254 -0.3078 -2.0752  0.6482
  160SAPE  H17Y17996   1.911   2.745   8.203  1.3371 -2.5850 -2.3245
  160SAPE  C31817997   1.817   2.564   8.243  0.1615 -0.5217  1.3311
  160SAPE  H18X17998   1.831   2.559   8.353  0.2397 -0.2680  1.3355
  160SAPE  H18Y17999   1.914   2.522   8.210 -0.1407 -0.4032  0.2687
  160SAPE  H18Z18000   1.737   2.499   8.203 -0.9382  2.0682 -1.0198
  161SAPE     N18001   3.231   0.407   5.374  0.1603  0.1892  0.2265
  161SAPE   HN118002   3.163   0.485   5.364 -1.0244 -1.0680 -2.7074
  161SAPE   HN218003   3.294   0.401   5.291 -0.0814  0.6448  0.0041
  161SAPE   HN318004   3.173   0.322   5.361 -0.0565  0.3172  0.3547
  161SAPE   C1218005   3.308   0.423   5.500  0.6197  0.5512  0.5133
  161SAPE  H12A18006   3.405   0.368   5.507  1.2814  1.6261  0.0332
  161SAPE  H12B18007   3.250   0.395   5.591  1.0129  0.8226  0.8474
  161SAPE   C1118008   3.334   0.571   5.512  0.1961 -0.1708  0.3924
  161SAPE  H11A18009   3.240   0.629   5.497 -0.1311 -1.1252 -1.5705
  161SAPE  H11B18010   3.400   0.616   5.435  0.3011  0.5113  0.8708
  161SAPE     P18011   3.369   0.734   5.732 -0.3455 -0.0545  0.3876
  161SAPE   O1318012   3.445   0.846   5.678 -0.6558 -0.2813 -0.2257
  161SAPE   O1418013   3.231   0.755   5.763 -0.2328  0.5456 -0.4020
  161SAPE   O1218014   3.385   0.602   5.641 -0.3730  0.0916  0.3759
  161SAPE   O1118015   3.452   0.697   5.857 -0.1002  0.2494 -0.0112
  161SAPE    C118016   3.511   0.563   5.879 -0.0058  0.3267 -0.3875
  161SAPE    HA18017   3.572   0.533   5.791  0.9194 -0.5458  0.5282
  161SAPE    HB18018   3.591   0.567   5.956  1.3788 -0.2730 -1.7451
  161SAPE    C218019   3.408   0.450   5.928 -0.0427  0.3078 -0.6813
  161SAPE    HS18020   3.337   0.434   5.845 -1.8354  1.4421  0.5560
  161SAPE   O2118021   3.341   0.501   6.047 -0.3183 -0.1934  0.4281
  161SAPE   C2118022   3.235   0.432   6.073  0.0490 -0.1084 -0.2904
  161SAPE   O2218023   3.202   0.329   6.018  0.1072  0.3482  0.1040
  161SAPE   C2218024   3.149   0.488   6.188 -0.2685  1.0271  0.7726
  161SAPE   H2R18025   3.206   0.546   6.263 -1.2551 -0.2675  2.5952
  161SAPE   H2S18026   3.075   0.552   6.136  0.2319  0.9166 -0.0917
  161SAPE    C318027   3.491   0.321   5.965 -0.1517  0.8142  0.6958
  161SAPE    HX18028   3.568   0.305   5.887 -1.3415  1.2266 -0.5950
  161SAPE    HY18029   3.425   0.231   5.963 -0.5135  1.0930 -0.2384
  161SAPE   O3118030   3.553   0.337   6.095 -0.1437  0.4569 -0.1142
  161SAPE   C3118031   3.502   0.280   6.202  0.0785  0.0583  0.9021
  161SAPE   O3218032   3.406   0.209   6.199  0.8772 -0.1947 -0.3460
  161SAPE   C3218033   3.600   0.304   6.317 -0.2661 -0.1662  0.6431
  161SAPE   H2X18034   3.685   0.365   6.280 -2.2811  2.0280 -0.6419
  161SAPE   H2Y18035   3.646   0.205   6.339 -0.6757 -0.0277  2.2708
  161SAPE   C2318036   3.058   0.388   6.267  0.5487 -0.1309  1.0911
  161SAPE   H3R18037   3.031   0.302   6.203 -0.8219  0.7688  0.4020
  161SAPE   H3S18038   2.960   0.428   6.300  0.1554  0.5983 -0.8125
  161SAPE   C2418039   3.124   0.329   6.391  0.0500 -0.1086  0.3125
  161SAPE   H4R18040   3.176   0.411   6.446  0.3342  0.4520 -0.7688
  161SAPE   H4S18041   3.220   0.281   6.362 -0.7540 -2.2763  1.0882
  161SAPE   C2518042   3.043   0.235   6.470  0.4180 -0.1820 -0.5184
  161SAPE   H5R18043   3.020   0.141   6.418 -0.1117  0.0165 -0.6474
  161SAPE   C2618044   3.012   0.237   6.600 -0.0795  0.6879 -0.1239
  161SAPE   H6R18045   2.963   0.155   6.655  0.0322  1.3079  0.9368
  161SAPE   C2718046   3.040   0.348   6.694 -0.1551  0.1597  0.2037
  161SAPE   H7R18047   2.957   0.352   6.768 -0.9290  0.3866 -0.6620
  161SAPE   H7S18048   3.039   0.435   6.625  1.1766  0.9007  1.0497
  161SAPE   C2818049   3.170   0.359   6.755 -0.5147 -0.3941 -0.6497
  161SAPE   H8R18050   3.260   0.327   6.700 -0.9884 -0.1023 -1.6298
  161SAPE   C2918051   3.190   0.399   6.883 -0.0092 -0.2863  0.5142
  161SAPE   H9R18052   3.294   0.424   6.910  0.0765 -2.0476  2.0187
  161SAPE  C21018053   3.089   0.444   6.989  0.0364  0.3162  0.0403
  161SAPE  H10R18054   2.981   0.436   6.964 -0.1476  1.6338  0.3585
  161SAPE  H10S18055   3.119   0.549   7.011 -0.5042  0.6712 -0.8308
  161SAPE  C21118056   3.099   0.372   7.119 -0.5831 -0.1761  0.9048
  161SAPE  H11R18057   3.074   0.266   7.102  0.5123 -0.2441 -0.5008
  161SAPE  C21218058   3.121   0.427   7.239 -0.4551 -0.0993  0.4935
  161SAPE  H12R18059   3.109   0.362   7.327 -2.1725  0.2206  0.5319
  161SAPE  C21318060   3.151   0.574   7.280  0.3405  0.3817  0.3186
  161SAPE  H13R18061   3.092   0.595   7.372  0.0622 -1.7426  0.6615
  161SAPE  H13S18062   3.116   0.649   7.205  0.2009  0.0668  0.0707
  161SAPE  C21418063   3.302   0.598   7.301  0.2735  0.5720  0.4398
  161SAPE  H14R18064   3.360   0.598   7.208 -1.6453 -1.7168 -0.8506
  161SAPE  C21518065   3.355   0.653   7.408 -0.2513 -0.2130 -0.3131
  161SAPE  H15R18066   3.461   0.682   7.401  0.3895 -1.8330  1.7216
  161SAPE  C21618067   3.296   0.684   7.547  0.0816 -0.2917 -0.4136
  161SAPE  H16R18068   3.214   0.612   7.569  0.3442 -1.0368 -1.8002
  161SAPE  H16S18069   3.275   0.793   7.556 -0.1180 -0.2361 -1.4675
  161SAPE  C21718070   3.397   0.668   7.654  0.4712  0.7320 -0.5732
  161SAPE  H17R18071   3.474   0.742   7.622  0.7554  0.8764  0.4189
  161SAPE  H17S18072   3.442   0.566   7.650  1.2600  1.1115 -2.3139
  161SAPE  C21818073   3.343   0.695   7.788  0.1097 -0.1384 -0.2901
  161SAPE  H18R18074   3.265   0.618   7.808  0.8640 -1.0919 -0.9728
  161SAPE  H18S18075   3.288   0.792   7.787  0.6867  0.2017  0.3519
  161SAPE  C21918076   3.447   0.691   7.903  0.3726 -0.1518  0.3219
  161SAPE  H19R18077   3.519   0.772   7.880 -0.3952  0.4241 -0.0855
  161SAPE  H19S18078   3.512   0.601   7.903  0.4312 -0.1508  2.1195
  161SAPE  C22018079   3.386   0.709   8.038 -0.0247  0.3618 -0.0224
  161SAPE  H20R18080   3.446   0.675   8.125 -4.9503 -2.7617  2.6821
  161SAPE  H20S18081   3.306   0.632   8.051 -0.6235  1.0476  0.4748
  161SAPE  H20T18082   3.339   0.807   8.062  3.6635  2.5258 -0.8494
  161SAPE   C3318083   3.537   0.350   6.449 -0.2943  0.0617  1.1400
  161SAPE   H3X18084   3.468   0.267   6.473 -0.2613 -0.9086 -1.7260
  161SAPE   H3Y18085   3.491   0.449   6.428  0.0724 -0.0637 -0.3445
  161SAPE   C3418086   3.645   0.362   6.560  0.2540 -0.2767  0.0335
  161SAPE   H4X18087   3.709   0.444   6.520 -2.2368  0.9125 -1.8213
  161SAPE   H4Y18088   3.700   0.268   6.579 -0.4609 -0.0338  4.2903
  161SAPE   C3518089   3.579   0.400   6.699 -0.2940 -0.1058  0.3968
  161SAPE   H5X18090   3.502   0.323   6.721  1.2820 -1.5437  1.1058
  161SAPE   H5Y18091   3.536   0.502   6.687 -0.0714 -0.0348  0.1900
  161SAPE   C3618092   3.682   0.387   6.812 -0.6273 -0.6251 -0.7481
  161SAPE   H6X18093   3.769   0.453   6.792  1.3973 -2.9529 -0.0484
  161SAPE   H6Y18094   3.715   0.282   6.821 -1.0120 -0.9039 -2.3927
  161SAPE   C3718095   3.621   0.405   6.956 -0.2144 -0.8173 -0.0852
  161SAPE   H7X18096   3.535   0.335   6.966 -1.1712  0.5105  1.4731
  161SAPE   H7Y18097   3.596   0.513   6.951 -1.1616 -1.0643 -1.1553
  161SAPE   C3818098   3.711   0.385   7.075  0.1208 -0.4072 -0.4952
  161SAPE   H8X18099   3.778   0.472   7.059  0.0335 -0.0991  0.7052
  161SAPE   H8Y18100   3.779   0.297   7.074  0.3226 -0.2575 -2.1763
  161SAPE   C3918101   3.634   0.389   7.212  0.0627  0.1772 -0.4015
  161SAPE   H9X18102   3.560   0.305   7.211 -0.8622  0.9666 -1.9967
  161SAPE   H9Y18103   3.566   0.477   7.211  0.9244  0.8862  0.9162
  161SAPE  C31018104   3.726   0.397   7.341  0.2792  0.4354  0.3238
  161SAPE  H10X18105   3.790   0.487   7.333 -0.6886  1.0047 -4.5680
  161SAPE  H10Y18106   3.790   0.308   7.326  0.4845  0.7417 -0.7266
  161SAPE  C31118107   3.665   0.382   7.479 -0.4166 -0.1480 -0.1890
  161SAPE  H11X18108   3.594   0.296   7.485  1.3430 -1.5741  1.9668
  161SAPE  H11Y18109   3.609   0.475   7.502 -0.2540 -0.1388  0.1813
  161SAPE  C31218110   3.785   0.359   7.573 -0.8521 -0.0023 -0.2737
  161SAPE  H12X18111   3.859   0.440   7.555 -1.0783  0.2676  0.0022
  161SAPE  H12Y18112   3.835   0.262   7.552  1.9772  1.1607  0.5193
  161SAPE  C31318113   3.752   0.386   7.727 -0.2731  0.4150  0.5386
  161SAPE  H13X18114   3.702   0.294   7.761 -0.5947 -0.4074 -1.9253
  161SAPE  H13Y18115   3.674   0.461   7.751  1.0284  1.2983  2.2280
  161SAPE  C31418116   3.875   0.430   7.800  0.2853 -0.5655  0.3249
  161SAPE  H14X18117   3.925   0.514   7.747 -0.6112 -0.3748 -0.2480
  161SAPE  H14Y18118   3.959   0.358   7.803  0.7842  0.0236  0.6743
  161SAPE  C31518119   3.845   0.477   7.943 -0.1415 -0.7982 -0.9561
  161SAPE  H15X18120   3.756   0.543   7.943 -0.0393 -0.6538 -1.3916
  161SAPE  H15Y18121   3.930   0.539   7.980 -0.2948 -1.1748  0.0614
  161SAPE  C31618122   3.829   0.360   8.046  0.3558 -0.2416 -0.4406
  161SAPE  H16X18123   3.916   0.291   8.038  2.6937  2.5893 -1.2276
  161SAPE  H16Y18124   3.749   0.292   8.009  0.3056 -0.2455 -0.3252
  161SAPE  C31718125   3.818   0.407   8.193  0.2578 -0.0643  0.3231
  161SAPE  H17X18126   3.736   0.481   8.208 -0.6002 -1.0277  0.5032
  161SAPE  H17Y18127   3.915   0.450   8.225  0.4544 -1.5160  1.7627
  161SAPE  C31818128   3.797   0.289   8.288 -0.0310 -1.3482 -0.0825
  161SAPE  H18X18129   3.888   0.225   8.282  0.6819 -0.2540 -1.8121
  161SAPE  H18Y18130   3.702   0.239   8.259 -0.6801  1.4897 -3.6406
  161SAPE  H18Z18131   3.783   0.334   8.389  1.2212  0.5073 -0.6742
  162SAPE     N18132   1.338   0.067   5.684 -0.2103 -0.0041 -0.3637
  162SAPE   HN118133   1.362   0.154   5.633  0.8126  0.2014  0.4330
  162SAPE   HN218134   1.323  -0.000   5.605 -1.3682 -0.2985  0.0926
  162SAPE   HN318135   1.246   0.075   5.731  0.4080  2.5446  0.5649
  162SAPE   C1218136   1.455   0.021   5.766 -0.0126  0.2699  0.2236
  162SAPE  H12A18137   1.504   0.103   5.824  1.2274 -1.0873  1.1455
  162SAPE  H12B18138   1.521  -0.015   5.685 -2.2596  0.1899 -1.6823
  162SAPE   C1118139   1.401  -0.087   5.858 -0.0454 -0.1849 -1.0564
  162SAPE  H11A18140   1.323  -0.045   5.924  0.9667 -1.2968  0.9530
  162SAPE  H11B18141   1.482  -0.115   5.928  1.4363  1.7595 -1.8859
  162SAPE     P18142   1.427  -0.329   5.760  0.5520  0.3429  0.1501
  162SAPE   O1318143   1.340  -0.425   5.690  0.3547 -0.2033 -0.2358
  162SAPE   O1418144   1.564  -0.302   5.706 -0.8807 -0.0985 -0.4009
  162SAPE   O1218145   1.344  -0.193   5.776  0.3491  0.2778  0.6720
  162SAPE   O1118146   1.433  -0.376   5.908  0.4516 -0.0049 -0.5818
  162SAPE    C118147   1.323  -0.392   5.995 -0.3489  0.2806  0.0914
  162SAPE    HA18148   1.257  -0.303   6.005 -1.6841 -0.5728 -0.8295
  162SAPE    HB18149   1.255  -0.474   5.962 -1.0884 -0.6520  3.5030
  162SAPE    C218150   1.367  -0.431   6.145 -0.1981 -0.2094 -0.2312
  162SAPE    HS18151   1.282  -0.410   6.213  0.7286  4.0204 -0.0885
  162SAPE   O2118152   1.476  -0.353   6.196  0.2989  0.2097  0.2239
  162SAPE   C2118153   1.455  -0.224   6.208  0.4411  0.3219 -0.7285
  162SAPE   O2218154   1.342  -0.174   6.196 -0.5289  0.1722 -0.1609
  162SAPE   C2218155   1.584  -0.150   6.240 -0.1681 -0.3212 -0.5700
  162SAPE   H2R18156   1.675  -0.213   6.245  0.8781  1.2027  0.4989
  162SAPE   H2S18157   1.603  -0.080   6.155 -0.2701  0.1338 -0.2236
  162SAPE    C318158   1.402  -0.583   6.145  0.4634  0.3491  0.1115
  162SAPE    HX18159   1.508  -0.591   6.112  0.6163  0.0819  0.6549
  162SAPE    HY18160   1.337  -0.645   6.080  0.8156  1.5950 -1.5003
  162SAPE   O3118161   1.401  -0.641   6.276  0.3901 -0.4391 -0.0301
  162SAPE   C3118162   1.278  -0.675   6.330 -0.5461 -0.3668  0.1382
  162SAPE   O3218163   1.171  -0.660   6.276  0.4515  0.1315 -0.1770
  162SAPE   C3218164   1.296  -0.720   6.474  0.0986  0.0511  0.4585
  162SAPE   H2X18165   1.323  -0.629   6.531  0.2297 -0.7196  1.6522
  162SAPE   H2Y18166   1.384  -0.786   6.485  2.4118  2.4818 -1.9343
  162SAPE   C2318167   1.570  -0.073   6.370  0.8828  0.4386  0.7032
  162SAPE   H3R18168   1.479  -0.009   6.366  1.3111  0.9761 -1.5586
  162SAPE   H3S18169   1.664  -0.016   6.383  0.3620  0.9362  2.6114
  162SAPE   C2418170   1.567  -0.160   6.504 -0.0774 -0.3900  0.4135
  162SAPE   H4R18171   1.466  -0.204   6.514 -0.3796  0.4291  1.1060
  162SAPE   H4S18172   1.568  -0.091   6.591 -0.7302 -1.9992  1.7367
  162SAPE   C2518173   1.679  -0.257   6.518 -0.3140  0.0039 -1.2634
  162SAPE   H5R18174   1.776  -0.229   6.475  1.6825 -2.1159  1.4488
  162SAPE   C2618175   1.669  -0.383   6.565  0.2405  0.1601 -0.3376
  162SAPE   H6R18176   1.762  -0.437   6.590 -1.0335 -0.7613  2.9328
  162SAPE   C2718177   1.550  -0.456   6.622 -0.3180 -0.6357  0.4877
  162SAPE   H7R18178   1.574  -0.564   6.628 -2.2095 -1.1925 -1.0614
  162SAPE   H7S18179   1.471  -0.446   6.545  1.1789  0.3244 -0.9988
  162SAPE   C2818180   1.516  -0.395   6.761 -0.6643 -0.4323 -0.3063
  162SAPE   H8R18181   1.502  -0.286   6.749  2.4274  0.1299  0.4007
  162SAPE   C2918182   1.495  -0.456   6.881 -0.5184 -0.2629  0.4823
  162SAPE   H9R18183   1.471  -0.391   6.966 -1.3511  0.9760 -0.6676
  162SAPE  C21018184   1.517  -0.605   6.911 -0.1641  0.2415 -0.0005
  162SAPE  H10R18185   1.596  -0.602   6.989  0.5721  0.3302 -0.7413
  162SAPE  H10S18186   1.573  -0.662   6.835  1.0018  0.5233  0.6196
  162SAPE  C21118187   1.387  -0.670   6.958  0.1375 -0.8876  0.2408
  162SAPE  H11R18188   1.305  -0.666   6.885 -0.0846  0.7727  0.5451
  162SAPE  C21218189   1.360  -0.716   7.081 -0.5598 -0.1373 -0.3882
  162SAPE  H12R18190   1.265  -0.764   7.105 -0.8326  0.1902 -0.8117
  162SAPE  C21318191   1.462  -0.704   7.190 -0.0410  0.1672  0.1435
  162SAPE  H13R18192   1.409  -0.713   7.287  1.6720 -0.1581  1.0999
  162SAPE  H13S18193   1.504  -0.602   7.176 -0.8149  0.5247  0.4063
  162SAPE  C21418194   1.568  -0.810   7.186 -0.0515  0.0476  0.1171
  162SAPE  H14R18195   1.602  -0.825   7.082  0.0521  1.6318 -0.0934
  162SAPE  C21518196   1.622  -0.882   7.284  0.5197 -0.3368  0.2123
  162SAPE  H15R18197   1.702  -0.952   7.259 -0.9368 -1.3991 -1.7423
  162SAPE  C21618198   1.572  -0.880   7.428 -0.5297  0.4709  0.3183
  162SAPE  H16R18199   1.623  -0.955   7.492 -0.4477 -0.7932 -1.1812
  162SAPE  H16S18200   1.462  -0.896   7.425 -0.4311 -0.3701  0.8054
  162SAPE  C21718201   1.591  -0.742   7.502 -0.0082  1.0410  0.0681
  162SAPE  H17R18202   1.530  -0.663   7.453  0.8230  1.8088  0.2500
  162SAPE  H17S18203   1.696  -0.708   7.494  0.7372 -1.4537 -3.0491
  162SAPE  C21818204   1.544  -0.764   7.641  0.1635  0.5439  0.3898
  162SAPE  H18R18205   1.601  -0.852   7.678  0.1688  0.0658 -0.7048
  162SAPE  H18S18206   1.435  -0.788   7.645  0.1700  0.4334 -0.0232
  162SAPE  C21918207   1.574  -0.638   7.723  0.2402  0.5687 -0.0617
  162SAPE  H19R18208   1.509  -0.552   7.693 -1.1843  0.7880  3.1900
  162SAPE  H19S18209   1.681  -0.616   7.703  0.7347  0.1959  1.9432
  162SAPE  C22018210   1.534  -0.678   7.867  0.1938  0.0929 -0.4195
  162SAPE  H20R18211   1.431  -0.719   7.878  0.4480 -0.5349 -0.2900
  162SAPE  H20S18212   1.538  -0.589   7.933 -0.2596  0.0323 -0.3073
  162SAPE  H20T18213   1.603  -0.759   7.899  0.7831 -0.3813 -2.6800
  162SAPE   C3318214   1.162  -0.779   6.525  0.1545  0.6155 -0.6692
  162SAPE   H3X18215   1.083  -0.700   6.525  1.4223  1.9180 -1.1088
  162SAPE   H3Y18216   1.158  -0.794   6.635  1.9659 -2.2007 -0.8828
  162SAPE   C3418217   1.129  -0.915   6.465  0.0204 -0.3282 -0.2099
  162SAPE   H4X18218   1.135  -0.910   6.354  0.3528 -0.0019 -0.1777
  162SAPE   H4Y18219   1.022  -0.929   6.494 -0.1883 -0.3957 -0.9966
  162SAPE   C3518220   1.212  -1.031   6.528  0.1084 -0.9737 -0.2820
  162SAPE   H5X18221   1.304  -1.033   6.466  0.5907 -1.0336  0.4336
  162SAPE   H5Y18222   1.161  -1.127   6.505  0.1240 -1.2380  0.7520
  162SAPE   C3618223   1.250  -1.041   6.682 -0.0173  0.0116 -0.6386
  162SAPE   H6X18224   1.163  -1.071   6.744  1.2075 -2.7063 -0.0798
  162SAPE   H6Y18225   1.288  -0.944   6.719  0.4913 -0.4146 -0.0219
  162SAPE   C3718226   1.372  -1.133   6.707  0.3535  0.0791  0.3829
  162SAPE   H7X18227   1.451  -1.083   6.645  0.3256 -0.9491 -0.5122
  162SAPE   H7Y18228   1.346  -1.234   6.671  2.7414 -0.4958  0.0807
  162SAPE   C3818229   1.413  -1.128   6.850 -0.0494  0.7416 -0.4521
  162SAPE   H8X18230   1.424  -1.021   6.876 -0.5678  0.0489  3.1741
  162SAPE   H8Y18231   1.508  -1.178   6.877 -0.8423 -0.3459  0.4168
  162SAPE   C3918232   1.316  -1.190   6.951  0.0941 -0.0428 -0.8722
  162SAPE   H9X18233   1.305  -1.296   6.919 -1.0430 -0.3323  0.4248
  162SAPE   H9Y18234   1.212  -1.151   6.945  0.3281  0.3885 -4.4323
  162SAPE  C31018235   1.372  -1.179   7.089  0.4967 -0.4912  0.1462
  162SAPE  H10X18236   1.355  -1.076   7.126  0.9505 -0.5893  0.6323
  162SAPE  H10Y18237   1.482  -1.193   7.090  0.4114 -1.1849  0.5002
  162SAPE  C31118238   1.304  -1.273   7.193  0.0932  0.6587  0.4436
  162SAPE  H11X18239   1.324  -1.374   7.152  0.7928  1.8766 -2.5264
  162SAPE  H11Y18240   1.196  -1.248   7.184 -0.7416 -2.7541 -0.5922
  162SAPE  C31218241   1.350  -1.245   7.338 -0.6506 -0.2072 -0.6117
  162SAPE  H12X18242   1.300  -1.311   7.412 -0.0695  0.6314  0.5551
  162SAPE  H12Y18243   1.321  -1.142   7.369 -1.1850 -0.5275 -0.0267
  162SAPE  C31318244   1.504  -1.272   7.372 -0.0583 -1.2102  0.1631
  162SAPE  H13X18245   1.564  -1.213   7.299 -1.5076  1.2867  0.8524
  162SAPE  H13Y18246   1.530  -1.378   7.352  0.8123 -0.7125 -1.5107
  162SAPE  C31418247   1.539  -1.229   7.514  0.1953 -0.5565  0.2928
  162SAPE  H14X18248   1.497  -1.128   7.534  2.3943  0.5438 -0.2865
  162SAPE  H14Y18249   1.649  -1.225   7.529  0.0891 -0.1771  0.9983
  162SAPE  C31518250   1.505  -1.335   7.626  0.1410 -0.6038 -0.4560
  162SAPE  H15X18251   1.549  -1.435   7.604  1.1870 -0.7448  2.0026
  162SAPE  H15Y18252   1.395  -1.340   7.642  0.1978  0.6828  0.4874
  162SAPE  C31618253   1.580  -1.318   7.759  0.3738 -0.6935  0.8230
  162SAPE  H16X18254   1.687  -1.333   7.733 -0.1459 -0.5191 -1.7515
  162SAPE  H16Y18255   1.546  -1.401   7.824 -0.0747 -0.9179  0.3141
  162SAPE  C31718256   1.548  -1.182   7.822  0.0016 -0.3150 -0.5746
  162SAPE  H17X18257   1.438  -1.168   7.835 -0.6687 -1.9998 -3.6128
  162SAPE  H17Y18258   1.584  -1.104   7.751 -0.4123  1.3617  0.9710
  162SAPE  C31818259   1.612  -1.152   7.954  0.1442  0.6817  0.1414
  162SAPE  H18X18260   1.595  -1.236   8.023 -0.8963  0.2241 -0.6493
  162SAPE  H18Y18261   1.573  -1.061   8.004 -0.1477 -1.5032  4.2971
  162SAPE  H18Z18262   1.722  -1.143   7.936  0.5767 -2.8170  0.4396
  163SAPE     N18263   0.517   1.094   5.994  0.0423 -0.0744 -0.2820
  163SAPE   HN118264   0.509   0.992   5.980  0.8065 -0.4882  1.8250
  163SAPE   HN218265   0.608   1.130   5.957 -0.4703 -0.0497 -1.5675
  163SAPE   HN318266   0.505   1.106   6.097 -0.2077 -0.6086 -0.2457
  163SAPE   C1218267   0.410   1.168   5.916 -0.5937 -0.2684  0.2233
  163SAPE  H12A18268   0.314   1.118   5.942 -0.4896 -0.2411  0.6710
  163SAPE  H12B18269   0.437   1.144   5.811  1.3659 -1.0123  0.8355
  163SAPE   C1118270   0.415   1.317   5.931  0.4699 -0.6748 -0.1398
  163SAPE  H11A18271   0.379   1.349   6.031 -1.1964 -1.1426 -0.5485
  163SAPE  H11B18272   0.341   1.362   5.862  1.5392  2.3210  0.5403
  163SAPE     P18273   0.571   1.523   5.901  0.0436  0.2326  0.1774
  163SAPE   O1318274   0.544   1.571   5.762  0.0714 -0.5234 -0.1451
  163SAPE   O1418275   0.499   1.586   6.011  0.1863 -0.5084 -0.1954
  163SAPE   O1218276   0.543   1.367   5.907 -0.8327 -0.4785 -0.7068
  163SAPE   O1118277   0.718   1.536   5.933 -0.3528 -0.1564 -0.1636
  163SAPE    C118278   0.785   1.443   6.007 -0.4068 -0.5144  0.3886
  163SAPE    HA18279   0.790   1.341   5.963 -1.6897  0.3992 -2.0386
  163SAPE    HB18280   0.891   1.478   6.010 -0.7110  0.4008  0.7319
  163SAPE    C218281   0.739   1.427   6.158  0.0230 -0.2641 -0.1116
  163SAPE    HS18282   0.634   1.393   6.162  1.0311 -3.6269  0.9538
  163SAPE   O2118283   0.758   1.548   6.234 -1.1203 -0.1285 -0.6142
  163SAPE   C2118284   0.662   1.593   6.319  0.9602  0.8837  0.4485
  163SAPE   O2218285   0.554   1.544   6.338  0.3251  0.5433  0.2414
  163SAPE   C2218286   0.725   1.710   6.395  0.4402 -0.6761 -0.3296
  163SAPE   H2R18287   0.808   1.666   6.454 -0.2260 -0.1173  1.0828
  163SAPE   H2S18288   0.760   1.778   6.314 -3.4907  1.4609 -0.4623
  163SAPE    C318289   0.822   1.315   6.220 -0.4910  0.1511 -0.3614
  163SAPE    HX18290   0.921   1.360   6.243 -0.9857  0.5066  1.2017
  163SAPE    HY18291   0.838   1.224   6.159 -3.7582 -2.0030  1.6474
  163SAPE   O3118292   0.779   1.278   6.349  0.2875  0.0184  0.2482
  163SAPE   C3118293   0.679   1.188   6.340 -0.0385  0.2770  0.7507
  163SAPE   O3218294   0.635   1.152   6.232  0.0357  0.3827 -0.7239
  163SAPE   C3218295   0.643   1.141   6.484 -0.0063 -0.2514 -0.3441
  163SAPE   H2X18296   0.691   1.041   6.492  0.7705  0.1647  0.3489
  163SAPE   H2Y18297   0.532   1.133   6.484  0.0566 -1.3416 -0.9198
  163SAPE   C2318298   0.629   1.791   6.492 -0.7230 -0.2061 -0.2247
  163SAPE   H3R18299   0.589   1.723   6.570  1.1130 -0.3260  0.6604
  163SAPE   H3S18300   0.548   1.824   6.423  1.9277  0.8642 -2.9979
  163SAPE   C2418301   0.701   1.917   6.554  0.3169  0.2203 -0.0264
  163SAPE   H4R18302   0.718   2.002   6.484 -0.1522  0.2315 -0.1260
  163SAPE   H4S18303   0.803   1.879   6.575  0.6830 -0.5800 -2.8997
  163SAPE   C2518304   0.639   1.962   6.684  0.3081 -0.3200  0.8946
  163SAPE   H5R18305   0.556   2.033   6.670 -0.8564 -1.4045  2.0525
  163SAPE   C2618306   0.663   1.916   6.811 -0.3640  0.0999 -0.5475
  163SAPE   H6R18307   0.620   1.969   6.897  0.1036 -1.0744  0.4443
  163SAPE   C2718308   0.753   1.806   6.858  0.3129  0.5354  0.1862
  163SAPE   H7R18309   0.852   1.857   6.868  0.5647  0.2603 -0.8397
  163SAPE   H7S18310   0.780   1.737   6.776 -0.5816 -0.7888  0.9848
  163SAPE   C2818311   0.701   1.715   6.965  0.5435  0.1569  0.0866
  163SAPE   H8R18312   0.692   1.608   6.940  0.6918  0.3211 -0.6970
  163SAPE   C2918313   0.687   1.756   7.094 -0.4131 -0.4698 -0.3345
  163SAPE   H9R18314   0.642   1.680   7.160 -0.2307 -0.6801 -0.4476
  163SAPE  C21018315   0.728   1.895   7.154  0.4408  0.1234  0.0747
  163SAPE  H10R18316   0.642   1.929   7.215 -2.5610 -3.0351 -2.0058
  163SAPE  H10S18317   0.748   1.971   7.075  0.1239 -0.6045 -0.7222
  163SAPE  C21118318   0.854   1.875   7.230  0.2643 -0.0461  0.2209
  163SAPE  H11R18319   0.947   1.903   7.178 -1.3803  0.8820 -2.4020
  163SAPE  C21218320   0.858   1.854   7.366 -0.7894 -0.0672  0.2355
  163SAPE  H12R18321   0.957   1.842   7.411 -0.4531 -2.4281 -0.9669
  163SAPE  C21318322   0.729   1.808   7.440 -0.2805  0.8974  0.2915
  163SAPE  H13R18323   0.753   1.722   7.506 -0.2524 -0.7401 -1.7411
  163SAPE  H13S18324   0.664   1.762   7.363  0.4932  1.1122 -0.5014
  163SAPE  C21418325   0.665   1.925   7.507  0.8758 -0.1948 -0.1582
  163SAPE  H14R18326   0.649   2.013   7.443 -2.3659  0.2872  1.1298
  163SAPE  C21518327   0.629   1.934   7.638 -0.4874 -0.1852 -0.3879
  163SAPE  H15R18328   0.584   2.026   7.678  0.8726 -0.4444  1.9303
  163SAPE  C21618329   0.636   1.819   7.742  0.2091  0.2541 -0.0547
  163SAPE  H16R18330   0.704   1.843   7.827 -1.6086  0.0756  1.5068
  163SAPE  H16S18331   0.671   1.735   7.679  0.1227  1.3627 -1.6309
  163SAPE  C21718332   0.508   1.774   7.813  0.7124  0.3442 -0.2720
  163SAPE  H17R18333   0.449   1.859   7.853 -0.1105  0.0355 -0.8020
  163SAPE  H17S18334   0.528   1.704   7.897  0.2542 -0.0753 -0.5134
  163SAPE  C21818335   0.414   1.704   7.717 -0.5628  0.4845  0.3078
  163SAPE  H18R18336   0.465   1.645   7.638 -0.2427 -0.6213  1.3137
  163SAPE  H18S18337   0.373   1.788   7.656  0.6968  0.1120 -1.1112
  163SAPE  C21918338   0.311   1.608   7.778  0.5405 -0.8644  0.0416
  163SAPE  H19R18339   0.231   1.670   7.824  2.2600  0.3674  1.4674
  163SAPE  H19S18340   0.371   1.541   7.842  2.3216  0.7806  0.1852
  163SAPE  C22018341   0.241   1.542   7.664  0.0643  0.1716 -0.4949
  163SAPE  H20R18342   0.164   1.603   7.613 -1.2905 -0.5256  0.6354
  163SAPE  H20S18343   0.189   1.453   7.706 -0.6486  0.7198 -0.1941
  163SAPE  H20T18344   0.314   1.497   7.593  2.0403  1.6844  0.4731
  163SAPE   C3318345   0.689   1.240   6.597  0.4551  0.2065  0.1282
  163SAPE   H3X18346   0.681   1.348   6.573 -0.1957 -0.1542 -1.4253
  163SAPE   H3Y18347   0.799   1.233   6.610  0.3125  0.0349  1.4118
  163SAPE   C3418348   0.639   1.199   6.736  0.0350  0.9345 -0.4628
  163SAPE   H4X18349   0.642   1.090   6.759  2.4456  1.0561  0.0666
  163SAPE   H4Y18350   0.529   1.215   6.735 -0.1066  0.0724 -1.7563
  163SAPE   C3518351   0.698   1.274   6.853  0.2901  0.1830  0.4421
  163SAPE   H5X18352   0.686   1.383   6.833 -1.0528 -0.3462 -1.9486
  163SAPE   H5Y18353   0.807   1.252   6.853  0.6737  1.9030  0.9704
  163SAPE   C3618354   0.634   1.237   6.990 -0.2988  0.4427  0.6217
  163SAPE   H6X18355   0.652   1.131   7.016 -2.3476 -0.6247 -1.9726
  163SAPE   H6Y18356   0.529   1.261   7.018 -0.1314  0.6817  1.0718
  163SAPE   C3718357   0.708   1.310   7.101  0.0297 -0.5776 -0.4110
  163SAPE   H7X18358   0.698   1.420   7.090  0.9192 -0.2301  1.6919
  163SAPE   H7Y18359   0.819   1.299   7.091  0.2788 -0.5615  1.7655
  163SAPE   C3818360   0.672   1.274   7.244 -0.4014  1.0880 -0.0437
  163SAPE   H8X18361   0.741   1.189   7.264  0.4805  1.8259  0.1600
  163SAPE   H8Y18362   0.570   1.231   7.248  0.4199 -0.9055  1.9981
  163SAPE   C3918363   0.683   1.378   7.355 -0.7040 -0.5204 -0.3603
  163SAPE   H9X18364   0.593   1.443   7.348 -0.0335  0.2788 -2.1931
  163SAPE   H9Y18365   0.772   1.444   7.350  0.9656 -2.6238 -0.2182
  163SAPE  C31018366   0.677   1.311   7.488 -0.5385 -0.4214 -0.6255
  163SAPE  H10X18367   0.770   1.250   7.487  2.8699  4.2191  0.1462
  163SAPE  H10Y18368   0.588   1.244   7.494  1.2734 -2.9666 -0.6347
  163SAPE  C31118369   0.693   1.410   7.606 -1.2107 -0.4468  0.5789
  163SAPE  H11X18370   0.602   1.472   7.587 -0.2781  0.0466 -3.0730
  163SAPE  H11Y18371   0.777   1.478   7.580 -1.2600 -0.6199 -0.0396
  163SAPE  C31218372   0.691   1.340   7.739  0.3935 -0.5661 -0.1862
  163SAPE  H12X18373   0.620   1.254   7.729 -0.2943  0.1085 -1.3828
  163SAPE  H12Y18374   0.654   1.418   7.809 -2.3682 -0.2471 -1.8152
  163SAPE  C31318375   0.833   1.313   7.779  0.0968 -0.3930 -0.9221
  163SAPE  H13X18376   0.882   1.412   7.769 -3.2997  1.4810 -0.6491
  163SAPE  H13Y18377   0.877   1.238   7.709 -2.2985 -0.4748 -2.5019
  163SAPE  C31418378   0.854   1.266   7.919 -0.4139 -0.1952 -0.1846
  163SAPE  H14X18379   0.819   1.164   7.948  0.3306 -0.9578 -1.8260
  163SAPE  H14Y18380   0.812   1.337   7.993 -0.6350 -1.3695  0.8667
  163SAPE  C31518381   1.012   1.257   7.950  0.3519  0.1392 -0.2387
  163SAPE  H15X18382   1.063   1.353   7.928  0.1298  1.5760  4.3966
  163SAPE  H15Y18383   1.048   1.171   7.889  0.3693  0.2674 -0.4109
  163SAPE  C31618384   1.040   1.227   8.099  1.1320 -0.0564 -0.1400
  163SAPE  H16X18385   0.959   1.158   8.133 -0.2514  0.9421 -1.2749
  163SAPE  H16Y18386   1.033   1.325   8.151  1.7509 -0.1231  0.0706
  163SAPE  C31718387   1.180   1.154   8.123  0.0640 -0.1872  0.0462
  163SAPE  H17X18388   1.193   1.157   8.233 -1.9211 -1.5820  0.3737
  163SAPE  H17Y18389   1.256   1.216   8.071 -0.2957 -0.7425 -1.1786
  163SAPE  C31818390   1.191   1.009   8.072  0.6364  0.4860  0.3786
  163SAPE  H18X18391   1.135   0.942   8.141 -1.0539  1.8919  0.4428
  163SAPE  H18Y18392   1.297   0.979   8.064 -0.1287 -2.3771 -0.0381
  163SAPE  H18Z18393   1.144   0.988   7.973  1.6494  0.1829 -0.0476
  164SAPE     N18394   1.065   5.228   5.920 -0.0789  0.2374  0.7462
  164SAPE   HN118395   1.110   5.158   5.858 -1.2649 -0.3567  0.5239
  164SAPE   HN218396   0.994   5.276   5.861  0.2708 -1.5543 -1.2708
  164SAPE   HN318397   1.123   5.303   5.962 -2.7340  1.3668  2.6698
  164SAPE   C1218398   0.997   5.170   6.042 -0.9188 -0.4247 -0.5534
  164SAPE  H12A18399   1.059   5.205   6.127 -0.7060 -1.0232 -0.4594
  164SAPE  H12B18400   0.998   5.059   6.042  2.9325 -0.5151 -0.2436
  164SAPE   C1118401   0.855   5.243   6.049 -0.3768 -0.1178  0.3380
  164SAPE  H11A18402   0.805   5.223   6.146 -0.2025 -0.3204  0.3877
  164SAPE  H11B18403   0.797   5.202   5.963  0.8094 -1.6389  0.2124
  164SAPE     P18404   0.759   5.481   5.976 -0.1857 -0.0316 -0.2427
  164SAPE   O1318405   0.834   5.595   5.922  0.7763  0.4568 -0.1444
  164SAPE   O1418406   0.675   5.403   5.886  0.3514 -0.7079  0.0423
  164SAPE   O1218407   0.877   5.385   6.032 -0.1643  0.0343 -0.1198
  164SAPE   O1118408   0.685   5.528   6.114 -0.1016 -0.4933  0.1343
  164SAPE    C118409   0.747   5.546   6.237 -0.5393  0.1898 -0.2447
  164SAPE    HA18410   0.792   5.451   6.271  2.9570  1.6741 -0.2833
  164SAPE    HB18411   0.832   5.617   6.225  0.5593 -1.1578 -0.6087
  164SAPE    C218412   0.648   5.576   6.346 -0.0277  0.4128 -1.0585
  164SAPE    HS18413   0.615   5.681   6.336  2.1224  1.7631  3.2377
  164SAPE   O2118414   0.709   5.565   6.476 -0.1538  0.2284 -0.7239
  164SAPE   C2118415   0.800   5.659   6.509 -0.7050  0.3460  0.5023
  164SAPE   O2218416   0.845   5.750   6.435 -0.2995  1.0468 -0.3343
  164SAPE   C2218417   0.833   5.632   6.649 -0.4225 -0.3340 -1.1590
  164SAPE   H2R18418   0.753   5.587   6.710  1.1193 -0.6912  0.6845
  164SAPE   H2S18419   0.917   5.559   6.641 -1.6599 -1.7401 -1.7001
  164SAPE    C318420   0.517   5.491   6.332  0.1210 -0.3579 -0.2163
  164SAPE    HX18421   0.535   5.388   6.296  1.5645 -0.0899 -0.3143
  164SAPE    HY18422   0.463   5.539   6.247 -0.2925 -1.3124 -0.5038
  164SAPE   O3118423   0.436   5.488   6.449  0.3281 -0.3095  0.1229
  164SAPE   C3118424   0.434   5.367   6.512  0.2981 -0.6990 -0.2404
  164SAPE   O3218425   0.489   5.268   6.469  0.3901  0.6100  0.4154
  164SAPE   C3218426   0.338   5.367   6.630  0.0972 -0.4835  0.1517
  164SAPE   H2X18427   0.247   5.309   6.604  0.7807 -1.2273 -0.6462
  164SAPE   H2Y18428   0.309   5.472   6.653 -1.0231 -0.5644 -0.7998
  164SAPE   C2318429   0.859   5.765   6.737  0.0736 -0.1093 -0.0796
  164SAPE   H3R18430   0.930   5.840   6.696  1.0380 -0.8405  0.1968
  164SAPE   H3S18431   0.902   5.726   6.831  1.0487 -1.6035 -1.1027
  164SAPE   C2418432   0.724   5.836   6.780 -0.2913 -0.6098 -0.3693
  164SAPE   H4R18433   0.750   5.896   6.870 -0.3863  1.8446 -1.9067
  164SAPE   H4S18434   0.654   5.757   6.816  2.6352 -2.4870  1.7038
  164SAPE   C2518435   0.661   5.914   6.662 -0.2367  0.0510 -0.1497
  164SAPE   H5R18436   0.601   5.859   6.588 -1.8448  1.1981  0.2355
  164SAPE   C2618437   0.663   6.047   6.647  0.5402 -0.1065 -0.1298
  164SAPE   H6R18438   0.618   6.101   6.562 -2.0559  1.2916  1.9800
  164SAPE   C2718439   0.752   6.143   6.726 -0.0131 -0.3255  0.3996
  164SAPE   H7R18440   0.832   6.180   6.658  0.2219  0.3069  1.0214
  164SAPE   H7S18441   0.801   6.084   6.806  1.9556 -0.4906 -0.8543
  164SAPE   C2818442   0.679   6.263   6.771  0.0184  0.1051 -0.3627
  164SAPE   H8R18443   0.617   6.319   6.700  0.5001  0.9069 -0.1709
  164SAPE   C2918444   0.687   6.317   6.899  0.3598  0.0957 -0.1344
  164SAPE   H9R18445   0.643   6.414   6.924 -1.0140  0.0279 -2.0691
  164SAPE  C21018446   0.757   6.257   7.018 -0.2524  0.0543 -0.3306
  164SAPE  H10R18447   0.807   6.345   7.064 -0.9441  0.5628 -0.5252
  164SAPE  H10S18448   0.840   6.192   6.983  0.2562  1.4160 -1.7736
  164SAPE  C21118449   0.676   6.181   7.120 -0.3810  0.5866 -1.1644
  164SAPE  H11R18450   0.597   6.122   7.072  0.5943 -3.0059  1.2647
  164SAPE  C21218451   0.684   6.174   7.260 -0.3083 -0.8858  0.2034
  164SAPE  H12R18452   0.608   6.107   7.305 -1.3650 -1.2051 -1.9534
  164SAPE  C21318453   0.801   6.233   7.344 -0.2333 -0.4763 -1.1117
  164SAPE  H13R18454   0.885   6.277   7.286 -2.0282  0.6163 -3.0417
  164SAPE  H13S18455   0.839   6.160   7.418 -0.7568  1.3817  1.0841
  164SAPE  C21418456   0.749   6.345   7.432  0.7708  0.2008  0.2570
  164SAPE  H14R18457   0.765   6.448   7.395  0.0175  0.1886 -0.1129
  164SAPE  C21518458   0.696   6.339   7.553 -0.0784  0.6585 -0.0838
  164SAPE  H15R18459   0.632   6.422   7.587 -1.1560 -0.3801  0.5091
  164SAPE  C21618460   0.686   6.214   7.639  0.1423 -0.1407 -0.2169
  164SAPE  H16R18461   0.714   6.123   7.582  0.8780 -0.4645  0.6414
  164SAPE  H16S18462   0.577   6.200   7.656  0.1642 -1.6914 -1.2036
  164SAPE  C21718463   0.762   6.217   7.773 -0.6544 -0.0818  0.0303
  164SAPE  H17R18464   0.723   6.131   7.831 -0.2220 -0.8951 -0.8538
  164SAPE  H17S18465   0.731   6.311   7.823 -1.4330  0.4526 -1.4016
  164SAPE  C21818466   0.913   6.211   7.757  0.2377  0.8185 -0.6585
  164SAPE  H18R18467   0.955   6.282   7.683 -0.4895  1.2484 -0.6625
  164SAPE  H18S18468   0.955   6.109   7.739  2.7828  1.4884  0.9850
  164SAPE  C21918469   0.985   6.238   7.891 -0.1622  0.5032  0.1799
  164SAPE  H19R18470   0.953   6.168   7.971  0.0805 -1.9106 -1.6929
  164SAPE  H19S18471   0.960   6.341   7.924  0.3171  1.4687 -2.2435
  164SAPE  C22018472   1.136   6.246   7.865  0.2071  0.6118  0.3412
  164SAPE  H20R18473   1.187   6.286   7.956 -0.5648 -0.6059  1.3453
  164SAPE  H20S18474   1.145   6.312   7.777 -0.9839  0.0005 -0.2665
  164SAPE  H20T18475   1.173   6.143   7.848  1.6072  0.9212  1.3031
  164SAPE   C3318476   0.397   5.287   6.753  0.2783 -0.1714  0.0374
  164SAPE   H3X18477   0.499   5.327   6.769  0.4624 -0.6026 -0.0630
  164SAPE   H3Y18478   0.392   5.177   6.736  0.5595 -0.5257  1.9706
  164SAPE   C3418479   0.314   5.316   6.880 -0.2151 -0.0853 -0.4525
  164SAPE   H4X18480   0.219   5.258   6.882 -1.0668  1.2814  1.3504
  164SAPE   H4Y18481   0.291   5.425   6.876  2.2134  0.4997 -0.2190
  164SAPE   C3518482   0.404   5.297   7.007 -0.3515 -0.0110  0.3821
  164SAPE   H5X18483   0.504   5.345   6.995  0.1864 -0.5006  2.5837
  164SAPE   H5Y18484   0.426   5.188   7.013  0.2591 -0.0213 -1.3531
  164SAPE   C3618485   0.332   5.338   7.132  0.0269 -0.5601  0.7098
  164SAPE   H6X18486   0.256   5.260   7.154  0.6033 -0.9007  1.5166
  164SAPE   H6Y18487   0.269   5.429   7.117  0.8136  0.2153  1.8983
  164SAPE   C3718488   0.421   5.337   7.261 -0.4647 -0.3852 -0.3328
  164SAPE   H7X18489   0.483   5.429   7.250  1.4753 -1.4299  1.2603
  164SAPE   H7Y18490   0.486   5.249   7.243 -0.9108 -1.3043  2.1875
  164SAPE   C3818491   0.348   5.330   7.392 -0.1194  0.2247  0.5766
  164SAPE   H8X18492   0.278   5.244   7.385 -1.0192  0.9861 -0.1098
  164SAPE   H8Y18493   0.273   5.410   7.409 -1.0703 -0.2941 -0.9357
  164SAPE   C3918494   0.442   5.312   7.517  1.5859  0.8699  0.0641
  164SAPE   H9X18495   0.504   5.224   7.491 -1.1662 -1.2370  0.1902
  164SAPE   H9Y18496   0.404   5.283   7.617  3.8379 -0.1817  0.6725
  164SAPE  C31018497   0.520   5.444   7.549 -0.1514  0.0900 -0.1594
  164SAPE  H10X18498   0.456   5.529   7.581 -0.1469 -0.3438  1.0207
  164SAPE  H10Y18499   0.575   5.477   7.458  0.2519  2.3460  0.8436
  164SAPE  C31118500   0.646   5.444   7.640  0.4434  0.7122 -0.0825
  164SAPE  H11X18501   0.691   5.545   7.633  2.5101 -0.0626  1.1097
  164SAPE  H11Y18502   0.716   5.364   7.608  0.1769  0.6148 -0.4321
  164SAPE  C31218503   0.595   5.422   7.788  0.0071  0.5839 -0.8475
  164SAPE  H12X18504   0.512   5.351   7.804  0.6455 -0.5266 -2.2477
  164SAPE  H12Y18505   0.558   5.518   7.829  1.0232  1.6549 -2.3033
  164SAPE  C31318506   0.714   5.373   7.882  0.0585 -0.6723 -0.2419
  164SAPE  H13X18507   0.802   5.425   7.838 -0.1534 -0.5583 -0.5375
  164SAPE  H13Y18508   0.733   5.264   7.872 -1.4303 -0.9104 -0.7415
  164SAPE  C31418509   0.698   5.410   8.029 -0.1368  1.1675 -0.1718
  164SAPE  H14X18510   0.626   5.336   8.072  0.7809  0.2738 -0.1380
  164SAPE  H14Y18511   0.652   5.510   8.043 -1.6081  0.5929 -0.7521
  164SAPE  C31518512   0.828   5.389   8.122  0.3257 -1.0247 -0.1684
  164SAPE  H15X18513   0.873   5.288   8.120  1.3804 -0.5675 -0.7677
  164SAPE  H15Y18514   0.797   5.393   8.228  2.3153  0.4824  0.4230
  164SAPE  C31618515   0.933   5.496   8.104  0.3079 -1.2214  0.3992
  164SAPE  H16X18516   0.892   5.597   8.083 -0.1645 -1.5475 -0.2960
  164SAPE  H16Y18517   0.999   5.473   8.017 -0.1312  0.6965 -0.4965
  164SAPE  C31718518   1.035   5.502   8.220 -0.4248 -0.3578  0.5321
  164SAPE  H17X18519   1.134   5.546   8.195  0.0114 -0.6703  1.6573
  164SAPE  H17Y18520   1.059   5.399   8.252  0.1074 -0.0111  1.2716
  164SAPE  C31818521   0.990   5.580   8.344  0.1995  0.0043 -0.5969
  164SAPE  H18X18522   0.886   5.548   8.368 -0.2696  0.7021 -1.6197
  164SAPE  H18Y18523   0.985   5.688   8.317  0.4965  0.3972  0.8396
  164SAPE  H18Z18524   1.063   5.564   8.426  1.1688 -0.8406 -1.5899
  165SAPE     N18525   5.636   2.421   5.536 -0.4681  0.1424 -0.3581
  165SAPE   HN118526   5.649   2.509   5.482 -0.9069  1.4671  1.5795
  165SAPE   HN218527   5.605   2.346   5.472 -1.2121  1.3158 -1.4174
  165SAPE   HN318528   5.551   2.444   5.591  0.2279 -1.2803  1.4080
  165SAPE   C1218529   5.749   2.396   5.633 -0.4534  0.1269 -0.3929
  165SAPE  H12A18530   5.741   2.462   5.722 -4.3588  3.3061 -2.7185
  165SAPE  H12B18531   5.839   2.419   5.573 -1.7245 -1.8309 -3.2914
  165SAPE   C1118532   5.754   2.248   5.673 -0.3841  0.0960 -0.0513
  165SAPE  H11A18533   5.841   2.235   5.740  1.3835  0.2555 -2.1929
  165SAPE  H11B18534   5.782   2.179   5.590 -0.6445 -0.7158  0.5308
  165SAPE     P18535   5.609   2.208   5.896  0.0169  0.2622  0.5101
  165SAPE   O1318536   5.542   2.336   5.930  0.1315  0.3360 -0.1041
  165SAPE   O1418537   5.528   2.086   5.924 -0.4357 -0.1897  0.5676
  165SAPE   O1218538   5.637   2.210   5.740 -0.1248  0.6100 -0.0669
  165SAPE   O1118539   5.749   2.193   5.959 -0.0585 -0.6031 -0.5957
  165SAPE    C118540   5.757   2.115   6.081  0.3083  0.7907  0.0250
  165SAPE    HA18541   5.702   2.020   6.068  0.7635  0.2193  1.9886
  165SAPE    HB18542   5.862   2.086   6.099  0.7347  1.5010 -1.2320
  165SAPE    C218543   5.704   2.187   6.208  0.5309 -0.4491  0.0400
  165SAPE    HS18544   5.593   2.192   6.198  0.6805 -0.1125 -1.7339
  165SAPE   O2118545   5.769   2.320   6.216  0.2169 -0.0512  0.2369
  165SAPE   C2118546   5.720   2.414   6.293 -0.1818  0.0347 -0.1299
  165SAPE   O2218547   5.613   2.403   6.357 -0.5211  0.1964  0.3152
  165SAPE   C2218548   5.822   2.538   6.285 -0.2459 -0.6751  0.2348
  165SAPE   H2R18549   5.907   2.508   6.351 -0.9945 -2.1508  0.5677
  165SAPE   H2S18550   5.863   2.531   6.182 -0.0531 -1.0237  0.3312
  165SAPE    C318551   5.732   2.101   6.336  0.0844  0.0003  0.3909
  165SAPE    HX18552   5.839   2.073   6.346 -0.0808 -0.3750  1.1978
  165SAPE    HY18553   5.683   2.003   6.318  1.2030 -0.8594  1.8032
  165SAPE   O3118554   5.686   2.170   6.457 -0.7791  0.3781 -0.1805
  165SAPE   C3118555   5.553   2.158   6.484  0.8303  0.3998  0.1560
  165SAPE   O3218556   5.475   2.097   6.411 -0.0944  0.5895 -0.0140
  165SAPE   C3218557   5.529   2.210   6.627  0.5659 -0.1677  0.4176
  165SAPE   H2X18558   5.538   2.321   6.623 -0.3319 -0.0992 -0.1559
  165SAPE   H2Y18559   5.608   2.169   6.693 -1.2686 -0.6237  2.4276
  165SAPE   C2318560   5.761   2.676   6.332  0.0743  0.7464  0.6659
  165SAPE   H3R18561   5.667   2.692   6.275 -1.1401 -2.5597  1.5190
  165SAPE   H3S18562   5.836   2.756   6.319  1.0346 -0.2001  0.2181
  165SAPE   C2418563   5.727   2.677   6.480 -0.0749  0.4275 -0.4489
  165SAPE   H4R18564   5.807   2.632   6.543 -1.0422  2.2541  2.2673
  165SAPE   H4S18565   5.634   2.618   6.494  0.5036 -0.6521 -1.0185
  165SAPE   C2518566   5.703   2.819   6.520  0.2662 -0.2962 -0.3424
  165SAPE   H5R18567   5.659   2.887   6.446  1.5485  1.4246  0.3861
  165SAPE   C2618568   5.758   2.874   6.630 -0.9199  0.2938 -0.1383
  165SAPE   H6R18569   5.728   2.977   6.653 -0.7503  0.0747  1.1148
  165SAPE   C2718570   5.838   2.814   6.745 -0.3474  0.1480  0.0448
  165SAPE   H7R18571   5.867   2.710   6.721  1.2211  0.4469  0.5081
  165SAPE   H7S18572   5.783   2.806   6.842 -0.3346  0.3627  0.0712
  165SAPE   C2818573   5.973   2.871   6.774 -0.5436  0.4428 -0.9194
  165SAPE   H8R18574   6.029   2.881   6.680  0.0762 -0.9563 -0.7226
  165SAPE   C2918575   6.036   2.890   6.896 -0.3380  1.0681  0.3616
  165SAPE   H9R18576   6.136   2.936   6.897  0.5573 -0.5255 -2.9642
  165SAPE  C21018577   5.971   2.869   7.035 -0.2583  0.3872  0.0437
  165SAPE  H10R18578   6.046   2.886   7.115 -2.1259 -1.1228  2.2496
  165SAPE  H10S18579   5.944   2.762   7.050  3.0462 -0.5627  0.0714
  165SAPE  C21118580   5.847   2.954   7.057  0.3756  0.1892  0.6005
  165SAPE  H11R18581   5.810   3.009   6.969 -0.5007 -0.0448  0.8107
  165SAPE  C21218582   5.763   2.951   7.157  1.2204  0.1632  0.3515
  165SAPE  H12R18583   5.671   3.011   7.156 -0.1016 -1.7518 -1.8490
  165SAPE  C21318584   5.784   2.874   7.286  0.0767 -0.1903 -0.3421
  165SAPE  H13R18585   5.894   2.859   7.299 -0.0734 -0.7004  0.3814
  165SAPE  H13S18586   5.745   2.773   7.263  1.5749 -0.2816 -2.9327
  165SAPE  C21418587   5.716   2.949   7.401  0.1507  0.1942  0.3604
  165SAPE  H14R18588   5.606   2.947   7.399  0.1231  1.4860  0.1847
  165SAPE  C21518589   5.764   2.997   7.513 -0.1776  0.1146 -0.0328
  165SAPE  H15R18590   5.693   3.038   7.586 -0.1371 -2.8497  1.8674
  165SAPE  C21618591   5.908   3.005   7.557  0.3924 -0.4078 -0.3838
  165SAPE  H16R18592   5.926   3.112   7.583 -0.5436  0.0093 -1.3961
  165SAPE  H16S18593   5.973   2.983   7.471 -2.2502 -0.2920 -2.5453
  165SAPE  C21718594   5.938   2.917   7.675 -0.3806 -0.4702  0.3520
  165SAPE  H17R18595   5.932   2.808   7.652  1.0633 -0.1345 -1.8647
  165SAPE  H17S18596   5.854   2.930   7.747  0.0886  0.2436  0.7750
  165SAPE  C21818597   6.066   2.962   7.751  0.8736 -0.3028  0.2062
  165SAPE  H18R18598   6.079   2.900   7.842 -0.2338 -1.2544 -0.2596
  165SAPE  H18S18599   6.062   3.065   7.791  1.9260  0.0045 -0.4290
  165SAPE  C21918600   6.199   2.948   7.678 -0.0457  0.0274 -0.2473
  165SAPE  H19R18601   6.192   2.987   7.574  0.8848  0.9011 -0.0051
  165SAPE  H19S18602   6.231   2.842   7.670 -0.1804 -0.0395  0.0841
  165SAPE  C22018603   6.316   3.016   7.755  0.5639 -0.5732  0.2630
  165SAPE  H20R18604   6.401   3.051   7.694 -0.3835  2.7691  0.6937
  165SAPE  H20S18605   6.350   2.949   7.838 -2.7648  0.0154  2.2924
  165SAPE  H20T18606   6.279   3.106   7.808  1.3892 -0.8394  1.3504
  165SAPE   C3318607   5.391   2.162   6.671 -0.0920 -0.3087  0.2673
  165SAPE   H3X18608   5.321   2.176   6.586  1.3519  2.0231 -0.6271
  165SAPE   H3Y18609   5.363   2.211   6.766  0.5164 -0.7197  0.6629
  165SAPE   C3418610   5.402   2.014   6.703  0.7425 -0.2726  0.0731
  165SAPE   H4X18611   5.488   2.011   6.773 -0.2704 -0.1055  1.3738
  165SAPE   H4Y18612   5.426   1.955   6.612  3.0882  0.0819  0.4152
  165SAPE   C3518613   5.285   1.954   6.780  0.7178 -0.3111  0.4022
  165SAPE   H5X18614   5.194   2.002   6.739  0.8497 -0.7681 -0.4656
  165SAPE   H5Y18615   5.296   1.982   6.887 -1.3743  0.4070  0.4555
  165SAPE   C3618616   5.280   1.807   6.776  0.0635  0.1901  0.0412
  165SAPE   H6X18617   5.372   1.751   6.803 -0.8877 -1.9522 -0.9554
  165SAPE   H6Y18618   5.277   1.775   6.670 -0.0398  0.5897 -0.0790
  165SAPE   C3718619   5.164   1.744   6.856 -0.0565 -0.0533 -0.2984
  165SAPE   H7X18620   5.166   1.642   6.811 -2.1478  0.2484 -1.1939
  165SAPE   H7Y18621   5.066   1.770   6.812  0.0053 -2.9040 -2.4060
  165SAPE   C3818622   5.176   1.761   7.009  0.3981  0.5268  0.0555
  165SAPE   H8X18623   5.128   1.851   7.053  1.5502  1.8560 -1.2848
  165SAPE   H8Y18624   5.285   1.763   7.034  0.8811  0.6532 -1.8429
  165SAPE   C3918625   5.111   1.638   7.075 -0.0173 -0.2998  0.1701
  165SAPE   H9X18626   5.156   1.546   7.032  0.1305  0.4689 -1.3876
  165SAPE   H9Y18627   5.007   1.635   7.038 -0.8258 -0.5419  2.3597
  165SAPE  C31018628   5.122   1.632   7.230 -0.3117  0.6736  0.7541
  165SAPE  H10X18629   5.229   1.625   7.258 -0.4496 -1.8035  0.8724
  165SAPE  H10Y18630   5.083   1.532   7.259  1.2517 -0.0127  0.5997
  165SAPE  C31118631   5.051   1.739   7.315  0.0721  0.5030 -0.3929
  165SAPE  H11X18632   4.942   1.736   7.295  0.2710  1.0567 -1.6938
  165SAPE  H11Y18633   5.084   1.839   7.277  1.0048 -0.0455 -1.0615
  165SAPE  C31218634   5.098   1.721   7.463  0.0521  0.0976 -0.0786
  165SAPE  H12X18635   5.206   1.745   7.472  0.4667 -1.8992  0.6461
  165SAPE  H12Y18636   5.106   1.613   7.485  0.4574 -0.3099 -2.0436
  165SAPE  C31318637   5.011   1.796   7.563  0.7242 -0.5361  0.6740
  165SAPE  H13X18638   4.914   1.742   7.571  1.3608 -2.1137 -1.3328
  165SAPE  H13Y18639   4.989   1.895   7.516  2.0152 -0.3212  0.5089
  165SAPE  C31418640   5.076   1.822   7.698  0.3634  0.1500 -0.5803
  165SAPE  H14X18641   5.026   1.905   7.752 -1.4820 -2.5008  2.0916
  165SAPE  H14Y18642   5.184   1.848   7.699  0.5616 -0.5765  1.0987
  165SAPE  C31518643   5.073   1.692   7.786 -0.4387 -0.0126  0.5516
  165SAPE  H15X18644   5.147   1.627   7.736  2.2258  3.2155  0.0205
  165SAPE  H15Y18645   4.974   1.641   7.791 -0.4704 -0.2132 -1.5035
  165SAPE  C31618646   5.124   1.726   7.925 -0.3406 -0.0042 -0.1804
  165SAPE  H16X18647   5.071   1.819   7.954 -0.2990 -0.4269  1.3664
  165SAPE  H16Y18648   5.230   1.754   7.909 -0.5902  0.8965 -0.3049
  165SAPE  C31718649   5.077   1.617   8.026 -0.0299 -0.3021 -0.0893
  165SAPE  H17X18650   5.119   1.524   7.984  2.0915  0.2924  0.5761
  165SAPE  H17Y18651   4.967   1.601   8.032  0.4266 -4.0939  0.0200
  165SAPE  C31818652   5.118   1.639   8.170 -0.1898 -0.1422  0.1878
  165SAPE  H18X18653   5.089   1.741   8.203  0.9329 -0.0436  0.9170
  165SAPE  H18Y18654   5.228   1.625   8.177 -0.1520  0.8480  2.0410
  165SAPE  H18Z18655   5.076   1.563   8.240 -1.9581  1.5592  1.0752
  166SAPE     N18656   0.736   0.345   5.566 -0.2544  0.0886  0.2945
  166SAPE   HN118657   0.641   0.314   5.535 -1.3137  1.0954  2.3027
  166SAPE   HN218658   0.763   0.430   5.513 -0.0335  1.3352  2.3123
  166SAPE   HN318659   0.810   0.273   5.553  0.2372  0.3051  1.6796
  166SAPE   C1218660   0.712   0.379   5.714 -0.6723  1.6594  0.0511
  166SAPE  H12A18661   0.650   0.470   5.728 -1.4987  0.9240  1.2978
  166SAPE  H12B18662   0.814   0.398   5.754 -0.8450 -0.6618  1.7930
  166SAPE   C1118663   0.649   0.256   5.786  0.1749 -0.1873 -0.4321
  166SAPE  H11A18664   0.657   0.276   5.895  1.3702  1.9734 -0.8595
  166SAPE  H11B18665   0.705   0.161   5.771  0.9194 -0.1581  1.7348
  166SAPE     P18666   0.439   0.120   5.776  0.2840  0.3115 -0.1021
  166SAPE   O1318667   0.292   0.136   5.739 -0.0017 -0.0145 -0.4611
  166SAPE   O1418668   0.518   0.007   5.718  0.4251  0.3251 -0.4200
  166SAPE   O1218669   0.513   0.254   5.745  0.3466 -0.3305 -1.1903
  166SAPE   O1118670   0.451   0.115   5.926  0.2042 -0.1022 -0.2119
  166SAPE    C118671   0.411   0.207   6.029  0.6750 -0.0741  0.0119
  166SAPE    HA18672   0.497   0.256   6.080  1.2090 -1.2871  0.3449
  166SAPE    HB18673   0.350   0.292   5.993 -0.2281 -1.3212 -1.5020
  166SAPE    C218674   0.322   0.141   6.149 -0.7022 -0.5583 -0.7391
  166SAPE    HS18675   0.262   0.222   6.195 -1.5827 -2.1067  0.9543
  166SAPE   O2118676   0.411   0.080   6.243 -0.2432 -0.8676 -0.0874
  166SAPE   C2118677   0.464   0.165   6.337  0.5295  0.2830 -0.2983
  166SAPE   O2218678   0.438   0.283   6.352 -0.1844  0.3299 -0.2828
  166SAPE   C2218679   0.567   0.096   6.428  0.2813 -0.2920  0.3745
  166SAPE   H2R18680   0.519  -0.000   6.459  0.6610 -0.4054  0.6116
  166SAPE   H2S18681   0.656   0.073   6.366 -0.8213  0.1588 -1.4527
  166SAPE    C318682   0.204   0.037   6.107  0.0244 -0.0120  0.4713
  166SAPE    HX18683   0.246  -0.063   6.081 -0.4624  0.0222 -0.4623
  166SAPE    HY18684   0.155   0.075   6.015 -1.7228 -0.3762  1.2059
  166SAPE   O3118685   0.101   0.037   6.209 -0.1575  0.2579  0.4582
  166SAPE   C3118686   0.077  -0.082   6.262 -0.4944  0.8250  0.6378
  166SAPE   O3218687   0.116  -0.191   6.222  0.1168 -0.3725 -0.5906
  166SAPE   C3218688  -0.021  -0.050   6.377  0.4694 -0.0657  0.4023
  166SAPE   H2X18689  -0.115  -0.100   6.347 -0.0401  0.9774  0.2560
  166SAPE   H2Y18690  -0.040   0.059   6.379  2.0126  0.2217  0.8683
  166SAPE   C2318691   0.607   0.171   6.559 -0.5313 -0.0809 -0.3322
  166SAPE   H3R18692   0.530   0.155   6.638 -2.0439  2.0095 -1.2988
  166SAPE   H3S18693   0.589   0.279   6.542  1.8951  0.8734  2.3263
  166SAPE   C2418694   0.746   0.150   6.621 -0.1515 -0.0020  0.2342
  166SAPE   H4R18695   0.787   0.245   6.659  2.2289 -0.2896 -1.3767
  166SAPE   H4S18696   0.813   0.126   6.535 -2.1534 -1.8509 -0.9170
  166SAPE   C2518697   0.762   0.034   6.717 -0.0771  0.3531 -0.7591
  166SAPE   H5R18698   0.708  -0.059   6.695  1.2258 -1.5618  3.1196
  166SAPE   C2618699   0.835   0.037   6.829 -0.3878  0.5736 -0.6151
  166SAPE   H6R18700   0.850  -0.056   6.885  0.7075  0.8346 -0.4368
  166SAPE   C2718701   0.908   0.158   6.888  0.8526  0.0980 -0.1551
  166SAPE   H7R18702   0.951   0.218   6.805  2.4777 -1.0523 -0.1842
  166SAPE   H7S18703   0.987   0.114   6.953  0.2953  1.0606  1.2143
  166SAPE   C2818704   0.835   0.261   6.976  0.0925  0.0687 -0.2028
  166SAPE   H8R18705   0.797   0.348   6.920 -1.7278 -1.3080 -1.2572
  166SAPE   C2918706   0.817   0.249   7.111 -0.3950 -0.2329  0.2185
  166SAPE   H9R18707   0.763   0.319   7.176  0.8745  0.8781  0.1278
  166SAPE  C21018708   0.879   0.143   7.207 -0.7496  0.2315 -0.5874
  166SAPE  H10R18709   0.879   0.041   7.163 -0.4486  0.4078 -0.9976
  166SAPE  H10S18710   0.811   0.137   7.295  1.9839 -1.4499  1.5733
  166SAPE  C21118711   1.021   0.189   7.249  0.8712 -0.5018  0.7413
  166SAPE  H11R18712   1.079   0.253   7.181 -0.0010 -3.2653 -2.8855
  166SAPE  C21218713   1.098   0.128   7.339 -0.5634 -0.2090 -0.4558
  166SAPE  H12R18714   1.202   0.158   7.358  0.2994 -0.6141 -3.9506
  166SAPE  C21318715   1.044   0.020   7.437  0.3576 -0.2452 -0.7299
  166SAPE  H13R18716   1.132  -0.019   7.492  0.3002  1.7455  0.8800
  166SAPE  H13S18717   1.000  -0.069   7.386  0.5591 -0.4871 -0.4806
  166SAPE  C21418718   0.945   0.084   7.541 -0.0920 -0.6259  0.0905
  166SAPE  H14R18719   0.910   0.188   7.533 -1.4929 -1.0592  0.2283
  166SAPE  C21518720   0.905   0.022   7.651  0.3068  0.5586  0.3311
  166SAPE  H15R18721   0.830   0.070   7.715  1.0008 -0.3209  1.8741
  166SAPE  C21618722   0.935  -0.129   7.671 -0.7980 -0.8850  0.8369
  166SAPE  H16R18723   1.040  -0.146   7.638 -0.7035  0.6459  0.2859
  166SAPE  H16S18724   0.862  -0.190   7.614 -0.2069 -0.7662 -0.0592
  166SAPE  C21718725   0.933  -0.177   7.817 -0.5484 -1.1222  0.2431
  166SAPE  H17R18726   0.965  -0.283   7.814  0.3828 -0.8400  0.0752
  166SAPE  H17S18727   0.830  -0.190   7.857 -0.4073 -2.6024  0.1566
  166SAPE  C21818728   1.029  -0.105   7.918 -0.0402 -0.0253 -1.2139
  166SAPE  H18R18729   0.998   0.001   7.919  1.4303  0.4277 -0.3324
  166SAPE  H18S18730   1.131  -0.124   7.879 -0.6940 -1.8118 -2.1650
  166SAPE  C21918731   1.001  -0.155   8.062 -0.8926 -0.5031 -0.1217
  166SAPE  H19R18732   0.980  -0.264   8.057 -1.9688 -0.4276  1.7545
  166SAPE  H19S18733   0.917  -0.103   8.113  0.6176 -0.4587  2.4974
  166SAPE  C22018734   1.123  -0.139   8.159 -0.0267  0.0613  0.5545
  166SAPE  H20R18735   1.111  -0.179   8.262  1.2403  0.7117  0.9742
  166SAPE  H20S18736   1.123  -0.030   8.179  0.8617 -0.3927  3.5132
  166SAPE  H20T18737   1.221  -0.166   8.114 -1.5330 -0.0310 -3.0567
  166SAPE   C3318738   0.025  -0.111   6.510  1.1416 -0.1460 -0.7865
  166SAPE   H3X18739   0.045  -0.217   6.484 -1.7649 -0.3836 -2.5468
  166SAPE   H3Y18740  -0.053  -0.111   6.590  1.6177 -0.4362 -0.3138
  166SAPE   C3418741   0.148  -0.043   6.576  0.1816 -0.4486 -0.0544
  166SAPE   H4X18742   0.236  -0.075   6.516  0.3741  0.4140 -0.2417
  166SAPE   H4Y18743   0.155  -0.082   6.679 -0.0304 -0.3481 -0.0027
  166SAPE   C3518744   0.142   0.110   6.593  1.0755  0.6790  0.2673
  166SAPE   H5X18745   0.033   0.133   6.599  0.6191 -1.4939  1.2616
  166SAPE   H5Y18746   0.188   0.154   6.501 -1.1153  2.3002 -0.1463
  166SAPE   C3618747   0.204   0.174   6.716 -0.0645  0.0703  0.4811
  166SAPE   H6X18748   0.311   0.145   6.717 -0.3528 -1.0348  1.0095
  166SAPE   H6Y18749   0.149   0.162   6.812 -0.1631 -0.0720  0.4085
  166SAPE   C3718750   0.209   0.333   6.708  0.5401  0.4240  0.0447
  166SAPE   H7X18751   0.105   0.371   6.698  0.3215 -0.2324 -0.2486
  166SAPE   H7Y18752   0.281   0.370   6.632  1.7003 -1.6247  0.0714
  166SAPE   C3818753   0.249   0.392   6.846 -0.1091  0.1387 -0.2284
  166SAPE   H8X18754   0.199   0.348   6.935  0.0864 -2.4565 -1.3133
  166SAPE   H8Y18755   0.226   0.501   6.847  1.9376  0.6095 -0.2233
  166SAPE   C3918756   0.402   0.388   6.865 -0.1606 -0.7274 -0.3500
  166SAPE   H9X18757   0.460   0.428   6.779  0.7959 -0.7933  0.2431
  166SAPE   H9Y18758   0.439   0.283   6.876  0.4366 -0.4273  0.6936
  166SAPE  C31018759   0.454   0.478   6.984 -0.2011  0.0580 -0.5856
  166SAPE  H10X18760   0.421   0.584   6.971 -0.8378  0.0776  1.0338
  166SAPE  H10Y18761   0.565   0.489   6.981 -0.3515  1.8701 -1.5827
  166SAPE  C31118762   0.415   0.430   7.120  0.1653  0.3868 -0.1556
  166SAPE  H11X18763   0.426   0.321   7.136  1.2218  0.3681 -0.9142
  166SAPE  H11Y18764   0.311   0.465   7.136  0.3590  1.2750 -0.7385
  166SAPE  C31218765   0.501   0.480   7.238 -0.0381  0.6283 -0.5127
  166SAPE  H12X18766   0.501   0.591   7.242  0.4068  0.5867  2.2435
  166SAPE  H12Y18767   0.604   0.440   7.235 -0.3339 -0.1352 -0.5783
  166SAPE  C31318768   0.447   0.424   7.379  0.6159  0.2199 -0.7707
  166SAPE  H13X18769   0.388   0.330   7.372  0.7259  0.1671 -0.9891
  166SAPE  H13Y18770   0.388   0.506   7.425  1.5938  0.0402  0.8660
  166SAPE  C31418771   0.567   0.409   7.476  0.8753  0.8997 -0.1824
  166SAPE  H14X18772   0.640   0.493   7.467 -0.4162  1.8571 -3.0918
  166SAPE  H14Y18773   0.631   0.322   7.449 -0.2621 -0.2453  0.7085
  166SAPE  C31518774   0.522   0.388   7.626 -0.4356  0.1786 -0.4654
  166SAPE  H15X18775   0.460   0.296   7.627 -0.4950  0.2197  0.0689
  166SAPE  H15Y18776   0.467   0.478   7.661  0.5993  1.0213 -0.9345
  166SAPE  C31618777   0.647   0.374   7.722  0.0768 -0.1246  0.4456
  166SAPE  H16X18778   0.693   0.475   7.737  1.5293 -0.3778 -1.7933
  166SAPE  H16Y18779   0.731   0.310   7.686  0.4427 -0.0203  1.0923
  166SAPE  C31718780   0.605   0.312   7.848  0.7042  0.3606 -0.5577
  166SAPE  H17X18781   0.565   0.211   7.827 -2.4577  1.5784 -0.8194
  166SAPE  H17Y18782   0.515   0.374   7.865  1.2423  1.5753 -1.9593
  166SAPE  C31818783   0.698   0.309   7.959  0.0253  0.5466  0.0513
  166SAPE  H18X18784   0.794   0.261   7.931  0.9950  2.9507 -1.0885
  166SAPE  H18Y18785   0.659   0.252   8.046  0.8546 -0.5500 -0.2778
  166SAPE  H18Z18786   0.719   0.412   7.995 -2.9029  0.8791  1.0721
  167SAPE     N18787   2.747   5.737   5.496  0.4476 -0.3788  0.9956
  167SAPE   HN118788   2.727   5.828   5.543 -0.3667  0.6790 -1.2361
  167SAPE   HN218789   2.788   5.765   5.404 -0.9869 -0.0331  0.4276
  167SAPE   HN318790   2.650   5.706   5.477  0.6926  0.2046 -1.6099
  167SAPE   C1218791   2.822   5.641   5.571 -0.6198  0.4055  0.0411
  167SAPE  H12A18792   2.912   5.685   5.619 -0.1091  1.0477 -1.4642
  167SAPE  H12B18793   2.853   5.552   5.512  0.2833  1.7468 -1.5696
  167SAPE   C1118794   2.739   5.583   5.686 -0.4983  0.1009 -0.6203
  167SAPE  H11A18795   2.814   5.522   5.740 -1.0321 -0.1846 -0.1963
  167SAPE  H11B18796   2.653   5.519   5.657 -1.3611  0.5571  0.8669
  167SAPE     P18797   2.560   5.686   5.845 -0.2869  0.0614  0.0058
  167SAPE   O1318798   2.466   5.775   5.774  0.0132 -0.1318 -0.2842
  167SAPE   O1418799   2.517   5.545   5.869 -0.3128  0.4523 -1.6962
  167SAPE   O1218800   2.700   5.688   5.775  0.4123  0.1631 -0.0756
  167SAPE   O1118801   2.601   5.753   5.981 -0.3863 -0.4376 -0.4486
  167SAPE    C118802   2.609   5.665   6.096 -0.2899  0.1770  0.4363
  167SAPE    HA18803   2.515   5.643   6.151  0.6676  1.0591  2.5312
  167SAPE    HB18804   2.657   5.569   6.065  0.2098  0.8682 -1.0060
  167SAPE    C218805   2.687   5.749   6.211 -0.6600  0.3090  0.1706
  167SAPE    HS18806   2.728   5.677   6.286 -0.9963 -0.4417 -0.3486
  167SAPE   O2118807   2.610   5.851   6.267 -0.1047  0.3010 -0.2258
  167SAPE   C2118808   2.521   5.823   6.356 -0.3026 -0.0898  0.7838
  167SAPE   O2218809   2.509   5.713   6.407  0.2321  0.6750 -0.2565
  167SAPE   C2218810   2.428   5.950   6.381  0.3005 -0.3395 -0.2441
  167SAPE   H2R18811   2.394   5.962   6.276  1.5041 -1.1438 -0.7448
  167SAPE   H2S18812   2.343   5.923   6.446 -1.9950  0.4816 -2.7267
  167SAPE    C318813   2.814   5.814   6.140  0.1381 -0.1028  0.0626
  167SAPE    HX18814   2.783   5.884   6.059  0.3455  0.2646  0.2935
  167SAPE    HY18815   2.855   5.724   6.089 -4.2587 -2.4797  0.2336
  167SAPE   O3118816   2.913   5.879   6.219  0.1138 -0.3183 -0.1722
  167SAPE   C3118817   2.900   6.011   6.229  0.4111 -0.1404  0.1041
  167SAPE   O3218818   2.801   6.082   6.199  0.7455  0.6780  0.7158
  167SAPE   C3218819   3.020   6.063   6.304  0.3461 -0.3576  0.2365
  167SAPE   H2X18820   3.050   6.135   6.225 -2.5368 -2.7929 -3.3709
  167SAPE   H2Y18821   3.105   5.992   6.304 -0.5256 -1.4364 -0.3850
  167SAPE   C2318822   2.505   6.065   6.453 -0.0434  0.2694 -0.1789
  167SAPE   H3R18823   2.589   6.085   6.384 -0.5182 -1.8490 -1.4721
  167SAPE   H3S18824   2.549   6.039   6.551  0.6458  0.3517 -0.4632
  167SAPE   C2418825   2.412   6.190   6.481  0.6383 -0.0985  0.1065
  167SAPE   H4R18826   2.332   6.165   6.554 -0.8799  2.4051 -0.5328
  167SAPE   H4S18827   2.363   6.224   6.387  0.8915  2.4684  0.8257
  167SAPE   C2518828   2.489   6.307   6.529 -0.2387 -0.2897 -0.1259
  167SAPE   H5R18829   2.519   6.378   6.450  1.8969  0.9038  1.6761
  167SAPE   C2618830   2.540   6.341   6.650 -0.3149 -0.7762  0.0000
  167SAPE   H6R18831   2.594   6.437   6.651 -2.2230  0.4930 -2.8747
  167SAPE   C2718832   2.513   6.278   6.786  0.2804  0.3260 -0.4483
  167SAPE   H7R18833   2.611   6.262   6.837 -0.3866 -2.9744  0.0084
  167SAPE   H7S18834   2.466   6.178   6.778  0.5325  0.1626  0.0513
  167SAPE   C2818835   2.432   6.358   6.883 -0.4995 -0.1535 -0.1079
  167SAPE   H8R18836   2.408   6.457   6.842 -0.9469 -0.4677 -0.6129
  167SAPE   C2918837   2.399   6.325   7.012  0.7429 -0.3077 -0.1414
  167SAPE   H9R18838   2.330   6.390   7.067  1.9339  0.0033  1.0150
  167SAPE  C21018839   2.431   6.188   7.063 -0.4133 -0.5499 -0.6351
  167SAPE  H10R18840   2.450   6.115   6.981 -1.6714 -0.4077 -1.0798
  167SAPE  H10S18841   2.347   6.157   7.129  0.2756 -0.9292  0.0779
  167SAPE  C21118842   2.560   6.200   7.141  0.8433  0.1583  0.0422
  167SAPE  H11R18843   2.648   6.214   7.078  0.7122 -1.8300 -0.6531
  167SAPE  C21218844   2.570   6.181   7.276  1.0614 -0.5716 -0.0100
  167SAPE  H12R18845   2.668   6.207   7.319  0.7841  2.6898 -1.1225
  167SAPE  C21318846   2.469   6.160   7.372  0.1860 -0.4075  0.0756
  167SAPE  H13R18847   2.435   6.055   7.368 -1.5202  0.1340 -0.7816
  167SAPE  H13S18848   2.383   6.227   7.351  0.0675 -0.3903  0.6094
  167SAPE  C21418849   2.511   6.204   7.511  0.2886 -0.8612 -0.0675
  167SAPE  H14R18850   2.578   6.291   7.517  0.6215 -0.9587 -1.9444
  167SAPE  C21518851   2.494   6.129   7.620 -0.0698 -0.1035 -0.2256
  167SAPE  H15R18852   2.526   6.164   7.719  0.9233 -2.4198  0.3580
  167SAPE  C21618853   2.414   6.007   7.632  0.2812 -0.0811  0.1368
  167SAPE  H16R18854   2.332   6.006   7.557 -0.5183  2.6782  0.8665
  167SAPE  H16S18855   2.369   6.004   7.733  0.2418 -1.4113  0.0952
  167SAPE  C21718856   2.481   5.868   7.617 -0.7372  0.4712 -0.3530
  167SAPE  H17R18857   2.526   5.863   7.515 -0.4604 -0.3856 -0.1951
  167SAPE  H17S18858   2.395   5.799   7.629 -1.0386  0.1612 -3.4790
  167SAPE  C21818859   2.589   5.833   7.722  0.8296 -0.5605 -0.3622
  167SAPE  H18R18860   2.666   5.911   7.735  1.7102 -1.3116 -0.8932
  167SAPE  H18S18861   2.631   5.731   7.710 -0.1408 -0.9652 -0.4236
  167SAPE  C21918862   2.516   5.817   7.858  0.0870 -0.4134  0.4178
  167SAPE  H19R18863   2.432   5.745   7.846 -0.0405  0.0253 -1.6883
  167SAPE  H19S18864   2.466   5.911   7.888 -0.0616  0.2609 -1.7960
  167SAPE  C22018865   2.602   5.782   7.976  0.3661  0.4288 -0.2837
  167SAPE  H20R18866   2.629   5.675   7.979 -1.0484  0.0764  1.3805
  167SAPE  H20S18867   2.554   5.812   8.071 -0.4230  2.5095 -1.2609
  167SAPE  H20T18868   2.703   5.828   7.970 -0.2300  1.7949 -0.2083
  167SAPE   C3318869   2.984   6.118   6.441  0.2040 -1.4909 -0.2475
  167SAPE   H3X18870   2.892   6.180   6.444  0.9676 -0.3488  0.8243
  167SAPE   H3Y18871   3.066   6.183   6.480  0.2421 -0.0419 -2.5237
  167SAPE   C3418872   2.967   6.014   6.548  0.1123 -0.0782 -0.2402
  167SAPE   H4X18873   3.068   5.970   6.561 -0.2160 -1.2296 -1.4233
  167SAPE   H4Y18874   2.898   5.934   6.514 -0.3608 -0.2021  0.9324
  167SAPE   C3518875   2.921   6.065   6.684  0.5120 -0.2675 -0.1142
  167SAPE   H5X18876   2.818   6.104   6.665  0.6059 -0.8380 -1.9651
  167SAPE   H5Y18877   2.979   6.152   6.721  0.2167 -0.7821  1.6481
  167SAPE   C3618878   2.919   5.969   6.800 -0.1972 -0.3560  0.4436
  167SAPE   H6X18879   3.024   5.935   6.817 -0.6787 -0.6385  3.3720
  167SAPE   H6Y18880   2.861   5.880   6.768  1.8574 -1.2208 -1.1513
  167SAPE   C3718881   2.863   6.026   6.932  0.4077  1.0744  0.3751
  167SAPE   H7X18882   2.752   6.021   6.923  0.2614  1.8214  1.5061
  167SAPE   H7Y18883   2.893   6.132   6.948  0.8814  1.1550 -0.9730
  167SAPE   C3818884   2.921   5.939   7.043 -0.5465 -0.5614  0.7846
  167SAPE   H8X18885   3.030   5.948   7.028 -0.8712  1.0948 -1.0357
  167SAPE   H8Y18886   2.891   5.836   7.012 -0.7345 -0.1853 -0.3359
  167SAPE   C3918887   2.871   5.975   7.180  0.1023  0.0735 -0.0252
  167SAPE   H9X18888   2.761   5.962   7.189  0.2608 -0.9680  0.5598
  167SAPE   H9Y18889   2.895   6.082   7.195 -0.7766  0.4597 -1.2555
  167SAPE  C31018890   2.932   5.884   7.295 -0.5275  0.1954  0.7046
  167SAPE  H10X18891   3.034   5.924   7.313 -0.8285  0.7913  1.1384
  167SAPE  H10Y18892   2.948   5.781   7.258 -0.6447  0.2684  0.4555
  167SAPE  C31118893   2.846   5.888   7.424  0.8142  0.0631  1.1876
  167SAPE  H11X18894   2.745   5.854   7.393  1.2387 -0.6797  0.5765
  167SAPE  H11Y18895   2.838   5.994   7.457  2.3470  0.8353 -0.6792
  167SAPE  C31218896   2.901   5.801   7.537 -0.4933  0.1333 -0.3372
  167SAPE  H12X18897   2.862   5.836   7.635 -0.1506  0.2421 -0.2414
  167SAPE  H12Y18898   3.011   5.806   7.549 -0.5232  1.9301 -0.5072
  167SAPE  C31318899   2.870   5.651   7.529 -0.2745  0.4118 -0.3730
  167SAPE  H13X18900   2.886   5.611   7.427 -0.9786  0.7542 -0.6291
  167SAPE  H13Y18901   2.762   5.630   7.545 -0.3415  1.1850  0.2290
  167SAPE  C31418902   2.950   5.560   7.625  0.1446  1.0410 -0.1141
  167SAPE  H14X18903   2.933   5.583   7.732  1.3801 -1.5373  0.7014
  167SAPE  H14Y18904   3.055   5.588   7.604  0.1451  1.7706  0.7690
  167SAPE  C31518905   2.928   5.402   7.604 -0.2634 -0.6497  0.1334
  167SAPE  H15X18906   2.820   5.380   7.618 -0.5731 -0.1468 -1.2320
  167SAPE  H15Y18907   2.984   5.352   7.685  1.9287  2.1086  0.4742
  167SAPE  C31618908   2.965   5.342   7.472 -1.0365 -0.2693  0.3491
  167SAPE  H16X18909   2.895   5.385   7.397 -0.2182 -0.7741 -0.7245
  167SAPE  H16Y18910   2.945   5.232   7.476  1.8731 -0.8538  1.0337
  167SAPE  C31718911   3.117   5.371   7.439  0.2882  0.4073  0.1261
  167SAPE  H17X18912   3.167   5.335   7.532  1.2037 -1.9096 -1.1747
  167SAPE  H17Y18913   3.130   5.481   7.437  0.2960  0.4159  0.4870
  167SAPE  C31818914   3.175   5.303   7.315  0.4983  0.2976  0.8732
  167SAPE  H18X18915   3.284   5.319   7.301  0.4904 -1.4732 -2.0518
  167SAPE  H18Y18916   3.132   5.351   7.224  3.0247  1.5030  0.2435
  167SAPE  H18Z18917   3.158   5.194   7.302  4.3195 -0.3579  0.1709
  168SAPE     N18918   4.143   6.737   5.882 -0.0205 -1.3578 -0.1135
  168SAPE   HN118919   4.040   6.741   5.900 -0.1249 -1.3406 -0.7049
  168SAPE   HN218920   4.159   6.681   5.796  2.5036  1.7709 -1.8826
  168SAPE   HN318921   4.178   6.682   5.963 -2.8297 -2.0173  0.7533
  168SAPE   C1218922   4.215   6.867   5.871  0.0941  0.0280  0.0302
  168SAPE  H12A18923   4.136   6.933   5.830 -0.0966  1.4840  2.5348
  168SAPE  H12B18924   4.306   6.852   5.809  0.9339  1.1566  0.9319
  168SAPE   C1118925   4.264   6.933   6.002 -0.7205 -0.0690 -0.5934
  168SAPE  H11A18926   4.183   6.964   6.070  0.7674  1.5539  0.5365
  168SAPE  H11B18927   4.316   7.028   5.977  0.7524 -0.5200  0.6198
  168SAPE     P18928   4.308   6.762   6.187 -0.0101  0.0467 -0.3940
  168SAPE   O1318929   4.202   6.664   6.147  0.0061 -0.7746 -0.5525
  168SAPE   O1418930   4.426   6.700   6.248  0.0814  0.0007 -0.2781
  168SAPE   O1218931   4.356   6.842   6.067  0.2792 -0.7991  0.1349
  168SAPE   O1118932   4.247   6.872   6.273 -0.3778  0.3982 -0.4212
  168SAPE    C118933   4.330   6.945   6.366 -0.4438 -0.1078 -0.2997
  168SAPE    HA18934   4.367   6.878   6.446  0.5355 -0.7947 -1.2805
  168SAPE    HB18935   4.416   6.994   6.314 -1.4041  1.9328 -0.0508
  168SAPE    C218936   4.253   7.059   6.438  0.2741  0.5899  0.0786
  168SAPE    HS18937   4.313   7.086   6.528  0.1037  0.9809  0.0811
  168SAPE   O2118938   4.120   7.016   6.473 -0.3668 -0.4662  0.5347
  168SAPE   C2118939   4.111   6.927   6.568  0.4150 -0.0370  0.1971
  168SAPE   O2218940   4.203   6.890   6.644  0.0536  0.1466 -0.0585
  168SAPE   C2218941   3.971   6.869   6.572 -0.7394  0.3903  0.3303
  168SAPE   H2R18942   3.895   6.950   6.570 -1.2843  0.0465  2.9599
  168SAPE   H2S18943   3.952   6.823   6.473 -1.5472  2.0233 -0.3199
  168SAPE    C318944   4.246   7.184   6.349 -0.0155 -0.0339 -0.1774
  168SAPE    HX18945   4.190   7.159   6.256 -0.8614  0.3933  0.2027
  168SAPE    HY18946   4.350   7.207   6.316  0.1034 -1.3639 -0.8186
  168SAPE   O3118947   4.184   7.305   6.411 -0.1521  0.4873  0.7710
  168SAPE   C3118948   4.048   7.296   6.422 -0.1556  0.1902 -0.2429
  168SAPE   O3218949   3.972   7.222   6.367  0.2074 -0.5198 -0.8177
  168SAPE   C3218950   4.003   7.397   6.522  0.3886 -0.0593  0.2787
  168SAPE   H2X18951   3.893   7.407   6.515  0.3390 -1.2040 -1.1499
  168SAPE   H2Y18952   4.043   7.499   6.503 -1.3344  0.9287  1.6550
  168SAPE   C2318953   3.950   6.767   6.684 -0.3205 -0.7555 -0.5203
  168SAPE   H3R18954   4.026   6.687   6.672 -1.5525 -1.6235 -3.0429
  168SAPE   H3S18955   3.853   6.723   6.655 -0.5054  0.4340 -1.7739
  168SAPE   C2418956   3.952   6.822   6.828 -0.0820 -0.0465 -0.6760
  168SAPE   H4R18957   3.857   6.875   6.850  0.3009  0.5791 -0.4751
  168SAPE   H4S18958   4.038   6.892   6.836  1.7964 -2.3702  1.0195
  168SAPE   C2518959   3.978   6.702   6.920  0.6674 -0.6439 -0.1955
  168SAPE   H5R18960   4.045   6.625   6.880  1.0924 -0.1204 -0.5171
  168SAPE   C2618961   3.925   6.687   7.048 -0.0116  0.3654 -0.0196
  168SAPE   H6R18962   3.965   6.596   7.096  1.9453  1.8095  1.2486
  168SAPE   C2718963   3.843   6.780   7.132 -0.2370 -0.9322 -0.5463
  168SAPE   H7R18964   3.769   6.715   7.183 -0.2090 -0.2811  0.3255
  168SAPE   H7S18965   3.789   6.855   7.071  1.4266  1.3611  0.6602
  168SAPE   C2818966   3.923   6.856   7.235  0.7193 -0.7597  0.2533
  168SAPE   H8R18967   3.986   6.930   7.184  2.1225 -1.1929  1.3052
  168SAPE   C2918968   3.914   6.850   7.369  0.4519 -0.3027  0.4142
  168SAPE   H9R18969   3.978   6.924   7.418 -0.9869  1.4352 -0.2463
  168SAPE  C21018970   3.817   6.775   7.459 -0.6952 -0.1821  0.3890
  168SAPE  H10R18971   3.744   6.716   7.399 -0.0392 -1.1257  0.5034
  168SAPE  H10S18972   3.760   6.850   7.519  0.3228 -0.7539  2.1674
  168SAPE  C21118973   3.901   6.680   7.538 -0.2307 -0.4936 -0.1004
  168SAPE  H11R18974   3.985   6.642   7.479 -1.1049 -0.1519 -1.6271
  168SAPE  C21218975   3.875   6.655   7.669  1.1841 -0.1241 -0.0309
  168SAPE  H12R18976   3.956   6.604   7.724  0.5496 -0.1039  0.9432
  168SAPE  C21318977   3.757   6.710   7.746  0.2334 -0.7938 -0.1104
  168SAPE  H13R18978   3.719   6.632   7.815 -0.7383 -1.2565 -1.1258
  168SAPE  H13S18979   3.671   6.743   7.683  0.8371  2.0717  0.4008
  168SAPE  C21418980   3.794   6.831   7.829  0.0697  0.4377 -1.0985
  168SAPE  H14R18981   3.762   6.921   7.775 -1.7999  0.1395 -0.5540
  168SAPE  C21518982   3.836   6.833   7.960 -0.2558 -0.2101 -0.1153
  168SAPE  H15R18983   3.860   6.929   8.007 -1.6859 -0.1659  0.5650
  168SAPE  C21618984   3.875   6.715   8.039 -0.2256 -0.2506  0.0511
  168SAPE  H16R18985   3.977   6.741   8.074 -0.0830  1.7639 -1.6537
  168SAPE  H16S18986   3.873   6.623   7.976 -2.7191 -0.0399 -0.3030
  168SAPE  C21718987   3.787   6.690   8.164 -0.7267 -0.0933  0.4689
  168SAPE  H17R18988   3.680   6.674   8.141 -0.4769 -2.8550  0.9296
  168SAPE  H17S18989   3.801   6.780   8.227  1.2001 -0.7641  1.0822
  168SAPE  C21818990   3.843   6.574   8.251  0.2149 -0.6519 -0.0082
  168SAPE  H18R18991   3.827   6.479   8.195 -1.6079 -0.7376  0.5953
  168SAPE  H18S18992   3.774   6.574   8.338 -2.4126  1.5998 -1.8860
  168SAPE  C21918993   3.985   6.575   8.302 -0.2833 -0.2504 -0.4244
  168SAPE  H19R18994   3.989   6.636   8.395  1.1351 -1.5196  0.3900
  168SAPE  H19S18995   4.060   6.597   8.222  0.1332  0.2188  0.0897
  168SAPE  C22018996   4.026   6.438   8.360 -0.0764  0.3498 -0.2495
  168SAPE  H20R18997   4.027   6.357   8.283  3.0567  0.1408 -0.1188
  168SAPE  H20S18998   3.951   6.413   8.438 -1.5671 -0.5842 -1.8970
  168SAPE  H20T18999   4.131   6.446   8.397  0.0039 -0.7210 -0.2131
  168SAPE   C3319000   4.024   7.345   6.662  0.6683  1.0143 -0.6524
  168SAPE   H3X19001   4.016   7.236   6.679  2.7087  0.8371 -0.6417
  168SAPE   H3Y19002   3.949   7.394   6.728  3.0768  1.8611  1.6180
  168SAPE   C3419003   4.151   7.406   6.719 -0.6649 -0.6730 -0.2037
  168SAPE   H4X19004   4.144   7.516   6.733 -2.9091 -1.0407  2.3699
  168SAPE   H4Y19005   4.234   7.388   6.647  0.2562  0.1036  0.6398
  168SAPE   C3519006   4.199   7.329   6.845 -0.4173 -0.2679 -0.4067
  168SAPE   H5X19007   4.295   7.373   6.878 -0.7842  0.5519 -0.4058
  168SAPE   H5Y19008   4.212   7.221   6.826 -1.0801 -0.0245 -2.4950
  168SAPE   C3619009   4.102   7.355   6.958 -0.0788  0.3714  0.3225
  168SAPE   H6X19010   4.021   7.279   6.957  2.0742 -2.0576  0.3752
  168SAPE   H6Y19011   4.054   7.453   6.937 -1.1830  0.1364  1.5658
  168SAPE   C3719012   4.156   7.359   7.105 -0.8209  0.1648  0.3023
  168SAPE   H7X19013   4.246   7.425   7.108 -1.3673  1.0485 -1.2847
  168SAPE   H7Y19014   4.187   7.254   7.125  1.7963  0.7827 -0.1274
  168SAPE   C3819015   4.050   7.410   7.208 -0.1165 -0.3888  0.0872
  168SAPE   H8X19016   3.959   7.347   7.209 -2.2909  2.5035 -1.1040
  168SAPE   H8Y19017   4.027   7.514   7.177  2.0872  0.6298  1.6078
  168SAPE   C3919018   4.110   7.421   7.345 -0.2491  0.4383  0.1165
  168SAPE   H9X19019   4.149   7.321   7.373 -1.4971  0.1784  1.0502
  168SAPE   H9Y19020   4.024   7.442   7.413 -1.4551 -1.2440 -0.8063
  168SAPE  C31019021   4.224   7.523   7.364 -0.4257  0.1873  0.1471
  168SAPE  H10X19022   4.209   7.607   7.292 -0.7318  0.6682  0.7622
  168SAPE  H10Y19023   4.319   7.469   7.341  0.0436  0.9209  0.3209
  168SAPE  C31119024   4.240   7.588   7.501  0.1060  0.2771  0.2994
  168SAPE  H11X19025   4.137   7.622   7.526 -0.8305 -0.3633 -2.2884
  168SAPE  H11Y19026   4.315   7.670   7.498  0.2932  0.3038  3.1142
  168SAPE  C31219027   4.283   7.485   7.606 -0.4896  0.6088 -0.4556
  168SAPE  H12X19028   4.383   7.451   7.573 -0.1248 -0.1835  1.3510
  168SAPE  H12Y19029   4.214   7.398   7.611  0.7736 -0.3433  1.6371
  168SAPE  C31319030   4.315   7.535   7.747 -0.4597 -0.1115  0.8170
  168SAPE  H13X19031   4.330   7.644   7.765 -0.3832 -0.2564  1.6436
  168SAPE  H13Y19032   4.405   7.481   7.784  1.5781  0.9171 -2.1650
  168SAPE  C31419033   4.186   7.505   7.827  0.2400 -0.0201  0.2790
  168SAPE  H14X19034   4.161   7.398   7.816 -0.2383 -0.0603  1.5640
  168SAPE  H14Y19035   4.099   7.561   7.788  0.2279 -0.9536 -1.0734
  168SAPE  C31519036   4.192   7.537   7.972  0.0533  0.5881  0.3139
  168SAPE  H15X19037   4.090   7.552   8.015  0.5156 -2.2953  2.7797
  168SAPE  H15Y19038   4.237   7.637   7.988 -1.7579  1.3661  0.9127
  168SAPE  C31619039   4.268   7.439   8.061  0.1360  0.3140  0.4617
  168SAPE  H16X19040   4.370   7.442   8.017  0.1067  2.5397  0.4216
  168SAPE  H16Y19041   4.223   7.338   8.060 -1.0475  0.7793  2.0425
  168SAPE  C31719042   4.262   7.480   8.207 -0.1233  0.1787 -0.1963
  168SAPE  H17X19043   4.290   7.401   8.280  2.1082  1.5410  0.5345
  168SAPE  H17Y19044   4.157   7.505   8.236  0.3441  1.0069  0.8738
  168SAPE  C31819045   4.353   7.597   8.239  1.0205  0.2641  0.9072
  168SAPE  H18X19046   4.338   7.684   8.171 -0.7424 -0.2525  0.5705
  168SAPE  H18Y19047   4.459   7.567   8.226  0.5586 -0.2375 -3.4794
  168SAPE  H18Z19048   4.341   7.635   8.342 -0.1675 -0.7535  1.1707
  169SAPE     N19049   5.254   1.954   6.323 -0.4338  0.0263 -0.0171
  169SAPE   HN119050   5.335   1.984   6.382  0.9073 -3.3000  0.0284
  169SAPE   HN219051   5.175   2.020   6.335 -0.1965  0.1135  1.1340
  169SAPE   HN319052   5.223   1.857   6.344 -1.6871  0.1001 -1.3930
  169SAPE   C1219053   5.290   1.947   6.181  0.0064 -0.4719  0.5043
  169SAPE  H12A19054   5.362   1.865   6.159 -1.2246 -1.1544 -1.2099
  169SAPE  H12B19055   5.341   2.038   6.145 -0.8069 -0.2478 -0.0822
  169SAPE   C1119056   5.153   1.909   6.115  0.7829 -0.0624 -0.3144
  169SAPE  H11A19057   5.106   1.816   6.155 -1.0504  0.3376 -1.4628
  169SAPE  H11B19058   5.173   1.891   6.007  2.4375 -0.1577 -0.0304
  169SAPE     P19059   5.025   2.128   6.038  0.0813  0.2722 -0.1950
  169SAPE   O1319060   5.157   2.165   5.978  0.1299  0.6035  0.0025
  169SAPE   O1419061   4.910   2.090   5.955  0.6069 -0.2018  0.2686
  169SAPE   O1219062   5.054   2.009   6.141  0.8615  0.4034  0.0787
  169SAPE   O1119063   4.994   2.249   6.133  0.2262 -0.3442  0.3060
  169SAPE    C119064   4.860   2.271   6.175  0.2636 -0.3530  0.0348
  169SAPE    HA19065   4.780   2.256   6.099  0.4900 -0.7655 -0.1200
  169SAPE    HB19066   4.840   2.198   6.256 -0.7126  1.4167  1.4762
  169SAPE    C219067   4.844   2.412   6.239  0.1125  0.0845  0.0202
  169SAPE    HS19068   4.880   2.482   6.161  2.4313  0.1415  1.0686
  169SAPE   O2119069   4.929   2.429   6.357  0.0156  0.1045 -0.4462
  169SAPE   C2119070   4.953   2.556   6.391  0.0161 -0.5607 -0.7738
  169SAPE   O2219071   4.922   2.659   6.336 -0.0143  0.6153  0.4510
  169SAPE   C2219072   5.060   2.554   6.503 -0.4027 -0.2487 -0.9190
  169SAPE   H2R19073   5.015   2.525   6.600  1.2665 -0.6613 -0.2312
  169SAPE   H2S19074   5.135   2.477   6.475 -1.4381 -0.7665 -2.3907
  169SAPE    C319075   4.701   2.437   6.287 -0.3528 -0.3364 -0.5402
  169SAPE    HX19076   4.636   2.474   6.204 -0.6492  1.0019  0.2489
  169SAPE    HY19077   4.702   2.510   6.371 -2.6648  0.9371 -1.4989
  169SAPE   O3119078   4.641   2.321   6.341 -0.5236  0.5714  0.0874
  169SAPE   C3119079   4.511   2.345   6.378 -0.0224 -0.2582  0.7236
  169SAPE   O3219080   4.460   2.453   6.364  0.4386  0.1077  0.0120
  169SAPE   C3219081   4.451   2.229   6.455  1.1247 -0.3003  0.1302
  169SAPE   H2X19082   4.530   2.159   6.491 -0.0913 -2.7098 -1.6240
  169SAPE   H2Y19083   4.386   2.181   6.379 -0.9934 -0.5044  1.9747
  169SAPE   C2319084   5.130   2.694   6.529  0.1064 -0.0206  0.2949
  169SAPE   H3R19085   5.048   2.769   6.532 -2.0157 -2.2372  0.8178
  169SAPE   H3S19086   5.202   2.715   6.447 -0.5865  3.0943  0.3539
  169SAPE   C2419087   5.199   2.701   6.670 -0.1532 -0.2545  0.7046
  169SAPE   H4R19088   5.120   2.672   6.743 -0.2621  0.4699  0.8802
  169SAPE   H4S19089   5.230   2.807   6.683  0.0286  0.3735 -3.5216
  169SAPE   C2519090   5.322   2.610   6.683 -0.1601  0.2478  0.5946
  169SAPE   H5R19091   5.376   2.588   6.589 -0.9872 -0.0241  0.1756
  169SAPE   C2619092   5.364   2.569   6.805 -0.3977 -0.7061 -0.7845
  169SAPE   H6R19093   5.451   2.502   6.816 -1.1057 -1.5325 -0.0617
  169SAPE   C2719094   5.319   2.616   6.944 -0.3103  0.2456  0.4120
  169SAPE   H7R19095   5.255   2.533   6.983 -0.5347  0.3197  0.1987
  169SAPE   H7S19096   5.263   2.710   6.931  0.6610  1.2485  2.8410
  169SAPE   C2819097   5.431   2.646   7.045 -0.2497  0.1692  0.0802
  169SAPE   H8R19098   5.534   2.634   7.009 -0.1993  0.7496  0.0230
  169SAPE   C2919099   5.411   2.656   7.177 -0.1155  0.4227 -0.1901
  169SAPE   H9R19100   5.497   2.692   7.236  0.9381 -1.5912 -0.4103
  169SAPE  C21019101   5.281   2.654   7.253 -0.1211  0.2229  0.3377
  169SAPE  H10R19102   5.287   2.574   7.330  1.9591  0.1423  0.1393
  169SAPE  H10S19103   5.193   2.643   7.185 -1.1863  0.1793  1.6855
  169SAPE  C21119104   5.270   2.787   7.318 -0.1512  0.1536 -0.3627
  169SAPE  H11R19105   5.223   2.871   7.264  2.3842  2.5176  0.8307
  169SAPE  C21219106   5.305   2.805   7.450 -0.2453  0.2351  0.6182
  169SAPE  H12R19107   5.272   2.900   7.494  2.8739  2.2062 -0.9417
  169SAPE  C21319108   5.363   2.702   7.547 -0.0961  0.4760  0.1450
  169SAPE  H13R19109   5.362   2.601   7.501 -1.3299  1.0985 -1.2718
  169SAPE  H13S19110   5.287   2.701   7.628 -0.8255  1.3019 -0.5109
  169SAPE  C21419111   5.493   2.753   7.602  0.6750  0.1482  0.3820
  169SAPE  H14R19112   5.581   2.726   7.542  1.7454  0.7140  1.6256
  169SAPE  C21519113   5.528   2.826   7.707  0.1563  0.0997  0.6938
  169SAPE  H15R19114   5.636   2.834   7.725  0.4268 -1.0929 -0.3381
  169SAPE  C21619115   5.453   2.887   7.816 -0.3600 -0.5827 -0.1738
  169SAPE  H16R19116   5.407   2.813   7.885  0.5728  0.4293  1.6081
  169SAPE  H16S19117   5.376   2.952   7.770 -0.6122 -1.3601 -0.8511
  169SAPE  C21719118   5.531   2.976   7.919 -0.3440 -0.3136 -0.4446
  169SAPE  H17R19119   5.456   3.026   7.982  0.6396  0.4742  0.1248
  169SAPE  H17S19120   5.584   3.060   7.869  1.4549 -0.7177  0.6916
  169SAPE  C21819121   5.615   2.885   8.005 -0.0133  0.0549 -0.0166
  169SAPE  H18R19122   5.686   2.823   7.946  1.5789 -0.6809  2.5163
  169SAPE  H18S19123   5.552   2.803   8.045 -0.3776  0.9543  1.3364
  169SAPE  C21919124   5.696   2.953   8.116 -0.0364  0.0685 -0.5435
  169SAPE  H19R19125   5.729   2.872   8.185  0.4388 -0.7271 -1.6642
  169SAPE  H19S19126   5.629   3.024   8.169  0.6275  0.1703  0.1757
  169SAPE  C22019127   5.816   3.031   8.064 -0.3498  0.1976  0.2667
  169SAPE  H20R19128   5.902   2.966   8.035  1.1838  1.3048  2.0784
  169SAPE  H20S19129   5.847   3.103   8.142 -0.5744 -0.9686  1.4554
  169SAPE  H20T19130   5.779   3.081   7.972  1.3565  0.7072 -0.1822
  169SAPE   C3319131   4.363   2.281   6.571  0.2228  0.7845 -0.2468
  169SAPE   H3X19132   4.288   2.349   6.527 -1.4472 -0.6290  0.3026
  169SAPE   H3Y19133   4.433   2.340   6.633  1.5793  0.3551 -1.3064
  169SAPE   C3419134   4.284   2.162   6.638 -0.0334 -0.0576 -0.4368
  169SAPE   H4X19135   4.340   2.085   6.696 -0.2840  1.0981  1.4037
  169SAPE   H4Y19136   4.229   2.108   6.558 -0.6320 -3.0420  1.7912
  169SAPE   C3519137   4.171   2.207   6.736 -0.2648  0.9468 -0.0692
  169SAPE   H5X19138   4.112   2.124   6.780 -0.1412  1.5951  1.3988
  169SAPE   H5Y19139   4.102   2.280   6.687  1.0694  2.3541  0.0714
  169SAPE   C3619140   4.242   2.271   6.861 -0.0290 -0.2353  0.3081
  169SAPE   H6X19141   4.244   2.380   6.838  0.1595 -0.4875 -0.9797
  169SAPE   H6Y19142   4.348   2.238   6.854 -0.1700 -0.6186 -0.1264
  169SAPE   C3719143   4.179   2.254   6.993 -0.0022  1.1237 -0.0375
  169SAPE   H7X19144   4.189   2.153   7.038 -2.2899  1.4762  1.4868
  169SAPE   H7Y19145   4.070   2.270   6.975 -0.8505 -2.0718  1.5283
  169SAPE   C3819146   4.222   2.343   7.109 -0.4798  0.1963  0.0314
  169SAPE   H8X19147   4.201   2.449   7.085  0.2192  0.2266 -0.4933
  169SAPE   H8Y19148   4.330   2.346   7.134 -1.1607 -0.2034  3.5550
  169SAPE   C3919149   4.150   2.298   7.237 -0.0102  0.2995  0.1834
  169SAPE   H9X19150   4.190   2.199   7.265  1.5856  1.2762  1.5317
  169SAPE   H9Y19151   4.041   2.293   7.217 -0.3480 -1.2272  2.1354
  169SAPE  C31019152   4.181   2.385   7.360  0.2588  0.5584  0.3039
  169SAPE  H10X19153   4.175   2.493   7.337  3.0059  0.7490  0.2345
  169SAPE  H10Y19154   4.286   2.366   7.389  0.2911 -0.1749 -0.2796
  169SAPE  C31119155   4.086   2.363   7.484  1.4505  0.2520  0.3553
  169SAPE  H11X19156   4.103   2.263   7.529  2.3338  0.0594 -0.3605
  169SAPE  H11Y19157   3.982   2.381   7.451  1.8050  2.6848  0.3851
  169SAPE  C31219158   4.132   2.469   7.593  0.4840 -0.6127  0.1412
  169SAPE  H12X19159   4.109   2.570   7.553 -0.2978 -0.2946  1.3320
  169SAPE  H12Y19160   4.237   2.440   7.612 -0.2051 -3.1012  0.5190
  169SAPE  C31319161   4.040   2.458   7.714 -0.3000 -0.2047 -0.1238
  169SAPE  H13X19162   4.027   2.351   7.741 -1.2869 -0.0155  0.1901
  169SAPE  H13Y19163   3.940   2.495   7.682 -0.1214  0.4394  0.0431
  169SAPE  C31419164   4.092   2.536   7.840 -0.3049 -0.2461  0.4872
  169SAPE  H14X19165   4.095   2.644   7.813 -3.2544 -0.4847 -1.2375
  169SAPE  H14Y19166   4.190   2.492   7.867  1.0188  1.1292 -1.7216
  169SAPE  C31519167   3.999   2.511   7.956  0.4997  0.3292 -0.1475
  169SAPE  H15X19168   3.995   2.407   7.995 -0.5302  1.1482  2.0507
  169SAPE  H15Y19169   3.897   2.542   7.927  0.2304 -0.1658  0.2634
  169SAPE  C31619170   4.042   2.602   8.071  0.5830  0.4788 -0.3618
  169SAPE  H16X19171   4.054   2.709   8.044  3.1747  0.1375 -0.8498
  169SAPE  H16Y19172   4.146   2.574   8.099  0.4019 -0.1882 -0.3361
  169SAPE  C31719173   3.948   2.584   8.194 -0.4300 -0.4356 -0.3370
  169SAPE  H17X19174   3.923   2.476   8.204 -2.7149 -0.0121 -1.0262
  169SAPE  H17Y19175   3.850   2.631   8.173  0.6096  0.1237 -5.0827
  169SAPE  C31819176   3.995   2.649   8.325 -0.4523  0.2908  0.1947
  169SAPE  H18X19177   4.104   2.633   8.335 -0.5088 -0.1214  0.1504
  169SAPE  H18Y19178   3.943   2.622   8.420 -2.9663  2.5669 -0.3869
  169SAPE  H18Z19179   3.983   2.759   8.312  3.1300  0.5592 -2.0707
  170SAPE     N19180   4.182   6.369   6.164 -0.4816 -0.7070  0.1968
  170SAPE   HN119181   4.126   6.306   6.103 -2.4520  0.2117  0.9575
  170SAPE   HN219182   4.184   6.471   6.144  2.4881  0.2367  4.1095
  170SAPE   HN319183   4.280   6.335   6.163 -0.3569 -0.7126  3.2921
  170SAPE   C1219184   4.121   6.349   6.304  0.4767  0.6062 -0.3103
  170SAPE  H12A19185   4.012   6.367   6.290  0.3218 -0.2587 -0.2631
  170SAPE  H12B19186   4.168   6.429   6.365  0.0181 -1.4984  3.0878
  170SAPE   C1119187   4.155   6.206   6.350  0.8311 -0.3839  0.7190
  170SAPE  H11A19188   4.147   6.191   6.460 -0.6097 -0.5226  0.6160
  170SAPE  H11B19189   4.264   6.194   6.337  0.5754 -0.2281 -2.2115
  170SAPE     P19190   3.944   6.051   6.294  0.0459  0.1877  0.4173
  170SAPE   O1319191   3.849   6.162   6.273 -0.3356 -0.1928 -0.9654
  170SAPE   O1419192   3.929   5.925   6.212  0.3193 -0.2901  0.0941
  170SAPE   O1219193   4.093   6.105   6.277  0.0918 -0.0510 -0.4347
  170SAPE   O1119194   3.935   6.010   6.440 -0.2799  0.2386  0.1748
  170SAPE    C119195   4.012   5.894   6.491 -0.5001 -0.1944  0.1978
  170SAPE    HA19196   3.973   5.797   6.453  2.7072 -1.3299 -0.5819
  170SAPE    HB19197   4.116   5.890   6.452 -1.1452  1.3036 -1.8689
  170SAPE    C219198   4.024   5.889   6.648  0.3942  0.1046  0.1023
  170SAPE    HS19199   4.052   5.784   6.672 -1.4083 -0.3723  0.2099
  170SAPE   O2119200   3.911   5.918   6.725  0.2739  1.0506  0.0236
  170SAPE   C2119201   3.797   5.863   6.697  0.3920  0.4338  0.0915
  170SAPE   O2219202   3.780   5.770   6.621 -0.2370  1.0925 -0.4197
  170SAPE   C2219203   3.680   5.928   6.782  0.6281 -0.8577  0.1968
  170SAPE   H2R19204   3.654   6.029   6.744 -1.2451 -2.1639 -2.2993
  170SAPE   H2S19205   3.598   5.856   6.760  0.6884 -0.9627  0.3102
  170SAPE    C319206   4.136   5.984   6.697  0.3010 -0.7206 -0.2740
  170SAPE    HX19207   4.097   6.085   6.675 -0.3427 -0.7601  0.6155
  170SAPE    HY19208   4.229   5.971   6.638  1.2001  0.4218  0.8368
  170SAPE   O3119209   4.160   5.966   6.838  0.8749  0.2584 -0.0043
  170SAPE   C3119210   4.213   5.860   6.876 -0.7222  1.0130  0.3637
  170SAPE   O3219211   4.248   5.760   6.812  0.0623  0.5152  0.0445
  170SAPE   C3219212   4.215   5.869   7.028 -1.3300 -0.0084 -0.3252
  170SAPE   H2X19213   4.153   5.956   7.057 -0.2026  0.0127  2.2330
  170SAPE   H2Y19214   4.318   5.889   7.061 -1.4006  0.0658 -0.1501
  170SAPE   C2319215   3.693   5.931   6.935 -0.8343  0.8564  0.5984
  170SAPE   H3R19216   3.640   6.024   6.965  1.3968  2.5345 -0.3367
  170SAPE   H3S19217   3.803   5.940   6.950 -0.6613  3.7110 -1.3893
  170SAPE   C2419218   3.634   5.803   6.998  0.6109 -0.1133 -0.8238
  170SAPE   H4R19219   3.636   5.710   6.936 -0.5380 -0.7468  0.0386
  170SAPE   H4S19220   3.528   5.829   7.016  0.8321 -0.5486  1.4792
  170SAPE   C2519221   3.715   5.778   7.132  0.2387 -0.3621  0.2365
  170SAPE   H5R19222   3.807   5.719   7.117  1.2254  1.0014  0.7205
  170SAPE   C2619223   3.671   5.813   7.255  0.6673 -0.4346 -0.5964
  170SAPE   H6R19224   3.744   5.809   7.337  0.5032  4.6571  0.0905
  170SAPE   C2719225   3.545   5.884   7.287 -0.3951 -0.0762 -0.0271
  170SAPE   H7R19226   3.522   5.974   7.225 -0.3955 -1.3957 -2.0335
  170SAPE   H7S19227   3.563   5.927   7.388 -3.0260 -0.8794  0.8757
  170SAPE   C2819228   3.412   5.809   7.296 -0.2930  0.1679 -0.3646
  170SAPE   H8R19229   3.353   5.799   7.203 -1.1377  1.8489 -0.0494
  170SAPE   C2919230   3.356   5.758   7.407  0.0854  0.2967  0.9254
  170SAPE   H9R19231   3.255   5.714   7.404 -0.3664  1.3660 -0.0896
  170SAPE  C21019232   3.418   5.775   7.544 -0.7256 -0.2460 -0.0548
  170SAPE  H10R19233   3.390   5.877   7.580  1.3544  0.3974 -0.1126
  170SAPE  H10S19234   3.529   5.771   7.532 -0.6526  1.9406 -0.5490
  170SAPE  C21119235   3.371   5.666   7.639  0.3087  0.0537  0.5963
  170SAPE  H11R19236   3.398   5.569   7.595 -1.0913  0.4902 -1.4151
  170SAPE  C21219237   3.293   5.679   7.749  0.3723 -0.3230 -0.1142
  170SAPE  H12R19238   3.285   5.591   7.814  0.2670  0.4855  0.9835
  170SAPE  C21319239   3.244   5.813   7.807 -0.6138  0.2309 -0.4392
  170SAPE  H13R19240   3.208   5.886   7.732  0.0736  2.7461  1.5259
  170SAPE  H13S19241   3.326   5.871   7.854 -0.7325  0.3810 -0.4162
  170SAPE  C21419242   3.132   5.821   7.901  1.0791 -0.4383 -0.1784
  170SAPE  H14R19243   3.037   5.816   7.847  2.2775 -0.8325 -2.3993
  170SAPE  C21519244   3.123   5.852   8.031 -0.1959  0.2063  0.3034
  170SAPE  H15R19245   3.022   5.850   8.074  0.6097 -0.9491  2.2756
  170SAPE  C21619246   3.238   5.861   8.134  0.8990 -0.0099 -1.0870
  170SAPE  H16R19247   3.285   5.962   8.133  1.6136 -0.3305 -2.2399
  170SAPE  H16S19248   3.311   5.784   8.101  0.4220 -0.2940 -1.4847
  170SAPE  C21719249   3.201   5.819   8.286  0.2732  0.3616 -0.0526
  170SAPE  H17R19250   3.166   5.714   8.278  2.6690 -0.4041 -1.4049
  170SAPE  H17S19251   3.123   5.890   8.323  0.1445  0.3139 -0.2294
  170SAPE  C21819252   3.318   5.806   8.381  0.4513  0.1957 -0.2073
  170SAPE  H18R19253   3.396   5.733   8.352 -0.3511 -1.1239  0.8161
  170SAPE  H18S19254   3.271   5.775   8.477  2.8093  2.1898  1.7131
  170SAPE  C21919255   3.378   5.932   8.430 -0.7293 -0.2841 -0.0153
  170SAPE  H19R19256   3.434   5.983   8.349 -0.4526 -0.0033  0.3528
  170SAPE  H19S19257   3.446   5.897   8.510  1.1431  0.4400 -1.2407
  170SAPE  C22019258   3.274   6.034   8.480 -0.4064  0.1662  0.1898
  170SAPE  H20R19259   3.325   6.123   8.522 -1.2181  0.3769  0.7573
  170SAPE  H20S19260   3.202   5.989   8.553  1.6045 -0.3764  1.9306
  170SAPE  H20T19261   3.218   6.074   8.392 -1.7632  0.5110  1.1637
  170SAPE   C3319262   4.163   5.734   7.090  0.1469 -0.8296  0.2666
  170SAPE   H3X19263   4.239   5.653   7.089  0.5759 -0.4343  0.3472
  170SAPE   H3Y19264   4.070   5.699   7.039  0.8732 -1.0000 -0.9941
  170SAPE   C3419265   4.114   5.769   7.231 -0.0964 -0.5713 -0.6506
  170SAPE   H4X19266   4.045   5.855   7.237 -0.0556 -0.6020  0.3446
  170SAPE   H4Y19267   4.211   5.788   7.283  1.1632 -3.2119 -1.8540
  170SAPE   C3519268   4.048   5.659   7.308 -0.0278  0.6708 -0.3540
  170SAPE   H5X19269   4.105   5.564   7.293  1.1764  1.1590  0.8968
  170SAPE   H5Y19270   3.955   5.632   7.254  1.9174  0.3451 -3.8349
  170SAPE   C3619271   4.023   5.674   7.462 -0.1586 -0.2541  0.4947
  170SAPE   H6X19272   3.954   5.760   7.478  1.7405  1.6219 -0.8661
  170SAPE   H6Y19273   4.110   5.718   7.515  0.4201  0.6732 -1.1626
  170SAPE   C3719274   3.984   5.536   7.521 -0.4162 -0.2783  0.1652
  170SAPE   H7X19275   4.071   5.468   7.517  0.0283  0.3247 -1.1081
  170SAPE   H7Y19276   3.900   5.487   7.467 -1.2768 -0.4529  1.6003
  170SAPE   C3819277   3.933   5.553   7.664 -0.4965  0.0083 -0.1666
  170SAPE   H8X19278   4.009   5.597   7.732  2.9710 -4.1900 -0.9096
  170SAPE   H8Y19279   3.926   5.447   7.699 -2.3995 -0.6782 -2.3727
  170SAPE   C3919280   3.807   5.634   7.681 -0.9959 -0.4036  0.0697
  170SAPE   H9X19281   3.727   5.589   7.620 -1.8938  1.9983 -0.6524
  170SAPE   H9Y19282   3.808   5.736   7.636 -4.0267 -1.1271 -1.8844
  170SAPE  C31019283   3.753   5.633   7.829  0.9217  0.0730 -0.1344
  170SAPE  H10X19284   3.746   5.531   7.872 -0.4387  1.4824  3.3444
  170SAPE  H10Y19285   3.651   5.675   7.821  1.0953  0.7537  1.0344
  170SAPE  C31119286   3.838   5.728   7.922  0.9195 -0.3818 -0.2856
  170SAPE  H11X19287   3.871   5.813   7.860  0.8329 -1.5603 -2.0254
  170SAPE  H11Y19288   3.920   5.659   7.952  1.0919 -0.1190 -0.1540
  170SAPE  C31219289   3.769   5.767   8.048  0.5548  0.3797  0.0669
  170SAPE  H12X19290   3.834   5.788   8.136  0.4407  0.4712  0.1287
  170SAPE  H12Y19291   3.719   5.672   8.077  0.0303  0.6177 -0.0408
  170SAPE  C31319292   3.661   5.877   8.030  0.7169  0.1552  0.0417
  170SAPE  H13X19293   3.616   5.893   8.130  0.5392 -3.0604  0.5804
  170SAPE  H13Y19294   3.575   5.847   7.967  0.4449 -0.6240  0.7619
  170SAPE  C31419295   3.720   6.007   7.970 -0.2701 -0.3632 -0.2350
  170SAPE  H14X19296   3.649   6.092   7.973 -0.0568 -0.1913 -0.0659
  170SAPE  H14Y19297   3.742   5.981   7.865  0.2658 -1.8526  0.2230
  170SAPE  C31519298   3.856   6.056   8.036  0.6083  0.4821 -0.9361
  170SAPE  H15X19299   3.900   6.145   7.986  3.2256 -1.2261 -1.8739
  170SAPE  H15Y19300   3.929   5.975   8.017  0.5160  0.1243  0.1634
  170SAPE  C31619301   3.847   6.072   8.186  0.5402  0.1583 -0.3367
  170SAPE  H16X19302   3.940   6.125   8.216  0.2397  0.4552  0.0770
  170SAPE  H16Y19303   3.825   5.977   8.240  0.3646  0.2225 -0.2955
  170SAPE  C31719304   3.736   6.160   8.235  0.0255  0.2056  0.2390
  170SAPE  H17X19305   3.634   6.128   8.204  1.2153 -0.3531 -3.6521
  170SAPE  H17Y19306   3.751   6.262   8.194 -0.8816  0.7196  1.1513
  170SAPE  C31819307   3.723   6.179   8.390 -0.3227 -0.4151  0.3853
  170SAPE  H18X19308   3.816   6.133   8.429 -0.5632 -0.5008  0.8621
  170SAPE  H18Y19309   3.637   6.124   8.434 -1.1921  0.7554  0.1948
  170SAPE  H18Z19310   3.719   6.283   8.429  0.9492 -1.1598  2.6814
  171SAPE     N19311   5.974   0.563   5.956 -0.2804 -0.4220  0.0466
  171SAPE   HN119312   5.928   0.651   5.988  2.6696  0.6299  1.8084
  171SAPE   HN219313   6.077   0.571   5.969  0.0511 -3.6945  0.2318
  171SAPE   HN319314   5.962   0.553   5.854  1.0256 -2.5520  0.0416
  171SAPE   C1219315   5.932   0.456   6.048  0.4452  0.4186  0.7087
  171SAPE  H12A19316   5.948   0.482   6.155 -3.3523  0.8288  1.3121
  171SAPE  H12B19317   5.999   0.372   6.019  0.0300  0.6534 -1.0953
  171SAPE   C1119318   5.788   0.403   6.022 -1.2495 -0.0795  0.1386
  171SAPE  H11A19319   5.771   0.302   6.067  3.5107 -0.6139  1.2385
  171SAPE  H11B19320   5.795   0.374   5.915 -0.3032 -0.1189  0.2037
  171SAPE     P19321   5.559   0.494   6.125 -0.1927  0.2536 -0.3148
  171SAPE   O1319322   5.526   0.635   6.166 -0.4663 -0.1628 -0.2071
  171SAPE   O1419323   5.460   0.430   6.040  0.8187  0.0622  0.4587
  171SAPE   O1219324   5.695   0.505   6.046  0.2977  0.0308 -0.0302
  171SAPE   O1119325   5.591   0.390   6.240  0.3686 -0.0833  0.2760
  171SAPE    C119326   5.477   0.325   6.295  0.7276  0.2798  0.6056
  171SAPE    HA19327   5.401   0.398   6.329 -1.6898 -1.4170 -0.8673
  171SAPE    HB19328   5.427   0.259   6.221  2.2631  1.8936 -2.0007
  171SAPE    C219329   5.520   0.237   6.418  0.8006  0.5219  0.3201
  171SAPE    HS19330   5.434   0.174   6.448  0.2594 -0.1911 -2.4571
  171SAPE   O2119331   5.568   0.328   6.520  0.2943  0.1208  0.5293
  171SAPE   C2119332   5.472   0.379   6.593 -0.1961  0.1394  0.3144
  171SAPE   O2219333   5.354   0.351   6.581 -0.2207  0.0866  0.7442
  171SAPE   C2219334   5.538   0.480   6.692  0.4697 -0.1061  1.0899
  171SAPE   H2R19335   5.648   0.495   6.679  0.4594  0.3688  1.5295
  171SAPE   H2S19336   5.488   0.572   6.656  0.3053 -0.4375  0.4484
  171SAPE    C319337   5.633   0.132   6.385  0.1905  0.7444  0.1545
  171SAPE    HX19338   5.719   0.177   6.330  0.2627  0.3163 -0.0928
  171SAPE    HY19339   5.589   0.064   6.309 -1.9065  0.2294  1.7392
  171SAPE   O3119340   5.673   0.051   6.506 -0.6159  0.5156 -0.3551
  171SAPE   C3119341   5.762   0.106   6.586  0.4333  0.0050 -0.1289
  171SAPE   O3219342   5.830   0.204   6.558  0.1313  0.4166  0.0432
  171SAPE   C3219343   5.771   0.034   6.716  0.6386 -0.6100  0.1007
  171SAPE   H2X19344   5.701  -0.052   6.722  0.0477 -0.1902 -0.5714
  171SAPE   H2Y19345   5.740   0.116   6.785  1.0605  2.0088 -2.5818
  171SAPE   C2319346   5.497   0.443   6.833 -0.1251  0.2349 -0.1198
  171SAPE   H3R19347   5.387   0.427   6.832 -0.4603  2.3783 -0.7998
  171SAPE   H3S19348   5.511   0.523   6.909 -3.1181 -0.9160  1.8704
  171SAPE   C2419349   5.579   0.333   6.896 -0.2835  0.0746 -0.0682
  171SAPE   H4R19350   5.557   0.245   6.833 -0.2100  1.4406 -2.0901
  171SAPE   H4S19351   5.537   0.301   6.994 -0.2048 -0.5884 -0.2519
  171SAPE   C2519352   5.728   0.357   6.922  0.5872  0.1036  0.1292
  171SAPE   H5R19353   5.778   0.403   6.835 -1.0882  1.0364 -0.3689
  171SAPE   C2619354   5.789   0.338   7.041 -0.7985  0.4377 -0.2543
  171SAPE   H6R19355   5.894   0.368   7.044 -0.0515 -1.7481 -1.8037
  171SAPE   C2719356   5.728   0.284   7.169  0.2468  0.4482 -0.5118
  171SAPE   H7R19357   5.624   0.323   7.174  1.6370  4.5905  1.6245
  171SAPE   H7S19358   5.775   0.344   7.250  0.0087  0.6518 -0.5221
  171SAPE   C2819359   5.727   0.133   7.183 -0.3851 -0.1407  0.4002
  171SAPE   H8R19360   5.662   0.076   7.115 -0.3647 -0.7293  0.8626
  171SAPE   C2919361   5.811   0.069   7.262 -0.1222  0.3155  0.1484
  171SAPE   H9R19362   5.788  -0.036   7.280  0.4557  0.0411 -0.6449
  171SAPE  C21019363   5.919   0.117   7.362  0.4827 -0.4172  0.6623
  171SAPE  H10R19364   5.872   0.110   7.462  1.6473  0.5346  1.2980
  171SAPE  H10S19365   5.937   0.223   7.333 -1.5863 -0.7332 -2.2390
  171SAPE  C21119366   6.049   0.040   7.344  0.6519  0.7194  0.0076
  171SAPE  H11R19367   6.076   0.020   7.239  2.7888 -0.6875  0.7680
  171SAPE  C21219368   6.116  -0.023   7.449 -0.1047  0.2440 -0.1254
  171SAPE  H12R19369   6.210  -0.064   7.410  0.7871  0.8401  1.3184
  171SAPE  C21319370   6.099  -0.031   7.599  0.3084  0.0027 -0.1610
  171SAPE  H13R19371   6.065  -0.127   7.642  2.5976 -0.3392  1.0493
  171SAPE  H13S19372   6.018   0.043   7.618  1.5855  1.5044 -0.3305
  171SAPE  C21419373   6.216  -0.002   7.680  0.1411  0.3218 -0.5008
  171SAPE  H14R19374   6.264   0.094   7.655  0.1097  0.4829  0.0373
  171SAPE  C21519375   6.275  -0.063   7.781  0.8917 -0.7505  0.2170
  171SAPE  H15R19376   6.370  -0.016   7.811  0.7447  0.2179 -0.7928
  171SAPE  C21619377   6.235  -0.185   7.859  0.4631  0.0024  0.1127
  171SAPE  H16R19378   6.258  -0.276   7.800 -0.5987 -0.5568  0.5368
  171SAPE  H16S19379   6.134  -0.179   7.905  0.7356  0.3653  0.6806
  171SAPE  C21719380   6.329  -0.207   7.986 -0.2439  0.0737  0.6072
  171SAPE  H17R19381   6.333  -0.113   8.045 -0.6952  1.0088 -0.8126
  171SAPE  H17S19382   6.429  -0.234   7.946 -0.9538 -0.8013 -0.6719
  171SAPE  C21819383   6.274  -0.323   8.072  0.3100 -0.2390 -0.6318
  171SAPE  H18R19384   6.271  -0.418   8.015  0.0545  0.6065 -2.0731
  171SAPE  H18S19385   6.167  -0.313   8.100  0.5740  2.2962 -0.3353
  171SAPE  C21919386   6.361  -0.352   8.194  0.5982 -0.7122 -0.4522
  171SAPE  H19R19387   6.466  -0.316   8.186 -0.4006  2.2465 -1.3575
  171SAPE  H19S19388   6.355  -0.461   8.218 -0.3164 -0.7389 -0.7764
  171SAPE  C22019389   6.309  -0.271   8.323  0.4507  0.0523 -0.5695
  171SAPE  H20R19390   6.364  -0.304   8.413  1.2154 -0.5156 -1.2252
  171SAPE  H20S19391   6.198  -0.277   8.326  0.3888  1.4152  0.6869
  171SAPE  H20T19392   6.326  -0.163   8.308 -2.7250  0.5377 -1.5110
  171SAPE   C3319393   5.921  -0.009   6.742 -0.0873  0.1464  0.2364
  171SAPE   H3X19394   5.995   0.073   6.733  0.6606 -0.6117 -0.7592
  171SAPE   H3Y19395   5.946  -0.083   6.663 -1.7367 -1.3321  1.0208
  171SAPE   C3419396   5.942  -0.085   6.883 -0.2832 -0.2041  0.3656
  171SAPE   H4X19397   5.869  -0.169   6.880 -0.1262 -0.3818  1.2538
  171SAPE   H4Y19398   5.916  -0.018   6.968 -1.5907 -1.0234  0.6523
  171SAPE   C3519399   6.074  -0.155   6.909 -0.4611 -0.1140 -0.4695
  171SAPE   H5X19400   6.096  -0.216   6.819 -1.2378  1.2000 -1.5807
  171SAPE   H5Y19401   6.068  -0.225   6.996  0.6669 -0.4993 -0.6839
  171SAPE   C3619402   6.193  -0.064   6.950 -0.0421 -0.3428 -0.1319
  171SAPE   H6X19403   6.151   0.008   7.023 -0.3611 -0.1759 -0.4724
  171SAPE   H6Y19404   6.228  -0.002   6.864 -1.4712 -0.3809 -0.7669
  171SAPE   C3719405   6.307  -0.148   7.007 -0.1052  0.1688 -0.1328
  171SAPE   H7X19406   6.401  -0.130   6.950  0.1734 -1.9443 -0.4166
  171SAPE   H7Y19407   6.289  -0.256   6.985 -0.1702  0.2973 -0.7479
  171SAPE   C3819408   6.332  -0.114   7.154  0.4494 -0.4973 -0.7707
  171SAPE   H8X19409   6.234  -0.132   7.204  0.8941 -0.0803  0.2813
  171SAPE   H8Y19410   6.360  -0.007   7.165  2.2506 -1.0552  0.5868
  171SAPE   C3919411   6.449  -0.195   7.218  0.2998 -0.4984  0.0507
  171SAPE   H9X19412   6.542  -0.186   7.157  0.9764  1.2876  1.2709
  171SAPE   H9Y19413   6.428  -0.304   7.215  3.0017 -1.0966 -2.7184
  171SAPE  C31019414   6.487  -0.139   7.356 -0.8098 -0.2369  0.2833
  171SAPE  H10X19415   6.434  -0.193   7.437 -0.4256  0.0638  0.7420
  171SAPE  H10Y19416   6.474  -0.029   7.366  1.0707  0.1761 -1.1127
  171SAPE  C31119417   6.637  -0.153   7.388 -0.1457 -1.0123  0.4246
  171SAPE  H11X19418   6.691  -0.073   7.332  0.0126 -0.4841  1.3257
  171SAPE  H11Y19419   6.662  -0.255   7.353 -2.4095 -1.3484 -0.4028
  171SAPE  C31219420   6.662  -0.150   7.539 -1.0721  0.3106 -0.1971
  171SAPE  H12X19421   6.646  -0.252   7.581  1.2708  0.0900  0.3216
  171SAPE  H12Y19422   6.591  -0.081   7.588 -0.4461  0.4980  0.4473
  171SAPE  C31319423   6.803  -0.098   7.567  0.1590 -1.0266 -0.7719
  171SAPE  H13X19424   6.800   0.013   7.580  0.9351 -1.0535 -0.2602
  171SAPE  H13Y19425   6.880  -0.119   7.490  0.8041 -2.3807  0.1931
  171SAPE  C31419426   6.866  -0.163   7.697  0.0268  0.5301  0.5806
  171SAPE  H14X19427   6.974  -0.138   7.701 -0.2498  1.8469  0.4190
  171SAPE  H14Y19428   6.858  -0.273   7.689 -0.1427  0.5234  0.8335
  171SAPE  C31519429   6.797  -0.119   7.834  0.1584 -0.3365  0.2229
  171SAPE  H15X19430   6.694  -0.161   7.834 -1.5339  3.3996  1.0789
  171SAPE  H15Y19431   6.786  -0.008   7.830 -0.4489 -0.4383 -1.6620
  171SAPE  C31619432   6.873  -0.154   7.963 -0.0107 -0.9658  0.1201
  171SAPE  H16X19433   6.838  -0.087   8.044  0.0648 -0.2429 -0.4387
  171SAPE  H16Y19434   6.981  -0.133   7.948 -0.1522 -0.7296 -0.6253
  171SAPE  C31719435   6.851  -0.303   8.003 -0.4745 -0.0649 -0.3925
  171SAPE  H17X19436   6.889  -0.368   7.921  1.0466 -0.7250  0.7809
  171SAPE  H17Y19437   6.742  -0.320   8.020 -0.3287  0.0075  0.6942
  171SAPE  C31819438   6.943  -0.328   8.128  0.1702  0.0841  0.8079
  171SAPE  H18X19439   7.046  -0.302   8.096 -0.8678 -1.0392 -4.3577
  171SAPE  H18Y19440   6.939  -0.432   8.169  2.0494 -1.1389 -1.8215
  171SAPE  H18Z19441   6.919  -0.253   8.206  0.7318  0.7228  0.3736
  172SAPE     N19442   0.323   4.969   6.050  0.4327 -0.0302 -0.3850
  172SAPE   HN119443   0.319   5.041   6.125 -0.2214 -0.9037  0.4573
  172SAPE   HN219444   0.226   4.949   6.020  0.5459 -0.5653 -0.4109
  172SAPE   HN319445   0.358   4.884   6.100 -0.1092  0.4202  0.8056
  172SAPE   C1219446   0.413   5.001   5.927  0.5649 -0.1645 -0.0706
  172SAPE  H12A19447   0.343   5.068   5.873 -0.1967 -1.0534 -0.2073
  172SAPE  H12B19448   0.404   4.910   5.865 -1.8366  0.4167 -0.6982
  172SAPE   C1119449   0.554   5.060   5.962  0.5307 -0.0620 -0.1707
  172SAPE  H11A19450   0.550   5.129   6.050  2.0514  0.5899 -0.5842
  172SAPE  H11B19451   0.569   5.122   5.871 -0.3742 -1.6943 -1.4850
  172SAPE     P19452   0.677   4.877   6.103  0.0253  0.1138 -0.3184
  172SAPE   O1319453   0.682   4.730   6.076 -0.1483  0.1948  0.1998
  172SAPE   O1419454   0.799   4.933   6.166  0.5657  0.4841  0.3864
  172SAPE   O1219455   0.648   4.956   5.966  0.1370 -0.2866 -0.4475
  172SAPE   O1119456   0.555   4.924   6.186 -0.1055  0.4592  0.0089
  172SAPE    C119457   0.573   4.999   6.311 -0.0257  0.2262  0.3875
  172SAPE    HA19458   0.639   5.086   6.294  3.1350 -1.4955  2.6477
  172SAPE    HB19459   0.469   5.027   6.339 -0.4405 -1.6192  0.8636
  172SAPE    C219460   0.631   4.923   6.429 -0.3609 -0.3336  1.1657
  172SAPE    HS19461   0.726   4.888   6.385 -0.4851 -0.0222  0.6435
  172SAPE   O2119462   0.542   4.813   6.447  0.3413 -0.5261  0.2827
  172SAPE   C2119463   0.605   4.700   6.468 -0.0205  0.0040 -0.5953
  172SAPE   O2219464   0.724   4.684   6.479  0.0078  0.0663  0.4924
  172SAPE   C2219465   0.507   4.584   6.476 -1.1286 -0.6724 -0.1673
  172SAPE   H2R19466   0.408   4.623   6.442 -0.1510 -0.0679 -2.4732
  172SAPE   H2S19467   0.538   4.506   6.403  1.6663  0.9992 -0.8990
  172SAPE    C319468   0.640   5.004   6.560  0.3745  0.6630 -0.2557
  172SAPE    HX19469   0.545   5.060   6.573 -0.2634  0.2159 -2.6670
  172SAPE    HY19470   0.718   5.080   6.537  1.8875 -1.0058 -0.9099
  172SAPE   O3119471   0.682   4.919   6.669 -0.5481 -0.6078 -0.2833
  172SAPE   C3119472   0.649   4.955   6.789  0.0634 -0.2178 -0.4947
  172SAPE   O3219473   0.599   5.067   6.815 -0.2121  0.3888 -0.0472
  172SAPE   C3219474   0.694   4.847   6.885 -0.1497  0.1443 -0.0485
  172SAPE   H2X19475   0.761   4.774   6.835 -1.1626  0.1160 -1.4371
  172SAPE   H2Y19476   0.602   4.801   6.927  0.3840  0.1425  1.1689
  172SAPE   C2319477   0.503   4.521   6.617  0.7236  0.6871 -0.0663
  172SAPE   H3R19478   0.417   4.452   6.611 -0.2068  1.5874  2.0560
  172SAPE   H3S19479   0.472   4.589   6.699  1.6554 -0.3770  1.2133
  172SAPE   C2419480   0.626   4.453   6.663 -0.5199 -0.7442 -0.3533
  172SAPE   H4R19481   0.631   4.420   6.769  0.1645  1.8670  0.5051
  172SAPE   H4S19482   0.708   4.527   6.660 -0.2357 -0.9734  1.0105
  172SAPE   C2519483   0.678   4.349   6.566  0.0497  0.4784 -0.1496
  172SAPE   H5R19484   0.712   4.390   6.470 -0.1361  1.7778  0.3139
  172SAPE   C2619485   0.696   4.217   6.586 -0.3382  0.4691 -0.4641
  172SAPE   H6R19486   0.736   4.148   6.509 -4.1552  0.0614 -2.2927
  172SAPE   C2719487   0.651   4.140   6.711  0.3370 -0.2324  0.6497
  172SAPE   H7R19488   0.702   4.189   6.796  0.8606  3.6985 -1.6815
  172SAPE   H7S19489   0.694   4.038   6.697  1.2336  0.1583  0.5358
  172SAPE   C2819490   0.504   4.136   6.739  0.8396  0.8783 -0.0931
  172SAPE   H8R19491   0.437   4.140   6.652  1.8121 -3.5976 -1.3208
  172SAPE   C2919492   0.445   4.114   6.858  0.1285 -0.4773 -0.5448
  172SAPE   H9R19493   0.335   4.101   6.861  0.0584  0.2602  0.8669
  172SAPE  C21019494   0.512   4.104   6.991 -0.2756  0.5561  0.4047
  172SAPE  H10R19495   0.547   4.200   7.034  1.0845  0.6747 -0.8647
  172SAPE  H10S19496   0.608   4.051   6.973 -1.2032 -1.8266  2.0886
  172SAPE  C21119497   0.434   4.026   7.088  0.1656 -0.3306 -0.0430
  172SAPE  H11R19498   0.375   3.944   7.043  0.3740 -1.6013  1.8655
  172SAPE  C21219499   0.426   4.048   7.219 -0.1342  0.0194  0.2323
  172SAPE  H12R19500   0.375   3.975   7.283  1.6721 -2.1360 -0.6685
  172SAPE  C21319501   0.488   4.163   7.297 -0.1949  0.4733  0.4087
  172SAPE  H13R19502   0.523   4.240   7.225 -2.5944  1.6430  0.4143
  172SAPE  H13S19503   0.579   4.117   7.340 -0.9377 -0.3514  1.1315
  172SAPE  C21419504   0.398   4.227   7.405  0.3809  0.4485 -0.1850
  172SAPE  H14R19505   0.306   4.272   7.366  0.5215 -0.5702 -1.7634
  172SAPE  C21519506   0.424   4.232   7.537  1.0996 -0.1773 -0.4619
  172SAPE  H15R19507   0.348   4.277   7.604  1.2152 -0.6366 -0.0182
  172SAPE  C21619508   0.549   4.170   7.596  0.3712 -0.3686  0.6890
  172SAPE  H16R19509   0.584   4.247   7.668  0.7060  1.3221 -1.1933
  172SAPE  H16S19510   0.634   4.156   7.526  0.6747  0.3737  0.9034
  172SAPE  C21719511   0.520   4.035   7.655  0.1308  0.1854 -0.3533
  172SAPE  H17R19512   0.621   3.999   7.686 -0.0762 -1.9085 -1.8685
  172SAPE  H17S19513   0.472   3.984   7.568 -0.5399  0.8560 -0.3885
  172SAPE  C21819514   0.421   4.035   7.769  0.3070  0.5052  0.5102
  172SAPE  H18R19515   0.317   4.047   7.731  0.0536 -1.7169  0.3462
  172SAPE  H18S19516   0.459   4.117   7.833 -0.4648  0.3270  1.2096
  172SAPE  C21919517   0.427   3.910   7.862  0.3560  0.2123  0.1021
  172SAPE  H19R19518   0.526   3.884   7.903  0.9670 -0.2492 -1.5805
  172SAPE  H19S19519   0.382   3.818   7.818 -1.3358 -0.0374  2.1695
  172SAPE  C22019520   0.333   3.940   7.984  0.0197  0.2192  0.8097
  172SAPE  H20R19521   0.240   3.989   7.948 -0.5467 -0.9678  0.5760
  172SAPE  H20S19522   0.379   4.009   8.057 -0.6575  0.8018  0.6983
  172SAPE  H20T19523   0.300   3.844   8.030 -1.2475 -0.1177 -0.7248
  172SAPE   C3319524   0.756   4.912   7.012 -0.5972  0.7011 -0.6908
  172SAPE   H3X19525   0.695   4.999   7.044  2.4561  2.4391  0.9281
  172SAPE   H3Y19526   0.855   4.960   6.995 -0.8142  1.3113 -0.2924
  172SAPE   C3419527   0.751   4.811   7.131  0.6952 -0.1684  0.6955
  172SAPE   H4X19528   0.825   4.730   7.112 -1.8649 -1.8621 -3.3462
  172SAPE   H4Y19529   0.652   4.763   7.122  0.9487 -0.5628 -0.0524
  172SAPE   C3519530   0.776   4.875   7.263 -0.0981 -0.0613 -0.0295
  172SAPE   H5X19531   0.821   4.793   7.323 -0.5652 -1.0799 -1.0222
  172SAPE   H5Y19532   0.678   4.901   7.310 -0.8680 -1.0568 -1.0067
  172SAPE   C3619533   0.863   5.001   7.255  0.0510 -0.4428  0.3147
  172SAPE   H6X19534   0.819   5.086   7.199  2.0028  0.6272  0.3209
  172SAPE   H6Y19535   0.963   4.978   7.212 -0.2065 -1.5853  0.2770
  172SAPE   C3719536   0.883   5.069   7.394 -0.2672  0.7788  0.0912
  172SAPE   H7X19537   0.780   5.102   7.417 -0.3257 -0.8744  2.5181
  172SAPE   H7Y19538   0.946   5.160   7.387  0.6997  0.1331  0.1379
  172SAPE   C3819539   0.935   4.972   7.498 -0.4432 -0.6325  0.0879
  172SAPE   H8X19540   1.014   4.908   7.453 -1.4682 -2.1678  0.3736
  172SAPE   H8Y19541   0.858   4.895   7.523 -1.1952 -0.1306 -0.6107
  172SAPE   C3919542   0.972   5.042   7.634 -0.1451  0.0174  0.6974
  172SAPE   H9X19543   0.887   5.080   7.694 -0.7261  0.0551 -0.1303
  172SAPE   H9Y19544   1.027   5.130   7.593 -1.8233 -0.2152 -2.2882
  172SAPE  C31019545   1.050   4.945   7.725  0.2205  0.4312 -0.4724
  172SAPE  H10X19546   1.116   4.894   7.651 -0.9923  0.3156 -1.5088
  172SAPE  H10Y19547   0.975   4.875   7.768  1.1267 -0.3919 -0.1958
  172SAPE  C31119548   1.150   5.005   7.813  0.5259  0.8339  0.1054
  172SAPE  H11X19549   1.234   5.049   7.756  1.7753 -1.5353 -0.0300
  172SAPE  H11Y19550   1.190   4.918   7.869  1.1274  0.0250 -1.4987
  172SAPE  C31219551   1.084   5.103   7.908 -0.4769 -0.6826 -0.4075
  172SAPE  H12X19552   1.001   5.059   7.967  0.1991  2.3114  3.0882
  172SAPE  H12Y19553   1.061   5.188   7.840  0.7084 -0.3498 -0.4196
  172SAPE  C31319554   1.185   5.174   8.007 -0.1388  0.1740 -0.4899
  172SAPE  H13X19555   1.250   5.091   8.043 -0.7578 -1.1440 -2.2403
  172SAPE  H13Y19556   1.118   5.220   8.082  0.1637  1.8358 -1.2008
  172SAPE  C31419557   1.284   5.278   7.942  0.1749 -0.0838 -0.2634
  172SAPE  H14X19558   1.221   5.342   7.876 -1.1188  0.1918  1.1573
  172SAPE  H14Y19559   1.362   5.229   7.881  0.4245 -0.8621  0.6578
  172SAPE  C31519560   1.351   5.360   8.052 -0.4097 -0.0855  0.3888
  172SAPE  H15X19561   1.276   5.396   8.127 -1.6840 -0.4123 -0.6784
  172SAPE  H15Y19562   1.396   5.443   7.993  1.3647  0.3329  2.2520
  172SAPE  C31619563   1.460   5.288   8.132  0.1865 -0.8837 -0.6943
  172SAPE  H16X19564   1.532   5.236   8.066  2.0008  0.4000  0.2075
  172SAPE  H16Y19565   1.406   5.210   8.191  1.3247  0.2170  1.9439
  172SAPE  C31719566   1.524   5.372   8.246 -0.4502  0.1915  0.8770
  172SAPE  H17X19567   1.581   5.455   8.198 -0.9989 -1.0145 -2.1289
  172SAPE  H17Y19568   1.601   5.320   8.306  0.2551 -0.1843 -0.3173
  172SAPE  C31819569   1.429   5.423   8.358 -0.0567  0.3967 -0.0177
  172SAPE  H18X19570   1.349   5.346   8.366 -0.9001  1.1700 -0.8265
  172SAPE  H18Y19571   1.367   5.510   8.329 -0.2714  0.7779  1.5059
  172SAPE  H18Z19572   1.473   5.436   8.459 -1.5672 -1.6627  0.9734
  173SOPE     N19573   0.638   4.309  10.790  0.4106 -0.2938  0.2281
  173SOPE   HN119574   0.725   4.358  10.820 -0.5776 -0.2573  3.3422
  173SOPE   HN219575   0.601   4.345  10.699 -1.2041  0.4434  1.1394
  173SOPE   HN319576   0.567   4.349  10.854 -1.1744  0.1475 -1.7220
  173SOPE   C1219577   0.655   4.162  10.806  0.3573 -0.5831 -0.3430
  173SOPE  H12A19578   0.555   4.112  10.805 -0.8298  1.4142  3.0453
  173SOPE  H12B19579   0.701   4.153  10.907  0.6527  0.5833 -0.3626
  173SOPE   C1119580   0.759   4.104  10.703  0.0650 -0.3342  0.2312
  173SOPE  H11A19581   0.726   4.113  10.598  0.9754  0.0338 -0.0263
  173SOPE  H11B19582   0.778   3.999  10.732 -1.0675 -0.0145  2.4263
  173SOPE     P19583   0.999   4.169  10.638 -0.3317 -0.0611  0.0805
  173SOPE   O1319584   1.059   4.037  10.678  0.4268  0.2090  0.2481
  173SOPE   O1419585   1.077   4.293  10.647 -0.1400  0.4180  0.5367
  173SOPE   O1219586   0.880   4.179  10.725  0.3465  0.9708 -0.6520
  173SOPE   O1119587   0.946   4.153  10.494 -0.0861 -0.1090 -0.0995
  173SOPE    C119588   0.928   4.021  10.430  0.4206 -0.0719 -1.0506
  173SOPE    HA19589   0.841   4.032  10.362  0.3943  1.7213 -0.7710
  173SOPE    HB19590   0.918   3.936  10.502  0.6149  0.8645  0.1107
  173SOPE    C219591   1.051   3.999  10.341  0.0212 -0.2291 -0.7145
  173SOPE    HS19592   1.133   4.024  10.411  0.0258 -1.1132 -0.3865
  173SOPE   O2119593   1.032   4.093  10.233  0.6939 -0.2249 -0.1129
  173SOPE   C2119594   1.136   4.085  10.153  0.4960 -0.5349 -0.5323
  173SOPE   O2219595   1.238   4.025  10.176  0.3480  0.1021  0.3923
  173SOPE   C2219596   1.101   4.156  10.013 -0.0016 -0.1100  0.3861
  173SOPE   H2R19597   1.195   4.199   9.972 -0.5520  2.3476  1.4825
  173SOPE   H2S19598   1.026   4.236  10.029 -1.0710 -0.6092 -1.7027
  173SOPE    C319599   1.060   3.840  10.303  0.1482 -0.3770  0.9509
  173SOPE    HX19600   1.038   3.780  10.394 -1.6254  1.3005  1.6947
  173SOPE    HY19601   1.164   3.823  10.267  0.2664 -0.4385  1.3196
  173SOPE   O3119602   0.973   3.815  10.193  0.7970 -0.3734  0.4133
  173SOPE   C3119603   0.954   3.686  10.168 -0.4095  1.0212  0.3242
  173SOPE   O3219604   1.003   3.595  10.235 -0.1137  0.0201  0.1820
  173SOPE   C3219605   0.892   3.678  10.031  0.0383  0.6886 -0.0973
  173SOPE   H2X19606   0.959   3.724   9.956 -0.0520  2.0188  0.6212
  173SOPE   H2Y19607   0.789   3.718  10.042  0.2049  0.3252  4.7914
  173SOPE   C2319608   1.045   4.048   9.918  0.2458 -0.2067 -0.0594
  173SOPE   H3R19609   0.943   4.015   9.948  0.0750 -1.8971 -2.2620
  173SOPE   H3S19610   1.101   3.952   9.911 -1.8899 -1.4287 -1.9984
  173SOPE   C2419611   1.039   4.105   9.779  0.1967  0.1181  0.0890
  173SOPE   H4R19612   0.959   4.183   9.770 -0.8741 -1.2048 -3.7188
  173SOPE   H4S19613   1.134   4.155   9.750 -0.1097  0.3343 -0.5800
  173SOPE   C2519614   1.020   3.994   9.668 -0.2307 -0.9897 -0.7210
  173SOPE   H5R19615   1.114   3.936   9.677  1.1383  0.6938 -3.2124
  173SOPE   H5S19616   0.931   3.928   9.679 -0.2631 -0.8720 -0.2295
  173SOPE   C2619617   1.020   4.055   9.526  0.8125 -0.1981  0.5125
  173SOPE   H6R19618   0.962   3.987   9.459  1.6871  1.0741 -1.6392
  173SOPE   H6S19619   0.957   4.146   9.518 -0.3896 -1.1488 -3.8626
  173SOPE   C2719620   1.151   4.078   9.457  0.2444 -0.3003 -0.6308
  173SOPE   H7R19621   1.189   4.172   9.503 -0.3218 -0.6282  0.5507
  173SOPE   H7S19622   1.224   3.995   9.472  0.1750 -0.5915 -1.7926
  173SOPE   C2819623   1.136   4.106   9.304 -0.3598 -0.3828  0.5059
  173SOPE   H8R19624   1.103   4.015   9.250  0.3085 -0.4375  0.1883
  173SOPE   H8S19625   1.058   4.185   9.295 -0.2074 -0.2058  0.7325
  173SOPE   C2919626   1.265   4.165   9.252  0.6380  0.0834 -0.0363
  173SOPE   H9119627   1.346   4.162   9.327  0.6623  0.9841 -0.0191
  173SOPE  C21019628   1.293   4.210   9.129 -1.1165 -0.6563  0.6080
  173SOPE  H10119629   1.397   4.242   9.111 -0.1794 -1.4767  3.9025
  173SOPE  C21119630   1.199   4.222   9.012  0.8877  0.3405 -0.1996
  173SOPE  H11R19631   1.130   4.307   9.029  0.3086  0.2119 -1.7748
  173SOPE  H11S19632   1.144   4.127   8.997 -0.1571  0.8715  0.1835
  173SOPE  C21219633   1.279   4.242   8.878 -0.4778 -0.1513  0.0218
  173SOPE  H12R19634   1.326   4.342   8.883  2.4256 -1.3336 -1.5329
  173SOPE  H12S19635   1.218   4.261   8.786  1.0222  0.1427 -0.9486
  173SOPE  C21319636   1.373   4.123   8.842  0.1393  0.4173 -0.2189
  173SOPE  H13R19637   1.315   4.031   8.862  0.3151  0.1672 -0.8378
  173SOPE  H13S19638   1.467   4.129   8.902 -0.0118  2.4141 -0.1070
  173SOPE  C21419639   1.411   4.122   8.687 -0.1815 -0.5613 -0.5162
  173SOPE  H14R19640   1.462   4.220   8.673 -2.2806  0.8404  1.0723
  173SOPE  H14S19641   1.317   4.117   8.628 -1.2773  0.4461  1.0789
  173SOPE  C21519642   1.494   4.002   8.651  0.9227  0.5717  0.7753
  173SOPE  H15R19643   1.450   3.903   8.678  1.7742  0.2012  0.8426
  173SOPE  H15S19644   1.601   4.006   8.680  0.4772  1.2780  2.4337
  173SOPE  C21619645   1.504   3.984   8.498 -0.9329  0.1574 -0.0312
  173SOPE  H16R19646   1.551   4.074   8.452  0.9886 -0.9949 -0.4328
  173SOPE  H16S19647   1.408   3.971   8.443  0.5771 -3.8585 -2.1328
  173SOPE  C21719648   1.585   3.862   8.455  0.2792  0.0689  0.0216
  173SOPE  H17R19649   1.543   3.763   8.482 -1.6633  0.5038 -1.1775
  173SOPE  H17S19650   1.688   3.874   8.494  1.5161 -0.9350 -2.6810
  173SOPE  C21819651   1.605   3.850   8.299 -0.8795  0.1648  0.1784
  173SOPE  H18R19652   1.510   3.826   8.247 -0.5910  0.3952 -0.4609
  173SOPE  H18S19653   1.676   3.769   8.275 -1.5445 -0.8883  1.5901
  173SOPE  H18T19654   1.650   3.944   8.261  0.8729 -0.0613  1.5272
  173SOPE   C3319655   0.856   3.517  10.014  0.0311 -1.0563  0.0200
  173SOPE   H3X19656   0.788   3.489  10.097 -0.5897 -1.4823 -0.6188
  173SOPE   H3Y19657   0.946   3.453  10.020  0.1269 -0.8028  2.6179
  173SOPE   C3419658   0.780   3.498   9.881 -0.0202  0.1547  0.0865
  173SOPE   H4X19659   0.688   3.560   9.883 -1.7243 -2.1867 -0.5479
  173SOPE   H4Y19660   0.756   3.390   9.889 -2.3406  0.6105 -0.1113
  173SOPE   C3519661   0.859   3.522   9.751 -0.0788  0.2901  0.5398
  173SOPE   H5X19662   0.913   3.433   9.713 -1.5871 -0.2405 -0.4388
  173SOPE   H5Y19663   0.927   3.608   9.768  0.6611 -0.5809  2.3170
  173SOPE   C3619664   0.769   3.575   9.634  0.1179  0.0658 -0.2500
  173SOPE   H6X19665   0.696   3.655   9.660 -2.0973 -1.3121 -1.8417
  173SOPE   H6Y19666   0.705   3.496   9.588  0.9213 -0.0891 -1.1274
  173SOPE   C3719667   0.855   3.633   9.516  0.2997 -0.0302  0.2496
  173SOPE   H7X19668   0.936   3.560   9.498 -0.2147 -0.3908 -0.6387
  173SOPE   H7Y19669   0.895   3.733   9.545 -1.9415  0.9019  0.3176
  173SOPE   C3819670   0.785   3.639   9.386  0.5855  0.0258 -0.4937
  173SOPE   H8X19671   0.699   3.710   9.376  1.3252  1.2175  1.1773
  173SOPE   H8Y19672   0.740   3.541   9.358  0.1496  0.6785 -2.2532
  173SOPE   C3919673   0.888   3.687   9.277  0.8801  0.5382  0.2150
  173SOPE   H9X19674   0.957   3.601   9.266  1.0779  0.8886 -1.6247
  173SOPE   H9Y19675   0.942   3.773   9.323  0.2625  0.5864  0.8663
  173SOPE  C31019676   0.832   3.716   9.136  0.2919 -0.3921 -0.2909
  173SOPE  H10X19677   0.753   3.794   9.131  0.2826 -0.4576 -1.3020
  173SOPE  H10Y19678   0.789   3.619   9.102 -2.2872 -0.3325  2.3160
  173SOPE  C31119679   0.944   3.767   9.046 -0.4657 -0.0304  0.2291
  173SOPE  H11X19680   1.036   3.706   9.064  0.0349 -0.0996 -2.2734
  173SOPE  H11Y19681   0.964   3.875   9.060  1.7244 -0.1438 -1.5239
  173SOPE  C31219682   0.908   3.757   8.893  0.1609  0.0641 -0.0000
  173SOPE  H12X19683   0.810   3.808   8.880  0.5931  0.8746 -0.1658
  173SOPE  H12Y19684   0.907   3.646   8.884  0.1043  0.1537 -1.1964
  173SOPE  C31319685   1.031   3.817   8.818 -0.4739 -0.6467 -0.9235
  173SOPE  H13X19686   1.123   3.773   8.860 -0.4159 -0.4715 -0.8659
  173SOPE  H13Y19687   1.036   3.928   8.831  2.7463 -0.7884 -0.1139
  173SOPE  C31419688   1.035   3.791   8.669 -0.2201  0.5924 -0.2400
  173SOPE  H14X19689   0.991   3.880   8.619 -0.9871  1.2346  1.5105
  173SOPE  H14Y19690   0.980   3.697   8.645  2.2605 -0.6391 -1.5733
  173SOPE  C31519691   1.174   3.779   8.603  0.1462 -0.1586 -0.1433
  173SOPE  H15X19692   1.225   3.681   8.616 -0.4686 -0.6360 -1.1955
  173SOPE  H15Y19693   1.251   3.852   8.635 -0.9826  0.7912  0.4911
  173SOPE  C31619694   1.161   3.790   8.450  0.3064 -0.3935 -0.3514
  173SOPE  H16X19695   1.076   3.736   8.401  0.7363 -0.2292 -1.3025
  173SOPE  H16Y19696   1.255   3.746   8.411 -0.2815 -1.3583 -0.7472
  173SOPE  C31719697   1.150   3.928   8.383  0.2233 -0.5295 -0.3564
  173SOPE  H17X19698   1.200   3.999   8.452 -2.7467  1.3836 -0.0447
  173SOPE  H17Y19699   1.044   3.958   8.389  0.0789 -1.3007  2.1518
  173SOPE  C31819700   1.195   3.938   8.234 -0.1372 -0.2001  0.2623
  173SOPE  H18X19701   1.128   3.885   8.164 -1.7688  1.5375  0.3989
  173SOPE  H18Y19702   1.300   3.903   8.235  0.3292  1.1217  1.5622
  173SOPE  H18Z19703   1.198   4.047   8.209  1.7736  0.1369  1.7108
  174SOPE     N19704   5.643   1.884  10.411 -0.0848  0.2210 -0.9621
  174SOPE   HN119705   5.550   1.922  10.437 -0.6450 -1.0088 -1.0943
  174SOPE   HN219706   5.696   1.906  10.497  0.4993  0.2468 -1.3216
  174SOPE   HN319707   5.692   1.940  10.338  0.7539  1.5780  0.5751
  174SOPE   C1219708   5.648   1.735  10.381 -0.5668 -0.5169  0.7779
  174SOPE  H12A19709   5.619   1.723  10.274 -0.2388  2.0611  0.3449
  174SOPE  H12B19710   5.569   1.679  10.436  0.6463 -2.4025  0.7091
  174SOPE   C1119711   5.786   1.667  10.404 -0.3457 -0.4934 -0.0653
  174SOPE  H11A19712   5.772   1.558  10.385  1.0459 -0.8334  0.6833
  174SOPE  H11B19713   5.817   1.674  10.510 -2.1952 -0.6385  0.5155
  174SOPE     P19714   6.008   1.654  10.273  0.1242 -0.0992 -0.2042
  174SOPE   O1319715   6.023   1.529  10.356 -0.2490 -0.2772 -0.2802
  174SOPE   O1419716   6.129   1.740  10.274  0.1164 -0.4214  0.5430
  174SOPE   O1219717   5.887   1.728  10.324  0.5611 -0.7902 -0.2021
  174SOPE   O1119718   5.982   1.614  10.125  0.2298  0.4592  0.2577
  174SOPE    C119719   5.914   1.490  10.093  0.0772  0.7029  0.1004
  174SOPE    HA19720   5.857   1.446  10.177  0.9098  0.0465  0.3305
  174SOPE    HB19721   5.987   1.412  10.063  0.0161  0.2071  1.1783
  174SOPE    C219722   5.819   1.516   9.972  0.0845  0.5365  0.5854
  174SOPE    HS19723   5.766   1.425   9.938  1.8875  0.3541 -1.9868
  174SOPE   O2119724   5.890   1.564   9.859 -0.4223 -0.0078  0.0900
  174SOPE   C2119725   5.956   1.469   9.790  0.3825  0.1256  0.0690
  174SOPE   O2219726   5.949   1.350   9.817 -0.2860  0.5099 -0.0205
  174SOPE   C2219727   6.017   1.532   9.667  0.3882  0.1570  1.2058
  174SOPE   H2R19728   6.087   1.613   9.696  2.0621 -1.3443  1.4965
  174SOPE   H2S19729   5.928   1.568   9.610  0.8106  2.9933  2.2008
  174SOPE    C319730   5.712   1.613  10.020  0.3434  0.3844 -0.1895
  174SOPE    HX19731   5.775   1.702  10.043  0.2848  0.6107 -0.8630
  174SOPE    HY19732   5.657   1.571  10.107  1.4242  1.8999  1.2914
  174SOPE   O3119733   5.623   1.659   9.909  0.1342 -0.2580  0.0225
  174SOPE   C3119734   5.541   1.564   9.867 -0.4386  0.3348  0.2982
  174SOPE   O3219735   5.515   1.457   9.918  0.3500 -0.2553 -0.7390
  174SOPE   C3219736   5.475   1.623   9.741  0.4146 -0.4216  0.3113
  174SOPE   H2X19737   5.548   1.682   9.682  0.6727 -0.0804  0.9619
  174SOPE   H2Y19738   5.391   1.688   9.772  2.5603  0.8340  4.2040
  174SOPE   C2319739   6.080   1.432   9.575 -1.3104  0.6498  0.7959
  174SOPE   H3R19740   6.009   1.352   9.547  0.4879 -0.4894 -0.7683
  174SOPE   H3S19741   6.168   1.380   9.619 -0.4511  0.2723 -1.2795
  174SOPE   C2419742   6.128   1.480   9.438  0.1832 -0.1188 -0.2563
  174SOPE   H4R19743   6.040   1.513   9.378  0.2783 -0.9758 -0.8933
  174SOPE   H4S19744   6.192   1.571   9.441  3.4755 -2.2747 -0.2582
  174SOPE   C2519745   6.203   1.370   9.354  0.3002  0.2158  0.1849
  174SOPE   H5R19746   6.279   1.322   9.420  0.7170  0.5636 -0.0389
  174SOPE   H5S19747   6.131   1.295   9.315  1.2929  0.9420 -3.4021
  174SOPE   C2619748   6.275   1.420   9.231  0.7982 -0.2384  0.0115
  174SOPE   H6R19749   6.350   1.499   9.254  1.3126 -1.0143  1.0999
  174SOPE   H6S19750   6.344   1.341   9.197  1.7569  1.4374 -2.1526
  174SOPE   C2719751   6.172   1.463   9.128  0.5538  0.8374 -0.7269
  174SOPE   H7R19752   6.126   1.368   9.094  1.3875 -0.8888  2.5409
  174SOPE   H7S19753   6.102   1.541   9.165 -0.3875 -0.2650 -0.1171
  174SOPE   C2819754   6.229   1.525   9.001  0.0514  0.0881  0.4429
  174SOPE   H8R19755   6.139   1.540   8.937  0.0323  1.5228  0.7777
  174SOPE   H8S19756   6.269   1.624   9.032 -0.9931  0.5304  0.4348
  174SOPE   C2919757   6.325   1.433   8.924 -0.1908  0.7089  0.1533
  174SOPE   H9119758   6.355   1.336   8.968  0.2286  0.2759 -1.0590
  174SOPE  C21019759   6.382   1.468   8.808 -1.1105  0.5565  0.1130
  174SOPE  H10119760   6.451   1.399   8.758  0.0955  2.0855 -0.4171
  174SOPE  C21119761   6.381   1.603   8.743  0.6093 -0.8699  0.2929
  174SOPE  H11R19762   6.464   1.661   8.787  0.5678  0.1593 -0.9169
  174SOPE  H11S19763   6.293   1.669   8.758  1.5040  0.0609  1.6463
  174SOPE  C21219764   6.405   1.589   8.592 -0.7271 -0.1392  0.4460
  174SOPE  H12R19765   6.331   1.513   8.559 -1.0359  0.6454 -0.7492
  174SOPE  H12S19766   6.507   1.549   8.574 -1.4970 -1.7811 -0.5237
  174SOPE  C21319767   6.392   1.708   8.496 -0.3256 -0.9042  0.3106
  174SOPE  H13R19768   6.444   1.798   8.534  0.7524 -0.2591 -2.4349
  174SOPE  H13S19769   6.284   1.728   8.480 -0.1120 -0.0536 -0.1379
  174SOPE  C21419770   6.456   1.692   8.352 -0.6141 -0.1210 -0.3618
  174SOPE  H14R19771   6.567   1.690   8.344 -0.7070  0.0437 -2.5893
  174SOPE  H14S19772   6.420   1.775   8.287  0.9483 -0.2870 -1.5223
  174SOPE  C21519773   6.407   1.565   8.285  0.6337  0.0359 -0.2232
  174SOPE  H15R19774   6.298   1.571   8.304  0.7422 -0.0131  0.4439
  174SOPE  H15S19775   6.439   1.474   8.340 -0.8059 -0.2845  0.1381
  174SOPE  C21619776   6.435   1.550   8.135 -0.2384  0.0089 -0.3617
  174SOPE  H16R19777   6.406   1.446   8.108 -1.1131  0.3554 -0.7797
  174SOPE  H16S19778   6.545   1.557   8.119  0.5517  0.9969  4.1403
  174SOPE  C21719779   6.362   1.653   8.048  0.2521  0.4118 -0.2356
  174SOPE  H17R19780   6.397   1.756   8.071  2.1343  0.0448 -1.2577
  174SOPE  H17S19781   6.256   1.639   8.079  0.7858 -0.2708  1.3739
  174SOPE  C21819782   6.371   1.639   7.896  0.3090  0.0020 -0.1987
  174SOPE  H18R19783   6.296   1.697   7.839  0.5442 -0.3045 -0.8296
  174SOPE  H18S19784   6.365   1.531   7.868  0.1381 -0.0975  0.2191
  174SOPE  H18T19785   6.468   1.680   7.860 -0.9923  4.2163  0.5468
  174SOPE   C3319786   5.431   1.517   9.631 -0.3787 -0.2638 -0.1336
  174SOPE   H3X19787   5.331   1.479   9.659 -0.5609 -0.9084 -1.5556
  174SOPE   H3Y19788   5.504   1.434   9.631 -0.1026 -0.0221 -0.2524
  174SOPE   C3419789   5.418   1.567   9.481  0.0485  0.3007 -0.2394
  174SOPE   H4X19790   5.316   1.613   9.478 -0.8391 -1.4444  1.3754
  174SOPE   H4Y19791   5.416   1.477   9.416  0.9662  0.4369 -0.4623
  174SOPE   C3519792   5.528   1.662   9.434 -1.0602  0.1880  0.1772
  174SOPE   H5X19793   5.623   1.609   9.458 -1.1220  0.5250  1.2452
  174SOPE   H5Y19794   5.535   1.758   9.489  2.7218  1.7313 -2.5774
  174SOPE   C3619795   5.515   1.693   9.284  0.2355  0.2939 -0.2702
  174SOPE   H6X19796   5.540   1.599   9.230  1.8111  0.4891  0.0768
  174SOPE   H6Y19797   5.586   1.768   9.244 -0.1379  0.6328 -0.3010
  174SOPE   C3719798   5.370   1.724   9.230  0.6256  0.1117 -0.2061
  174SOPE   H7X19799   5.335   1.823   9.266  1.1129 -0.7179  2.8259
  174SOPE   H7Y19800   5.294   1.646   9.250 -1.9176  1.9078 -2.2627
  174SOPE   C3819801   5.377   1.723   9.079  0.2349  0.3753  0.8052
  174SOPE   H8X19802   5.469   1.756   9.026 -1.3139  0.1132 -2.2028
  174SOPE   H8Y19803   5.300   1.797   9.049  0.2877 -0.0602 -0.4552
  174SOPE   C3919804   5.349   1.580   9.009  0.1027 -0.5154 -0.2674
  174SOPE   H9X19805   5.260   1.527   9.049  0.7373 -1.4016 -0.0180
  174SOPE   H9Y19806   5.430   1.507   9.029 -1.6241 -2.1266  1.1615
  174SOPE  C31019807   5.336   1.600   8.860  0.0258 -0.2230  0.3192
  174SOPE  H10X19808   5.419   1.643   8.800 -1.8406 -0.8317 -2.9323
  174SOPE  H10Y19809   5.242   1.659   8.850 -0.4606 -0.7066  1.8220
  174SOPE  C31119810   5.297   1.469   8.773 -0.6704 -0.4283 -0.0906
  174SOPE  H11X19811   5.221   1.405   8.822  1.0141 -0.7050  2.3108
  174SOPE  H11Y19812   5.392   1.413   8.755 -0.0284 -0.3382  2.6852
  174SOPE  C31219813   5.252   1.512   8.628 -0.2340 -0.7340  0.1159
  174SOPE  H12X19814   5.334   1.574   8.586  0.8488 -2.7078 -0.8289
  174SOPE  H12Y19815   5.163   1.578   8.630  0.6562  0.5435 -0.9938
  174SOPE  C31319816   5.239   1.385   8.539  0.3222 -0.2261 -0.3677
  174SOPE  H13X19817   5.184   1.416   8.447 -0.0463  0.3658  0.0461
  174SOPE  H13Y19818   5.164   1.325   8.595  0.3565  0.0493 -0.0274
  174SOPE  C31419819   5.368   1.308   8.493 -0.1505 -0.1574  0.2807
  174SOPE  H14X19820   5.430   1.277   8.579 -0.2735 -0.0783  0.3999
  174SOPE  H14Y19821   5.436   1.379   8.440  2.6097 -2.1135  1.0213
  174SOPE  C31519822   5.348   1.204   8.385 -0.4078 -0.2962  0.8767
  174SOPE  H15X19823   5.250   1.155   8.401 -0.0267 -0.7903  1.7644
  174SOPE  H15Y19824   5.438   1.140   8.392 -0.6302 -0.4544  4.7376
  174SOPE  C31619825   5.331   1.262   8.236  0.0412 -0.1903  0.1292
  174SOPE  H16X19826   5.411   1.336   8.213 -1.3780  0.8514 -1.6188
  174SOPE  H16Y19827   5.233   1.313   8.233  0.1207 -0.0692 -1.3240
  174SOPE  C31719828   5.327   1.154   8.122  0.4867  0.0244 -0.2668
  174SOPE  H17X19829   5.262   1.074   8.163  0.4719 -0.6281 -1.4931
  174SOPE  H17Y19830   5.428   1.108   8.115 -0.0321 -1.4155  1.2582
  174SOPE  C31819831   5.281   1.192   7.982  0.4634  0.5829  0.7423
  174SOPE  H18X19832   5.223   1.108   7.939 -0.9301  2.6158 -1.6165
  174SOPE  H18Y19833   5.371   1.218   7.923  0.6718  1.4718  1.4243
  174SOPE  H18Z19834   5.224   1.287   7.988  0.2383  0.5521 -0.6348
  175SOPE     N19835   2.365   3.780  10.767 -0.1819  0.3899 -0.1786
  175SOPE   HN119836   2.320   3.787  10.860 -3.1577 -1.9624 -1.2634
  175SOPE   HN219837   2.428   3.859  10.744  1.8715 -0.3297  2.5464
  175SOPE   HN319838   2.292   3.778  10.692 -1.1453 -2.7276  0.6951
  175SOPE   C1219839   2.431   3.645  10.761  0.3702  0.3317  0.8276
  175SOPE  H12A19840   2.500   3.627  10.846 -0.7956 -1.8315  1.3812
  175SOPE  H12B19841   2.499   3.644  10.674 -1.1104 -1.3374 -0.3612
  175SOPE   C1119842   2.333   3.525  10.761 -0.5848  0.4231 -0.2371
  175SOPE  H11A19843   2.270   3.519  10.853 -0.9426 -1.4547 -0.5632
  175SOPE  H11B19844   2.404   3.440  10.771  0.0062  0.8914 -0.3569
  175SOPE     P19845   2.184   3.368  10.622  0.4336  0.4358  0.0161
  175SOPE   O1319846   2.064   3.393  10.536 -0.2011 -0.2142 -0.0527
  175SOPE   O1419847   2.162   3.316  10.760 -0.4278 -0.2023  0.3206
  175SOPE   O1219848   2.254   3.507  10.647 -0.2876  0.4327  0.4107
  175SOPE   O1119849   2.281   3.273  10.542 -0.1632  0.5661  0.1481
  175SOPE    C119850   2.381   3.331  10.463 -0.0683 -0.0856 -0.1690
  175SOPE    HA19851   2.477   3.281  10.490 -0.6877 -0.6777  1.0517
  175SOPE    HB19852   2.400   3.439  10.480  0.4266 -0.4261  1.6354
  175SOPE    C219853   2.351   3.312  10.309  0.2625  0.2752 -0.5335
  175SOPE    HS19854   2.269   3.386  10.296  0.2487  0.4566  0.4982
  175SOPE   O2119855   2.314   3.178  10.280 -0.2007 -1.1058 -0.6354
  175SOPE   C2119856   2.227   3.159  10.177  0.2838  0.1511 -0.0596
  175SOPE   O2219857   2.176   3.251  10.115  0.2505  0.2434  0.6388
  175SOPE   C2219858   2.204   3.004  10.162 -0.3692 -0.2764 -0.0060
  175SOPE   H2R19859   2.096   2.990  10.184 -0.6590  1.9859  0.2895
  175SOPE   H2S19860   2.266   2.942  10.229  0.9067 -0.1330 -1.0051
  175SOPE    C319861   2.472   3.366  10.227 -0.7211  0.0345 -0.3004
  175SOPE    HX19862   2.559   3.297  10.227 -1.4814 -1.0359  2.5414
  175SOPE    HY19863   2.501   3.458  10.282  0.3445  0.9403 -2.2428
  175SOPE   O3119864   2.439   3.398  10.087 -0.2484  0.0807  0.2352
  175SOPE   C3119865   2.362   3.507  10.076  0.4124  0.4039 -0.5369
  175SOPE   O3219866   2.337   3.588  10.166  0.1568  0.6362 -0.3414
  175SOPE   C3219867   2.341   3.543   9.930 -0.6710  0.3235  0.6539
  175SOPE   H2X19868   2.427   3.603   9.895 -1.9554  0.7961 -1.9253
  175SOPE   H2Y19869   2.251   3.608   9.929 -1.1619 -0.3258  1.2688
  175SOPE   C2319870   2.232   2.968  10.018  0.2743 -0.8350 -0.5172
  175SOPE   H3R19871   2.171   3.029   9.949 -0.5947  0.3287  1.2038
  175SOPE   H3S19872   2.205   2.860  10.007 -1.9852 -0.3822  0.0577
  175SOPE   C2419873   2.375   2.985   9.978 -0.5878 -0.6453 -0.0120
  175SOPE   H4R19874   2.407   3.087  10.009 -2.1762  1.3104 -4.1744
  175SOPE   H4S19875   2.430   2.909  10.038 -1.0018  1.2777  3.0393
  175SOPE   C2519876   2.395   2.995   9.826 -1.0209  0.4807 -0.4829
  175SOPE   H5R19877   2.323   3.072   9.792 -0.2653  0.9560 -1.0301
  175SOPE   H5S19878   2.497   3.035   9.811 -1.5708  2.1684 -0.0338
  175SOPE   C2619879   2.389   2.859   9.758 -0.3465  0.0872 -1.0853
  175SOPE   H6R19880   2.472   2.802   9.803 -0.3239  1.4281  0.6937
  175SOPE   H6S19881   2.288   2.824   9.788 -0.2438 -0.3967 -1.3034
  175SOPE   C2719882   2.390   2.876   9.601 -0.7752 -0.1154 -0.9316
  175SOPE   H7R19883   2.334   2.970   9.585 -0.3767  0.4287  0.6460
  175SOPE   H7S19884   2.494   2.894   9.566  1.0772  1.7874  4.5034
  175SOPE   C2819885   2.335   2.748   9.541 -0.7659 -0.0141  0.2185
  175SOPE   H8R19886   2.399   2.663   9.574 -1.3233 -0.4848  0.1110
  175SOPE   H8S19887   2.238   2.732   9.593 -1.2366 -1.9947 -1.1273
  175SOPE   C2919888   2.320   2.770   9.392 -0.5689 -0.4787  0.1021
  175SOPE   H9119889   2.222   2.813   9.366  0.5055  1.7404 -0.4538
  175SOPE  C21019890   2.405   2.731   9.298 -0.2864  0.1823  0.0056
  175SOPE  H10119891   2.385   2.756   9.192 -1.3470 -1.5791 -0.2600
  175SOPE  C21119892   2.537   2.668   9.317 -0.9531  0.4169 -0.9429
  175SOPE  H11R19893   2.523   2.560   9.294  1.3258 -0.0461 -0.3866
  175SOPE  H11S19894   2.578   2.686   9.419  2.0814  0.3926 -2.0817
  175SOPE  C21219895   2.644   2.717   9.216  0.2233  0.4320 -0.5089
  175SOPE  H12R19896   2.617   2.673   9.117 -2.1327 -1.2046  0.7554
  175SOPE  H12S19897   2.743   2.674   9.243  0.4863  2.0587  1.3360
  175SOPE  C21319898   2.658   2.873   9.228  0.4783 -0.4944  1.1610
  175SOPE  H13R19899   2.694   2.906   9.328  2.4464 -1.2531  0.7455
  175SOPE  H13S19900   2.560   2.925   9.217  0.9257  0.1318 -0.0755
  175SOPE  C21419901   2.739   2.927   9.112  0.0627  0.3416 -0.1271
  175SOPE  H14R19902   2.740   3.038   9.117  1.4892  0.3511 -0.2898
  175SOPE  H14S19903   2.686   2.894   9.020  0.6443 -0.1239 -0.3021
  175SOPE  C21519904   2.877   2.869   9.087  0.3261 -0.0211 -0.3796
  175SOPE  H15R19905   2.864   2.760   9.104 -0.2760  0.0420 -0.4178
  175SOPE  H15S19906   2.947   2.900   9.168 -0.1385 -1.6882  0.6983
  175SOPE  C21619907   2.940   2.895   8.943  0.1477 -0.1998  0.8662
  175SOPE  H16R19908   2.953   3.004   8.926  0.9875 -0.0597  2.1828
  175SOPE  H16S19909   2.868   2.859   8.867 -0.4969  0.1721  1.2922
  175SOPE  C21719910   3.080   2.830   8.910 -0.0795 -0.3014 -0.2414
  175SOPE  H17R19911   3.075   2.721   8.930  0.6134 -0.0361  1.5863
  175SOPE  H17S19912   3.152   2.873   8.984 -0.9436  2.6647 -0.9752
  175SOPE  C21819913   3.131   2.847   8.770 -0.2001  0.4118 -0.5049
  175SOPE  H18R19914   3.206   2.768   8.748  0.3766  1.2601 -1.6693
  175SOPE  H18S19915   3.190   2.940   8.755  0.3178 -0.0353 -1.3087
  175SOPE  H18T19916   3.065   2.850   8.680  0.2559 -0.3324 -0.8726
  175SOPE   C3319917   2.334   3.418   9.831 -0.4929  0.3560 -0.1945
  175SOPE   H3X19918   2.254   3.356   9.876 -0.1273  0.8717  1.2014
  175SOPE   H3Y19919   2.430   3.365   9.845 -0.6681 -0.5037 -2.0003
  175SOPE   C3419920   2.309   3.456   9.686 -0.0717 -0.0008 -0.5411
  175SOPE   H4X19921   2.384   3.532   9.654 -1.5494  1.0325 -1.7081
  175SOPE   H4Y19922   2.208   3.501   9.679  0.6602  1.6529 -1.0403
  175SOPE   C3519923   2.317   3.327   9.597 -0.1760 -0.6423 -0.1113
  175SOPE   H5X19924   2.234   3.257   9.618 -0.4470 -0.2292  0.1937
  175SOPE   H5Y19925   2.412   3.276   9.625 -0.0914  0.4666  1.8120
  175SOPE   C3619926   2.325   3.362   9.445  0.0528  0.2371 -0.8212
  175SOPE   H6X19927   2.427   3.401   9.423 -0.1416  1.1836 -0.1383
  175SOPE   H6Y19928   2.254   3.444   9.421 -0.6323 -0.1543 -0.1730
  175SOPE   C3719929   2.303   3.246   9.350  1.1735 -0.7326 -0.4476
  175SOPE   H7X19930   2.200   3.204   9.357  0.6399  0.4156 -1.1377
  175SOPE   H7Y19931   2.381   3.170   9.374  1.6836  0.4830  2.0681
  175SOPE   C3819932   2.337   3.288   9.210  0.2467 -0.4287 -0.4709
  175SOPE   H8X19933   2.439   3.328   9.193  0.5122 -0.9437 -0.0965
  175SOPE   H8Y19934   2.274   3.374   9.178 -0.6742 -0.3591  1.4199
  175SOPE   C3919935   2.328   3.166   9.124 -0.2069  0.9211 -0.0652
  175SOPE   H9X19936   2.218   3.164   9.104 -0.4016  0.5828  0.9602
  175SOPE   H9Y19937   2.367   3.081   9.184 -0.2706  1.5687  0.9320
  175SOPE  C31019938   2.402   3.170   8.997  0.0778 -0.3070  0.4843
  175SOPE  H10X19939   2.510   3.179   9.022  0.7034 -1.0142 -1.7395
  175SOPE  H10Y19940   2.380   3.261   8.937 -5.1130 -0.9177  0.9810
  175SOPE  C31119941   2.370   3.059   8.893 -0.8519 -0.6183 -0.0799
  175SOPE  H11X19942   2.261   3.055   8.877 -0.8624 -0.1236 -0.1687
  175SOPE  H11Y19943   2.403   2.959   8.927 -2.2020 -0.8528  0.5963
  175SOPE  C31219944   2.442   3.077   8.754 -0.4788  0.4237  0.7710
  175SOPE  H12X19945   2.455   3.184   8.729 -1.7365  1.1017  2.7585
  175SOPE  H12Y19946   2.371   3.034   8.681  1.1601 -0.0607 -0.5863
  175SOPE  C31319947   2.586   3.022   8.744 -0.4562 -0.1578 -0.0648
  175SOPE  H13X19948   2.581   2.911   8.738  1.4914 -0.2750 -0.2855
  175SOPE  H13Y19949   2.640   3.042   8.840 -0.2157 -0.5803 -0.1076
  175SOPE  C31419950   2.676   3.076   8.625  0.4391 -0.2461 -0.2310
  175SOPE  H14X19951   2.662   3.185   8.606  0.2161 -0.0206  1.1518
  175SOPE  H14Y19952   2.639   3.030   8.531 -0.1322 -0.3339  0.0349
  175SOPE  C31519953   2.831   3.069   8.640 -0.6005 -0.5954 -0.2444
  175SOPE  H15X19954   2.865   2.964   8.628 -3.5752 -1.9295  1.7413
  175SOPE  H15Y19955   2.861   3.119   8.735  1.8738 -1.2739 -0.5978
  175SOPE  C31619956   2.907   3.155   8.533 -0.5467 -0.5010  0.5979
  175SOPE  H16X19957   3.016   3.166   8.554 -0.2444 -2.0219 -0.0366
  175SOPE  H16Y19958   2.875   3.261   8.540 -2.0221 -0.8479 -0.3962
  175SOPE  C31719959   2.908   3.109   8.387 -0.6716 -0.3343  0.9857
  175SOPE  H17X19960   2.805   3.105   8.343 -0.2325 -0.7512 -0.0513
  175SOPE  H17Y19961   2.953   3.008   8.375  0.2886  0.1825  0.0775
  175SOPE  C31819962   2.998   3.195   8.299 -0.6542  0.4726 -0.0975
  175SOPE  H18X19963   2.979   3.169   8.193  0.7488  0.8017 -0.4425
  175SOPE  H18Y19964   3.105   3.170   8.316 -0.7999 -0.4696 -0.5247
  175SOPE  H18Z19965   2.977   3.304   8.312  0.3944  0.3920  3.1649
  176SOPE     N19966   0.009   1.911  10.581 -0.5052 -0.0136  0.3073
  176SOPE   HN119967  -0.058   1.848  10.629 -2.8672  1.3543 -1.0390
  176SOPE   HN219968  -0.020   2.010  10.590  0.2783  0.1646  1.0575
  176SOPE   HN319969  -0.003   1.890  10.480 -0.8805 -2.7124  0.8166
  176SOPE   C1219970   0.147   1.887  10.622 -0.8286  0.3214 -0.9854
  176SOPE  H12A19971   0.159   1.777  10.633  1.0287  0.7303  2.9469
  176SOPE  H12B19972   0.167   1.931  10.722  0.2218  1.1263 -1.5292
  176SOPE   C1119973   0.257   1.942  10.544  0.5074 -0.2447  0.3228
  176SOPE  H11A19974   0.252   1.893  10.445 -0.6710 -1.9392  1.1809
  176SOPE  H11B19975   0.358   1.923  10.587  0.1782 -3.8246 -0.1747
  176SOPE     P19976   0.334   2.189  10.566  0.0541  0.1583 -0.1217
  176SOPE   O1319977   0.393   2.147  10.700  0.7117 -0.0580 -0.6884
  176SOPE   O1419978   0.279   2.327  10.547 -0.6665  0.2948  0.6609
  176SOPE   O1219979   0.233   2.079  10.521 -0.2207 -0.8741 -0.1495
  176SOPE   O1119980   0.447   2.154  10.458  0.2641  0.7761 -0.8204
  176SOPE    C119981   0.410   2.147  10.316  0.2310  0.4118 -0.3471
  176SOPE    HA19982   0.357   2.238  10.284 -3.5604 -1.5158 -0.0761
  176SOPE    HB19983   0.348   2.057  10.295 -0.1492  0.5875  0.0109
  176SOPE    C219984   0.539   2.139  10.221  0.3247  0.0502 -0.1754
  176SOPE    HS19985   0.593   2.043  10.233 -0.3793 -0.4342 -0.7944
  176SOPE   O2119986   0.624   2.252  10.253 -0.5022  0.2342 -0.1659
  176SOPE   C2119987   0.756   2.232  10.243 -0.2337  0.6532  0.0673
  176SOPE   O2219988   0.808   2.119  10.225  0.5017  0.0048 -0.4151
  176SOPE   C2219989   0.839   2.368  10.257 -0.1487 -0.3867 -0.6866
  176SOPE   H2R19990   0.835   2.388  10.366  0.3729  2.3028 -1.1034
  176SOPE   H2S19991   0.775   2.437  10.197  0.1460 -1.1907 -1.9654
  176SOPE    C319992   0.496   2.155  10.069  0.3178 -0.2788 -0.7986
  176SOPE    HX19993   0.427   2.242  10.073  1.1665  0.3696  0.6995
  176SOPE    HY19994   0.432   2.066  10.052  3.2063 -2.4184 -1.2212
  176SOPE   O3119995   0.611   2.170   9.982  0.1554 -0.6289 -0.3518
  176SOPE   C3119996   0.656   2.058   9.937  0.4255  0.3493 -0.0599
  176SOPE   O3219997   0.615   1.945   9.968 -0.2171  0.1887 -0.0897
  176SOPE   C3219998   0.774   2.088   9.839 -0.5945  0.5955  0.5997
  176SOPE   H2X19999   0.861   2.090   9.907 -0.8437 -1.4618  1.0376
  176SOPE   H2Y20000   0.760   2.183   9.782  0.5427  1.4433  1.6886
  176SOPE   C2320001   0.984   2.357  10.219 -1.1987 -0.0260  0.1862
  176SOPE   H3R20002   1.032   2.260  10.241 -0.2527 -0.0350 -1.6657
  176SOPE   H3S20003   1.049   2.435  10.264  0.2516 -1.3905  0.5491
  176SOPE   C2420004   0.992   2.377  10.074  0.1763 -0.5013  0.3821
  176SOPE   H4R20005   0.931   2.304  10.016 -1.6612  1.4292 -0.2171
  176SOPE   H4S20006   0.964   2.482  10.050 -1.2923 -0.8498  0.4524
  176SOPE   C2520007   1.143   2.358  10.034 -0.1861 -0.1148 -0.1880
  176SOPE   H5R20008   1.206   2.442  10.070  0.9098 -1.3985  1.0090
  176SOPE   H5S20009   1.179   2.265  10.082 -0.0611  0.0046 -0.0499
  176SOPE   C2620010   1.160   2.349   9.876 -0.4533  0.6010 -0.1749
  176SOPE   H6R20011   1.232   2.270   9.847 -2.3243 -1.6039  0.8904
  176SOPE   H6S20012   1.067   2.316   9.825  0.8038 -0.5843 -1.8010
  176SOPE   C2720013   1.211   2.478   9.806 -0.3256  0.6502  0.1127
  176SOPE   H7R20014   1.188   2.559   9.877  0.8608 -1.1335  2.6643
  176SOPE   H7S20015   1.321   2.470   9.790 -0.3551 -0.2623  0.2946
  176SOPE   C2820016   1.150   2.494   9.666  0.0867  0.1838 -0.2376
  176SOPE   H8R20017   1.200   2.415   9.607  0.6301  0.2880  0.0709
  176SOPE   H8S20018   1.048   2.452   9.656  1.0733 -2.2540 -0.8066
  176SOPE   C2920019   1.158   2.635   9.606  0.0138  0.0274 -0.4801
  176SOPE   H9120020   1.201   2.706   9.679  0.0737 -0.9251  0.4375
  176SOPE  C21020021   1.121   2.683   9.477 -0.1226  0.7085 -1.1608
  176SOPE  H10120022   1.146   2.788   9.454 -0.2047  0.9197 -0.3343
  176SOPE  C21120023   1.064   2.606   9.361 -0.4690  0.2837 -0.0483
  176SOPE  H11R20024   0.957   2.633   9.367 -0.4726  0.6093 -1.4275
  176SOPE  H11S20025   1.057   2.502   9.400  0.6002  0.8468  1.8140
  176SOPE  C21220026   1.113   2.626   9.217  0.1156  0.4035 -0.6139
  176SOPE  H12R20027   1.111   2.735   9.195  3.0672  0.2825 -2.0534
  176SOPE  H12S20028   1.042   2.572   9.151  1.7491 -0.9933 -1.2960
  176SOPE  C21320029   1.255   2.582   9.193 -0.9191 -0.4603 -0.1062
  176SOPE  H13R20030   1.257   2.471   9.191 -1.7393 -0.4723 -2.3187
  176SOPE  H13S20031   1.326   2.629   9.265 -1.6139  0.3738  0.0394
  176SOPE  C21420032   1.310   2.624   9.057  0.2554 -0.1628 -0.0634
  176SOPE  H14R20033   1.316   2.735   9.056 -2.0805  0.0153  0.1841
  176SOPE  H14S20034   1.231   2.595   8.984  0.0678  0.3254 -0.0609
  176SOPE  C21520035   1.450   2.559   9.016  0.0415 -0.5067  0.2832
  176SOPE  H15R20036   1.441   2.450   9.039  2.4840 -1.0141 -0.8116
  176SOPE  H15S20037   1.522   2.605   9.087 -1.3755 -0.0256  1.4551
  176SOPE  C21620038   1.481   2.570   8.866  0.1325  0.6692  0.1114
  176SOPE  H16R20039   1.484   2.679   8.847 -1.0804  1.5037  3.7531
  176SOPE  H16S20040   1.396   2.523   8.811  1.4063 -3.6651  1.4406
  176SOPE  C21720041   1.608   2.492   8.838  0.3404 -0.1086  0.3472
  176SOPE  H17R20042   1.695   2.546   8.880  0.5516  2.2014 -2.6696
  176SOPE  H17S20043   1.629   2.483   8.729 -1.2961 -2.6290  0.1546
  176SOPE  C21820044   1.611   2.344   8.878  0.5038  0.1553 -0.6824
  176SOPE  H18R20045   1.514   2.296   8.853  1.2480 -2.0602  0.4795
  176SOPE  H18S20046   1.645   2.339   8.983  0.9084 -0.1038 -0.8248
  176SOPE  H18T20047   1.688   2.281   8.829  2.4366  1.9832 -0.1778
  176SOPE   C3320048   0.791   1.971   9.730 -0.6238 -0.1029 -0.4916
  176SOPE   H3X20049   0.712   1.986   9.654 -1.4553 -3.2291 -0.3648
  176SOPE   H3Y20050   0.777   1.872   9.779  3.2892 -0.0638  1.0248
  176SOPE   C3420051   0.934   1.967   9.681 -0.3317  0.0273  0.0580
  176SOPE   H4X20052   0.963   1.867   9.642  1.4038  0.6353 -0.3310
  176SOPE   H4Y20053   0.996   1.983   9.772 -1.8277 -0.1740  1.1465
  176SOPE   C3520054   0.961   2.079   9.572  0.0504 -0.3261 -0.3748
  176SOPE   H5X20055   1.072   2.078   9.569  0.0464  0.0241 -0.6989
  176SOPE   H5Y20056   0.923   2.177   9.607 -1.6753 -1.3007  0.6776
  176SOPE   C3620057   0.909   2.058   9.429  0.2100  0.9190 -0.1627
  176SOPE   H6X20058   0.803   2.025   9.437 -0.1868  1.8396 -1.4670
  176SOPE   H6Y20059   0.978   1.985   9.381 -0.6823  0.0399 -0.1296
  176SOPE   C3720060   0.928   2.178   9.340  0.2181  0.2253 -0.3461
  176SOPE   H7X20061   1.039   2.181   9.337  0.6120 -0.5771  4.4649
  176SOPE   H7Y20062   0.911   2.277   9.388 -1.8244 -0.4440  0.3939
  176SOPE   C3820063   0.884   2.175   9.194  0.7770  0.4740 -0.8028
  176SOPE   H8X20064   0.783   2.221   9.192 -0.4206 -1.9625 -0.0067
  176SOPE   H8Y20065   0.872   2.074   9.149  2.7172 -0.5979  0.8981
  176SOPE   C3920066   0.966   2.256   9.104 -0.1071  0.4797  0.4606
  176SOPE   H9X20067   1.069   2.219   9.085 -0.3754  1.4566 -4.3579
  176SOPE   H9Y20068   0.975   2.360   9.142  1.5515  0.4008  0.3597
  176SOPE  C31020069   0.912   2.275   8.964  0.4777  0.5547  0.3289
  176SOPE  H10X20070   0.810   2.318   8.965 -0.0233 -0.5565 -0.8543
  176SOPE  H10Y20071   0.905   2.176   8.915 -1.2001  0.2836  1.0672
  176SOPE  C31120072   0.990   2.364   8.860 -0.6162  0.2928 -0.1954
  176SOPE  H11X20073   1.094   2.325   8.855 -0.5130  0.0065  2.6269
  176SOPE  H11Y20074   0.999   2.462   8.912 -0.1879 -1.2150  2.8402
  176SOPE  C31220075   0.912   2.401   8.729 -0.3366  0.7588  0.1368
  176SOPE  H12X20076   0.824   2.466   8.749 -1.0627  0.4928 -1.8880
  176SOPE  H12Y20077   0.883   2.302   8.687  1.6685  0.2277 -0.0758
  176SOPE  C31320078   0.984   2.458   8.611  0.2592 -0.4554 -0.0218
  176SOPE  H13X20079   0.910   2.496   8.538 -1.3006 -1.8558  0.7774
  176SOPE  H13Y20080   1.043   2.394   8.543  3.8913  2.5400 -0.0435
  176SOPE  C31420081   1.080   2.577   8.654  0.0150 -0.1141 -0.1125
  176SOPE  H14X20082   1.133   2.615   8.564  0.2351 -1.1069 -0.4208
  176SOPE  H14Y20083   1.159   2.550   8.726  1.7195  2.8819 -0.7271
  176SOPE  C31520084   0.999   2.697   8.714 -0.0064  0.0039  0.2529
  176SOPE  H15X20085   1.074   2.762   8.764  0.5509 -0.1805 -0.3375
  176SOPE  H15Y20086   0.917   2.675   8.785 -1.3234  3.2741 -0.0460
  176SOPE  C31620087   0.932   2.781   8.604  0.2850  0.1329 -0.5683
  176SOPE  H16X20088   0.903   2.880   8.647  1.3502  0.2564 -0.1107
  176SOPE  H16Y20089   0.845   2.719   8.572  1.6259 -1.9821 -0.3142
  176SOPE  C31720090   1.010   2.814   8.477  0.6733 -0.0943  0.8517
  176SOPE  H17X20091   0.995   2.729   8.408  0.2864  1.5963 -1.2478
  176SOPE  H17Y20092   1.112   2.854   8.492  0.8049  0.0634 -0.3706
  176SOPE  C31820093   0.936   2.918   8.390  0.3348 -0.5115  0.3116
  176SOPE  H18X20094   0.988   2.936   8.294  0.1131 -0.4956  0.1950
  176SOPE  H18Y20095   0.931   3.015   8.442 -1.8568 -0.5154  0.1884
  176SOPE  H18Z20096   0.831   2.887   8.371 -0.1490  2.0377 -1.5806
  177SOPE     N20097   1.093   0.506  10.153 -0.4991  0.4811  0.1774
  177SOPE   HN120098   1.104   0.609  10.146 -1.3842  0.5572 -0.2076
  177SOPE   HN220099   1.072   0.474  10.056 -1.1504 -1.9864  1.0583
  177SOPE   HN320100   1.014   0.494  10.220 -0.4648  2.2661  0.5899
  177SOPE   C1220101   1.220   0.441  10.206  0.2941 -0.0833 -0.5036
  177SOPE  H12A20102   1.240   0.497  10.300  3.4996  1.8644 -2.1639
  177SOPE  H12B20103   1.314   0.474  10.158  1.5290  1.5134  2.6973
  177SOPE   C1120104   1.192   0.297  10.235 -0.4423 -0.4557 -0.6062
  177SOPE  H11A20105   1.293   0.254  10.253 -0.7408 -0.4259  1.4633
  177SOPE  H11B20106   1.152   0.243  10.147 -1.7982  1.7569 -1.4345
  177SOPE     P20107   0.956   0.235  10.347  0.6608  0.5566 -0.6249
  177SOPE   O1320108   0.872   0.351  10.309 -0.0558 -0.6032  0.2182
  177SOPE   O1420109   0.927   0.171  10.475 -0.1285  0.8305 -0.1670
  177SOPE   O1220110   1.111   0.271  10.348  0.0989 -0.3581 -0.3365
  177SOPE   O1120111   0.950   0.127  10.239  0.3102  0.5389 -0.7558
  177SOPE    C120112   0.858   0.154  10.132  0.1318  0.5853  0.6270
  177SOPE    HA20113   0.886   0.242  10.070  1.6506  0.3330  0.9161
  177SOPE    HB20114   0.755   0.176  10.165 -0.0539  1.3683 -0.4053
  177SOPE    C220115   0.867   0.026  10.044  0.5495 -0.9492  0.3925
  177SOPE    HS20116   0.965   0.032   9.992 -0.3882  1.6700 -1.2790
  177SOPE   O2120117   0.749   0.014   9.961 -0.5932  0.3147 -0.2886
  177SOPE   C2120118   0.773   0.078   9.843 -0.3183 -0.0353  0.4747
  177SOPE   O2220119   0.874   0.140   9.814 -0.0726  0.0164  0.8272
  177SOPE   C2220120   0.655   0.066   9.749  0.0632 -0.0856  0.5144
  177SOPE   H2R20121   0.560   0.068   9.806  0.5286  0.6362  1.2966
  177SOPE   H2S20122   0.663  -0.029   9.692 -1.6335 -0.3031  0.5805
  177SOPE    C320123   0.868  -0.102  10.129 -0.1518  0.1730  0.2010
  177SOPE    HX20124   0.774  -0.095  10.186  0.4446 -1.0455  1.3941
  177SOPE    HY20125   0.951  -0.107  10.202 -0.6401 -1.1065  0.6914
  177SOPE   O3120126   0.859  -0.225  10.053  0.2956  0.0893  0.0537
  177SOPE   C3120127   0.973  -0.263   9.997 -0.2811 -1.0715 -0.5889
  177SOPE   O3220128   1.080  -0.201  10.006 -0.4011  0.0059  0.8508
  177SOPE   C3220129   0.961  -0.394   9.924  1.2693 -0.4056 -0.0022
  177SOPE   H2X20130   0.850  -0.399   9.923  1.2205  0.5824 -0.0704
  177SOPE   H2Y20131   0.998  -0.472   9.994 -2.8807 -0.2710  2.6675
  177SOPE   C2320132   0.628   0.177   9.644  0.2503 -0.7469  0.2978
  177SOPE   H3R20133   0.708   0.187   9.567 -0.2610  1.3499 -0.0223
  177SOPE   H3S20134   0.610   0.272   9.697 -0.7603 -0.5239 -0.4152
  177SOPE   C2420135   0.511   0.136   9.546  0.6673 -0.7346 -0.6434
  177SOPE   H4R20136   0.417   0.147   9.605 -0.5983 -1.7680 -2.3926
  177SOPE   H4S20137   0.508   0.203   9.457 -3.0030  0.9509  0.5029
  177SOPE   C2520138   0.526  -0.005   9.498  0.1398 -0.8750  0.0027
  177SOPE   H5R20139   0.634  -0.020   9.478 -0.4190 -2.4774 -2.1693
  177SOPE   H5S20140   0.492  -0.077   9.576  1.3525  0.8340  2.2124
  177SOPE   C2620141   0.446  -0.028   9.368  0.0839  0.1080 -0.6466
  177SOPE   H6R20142   0.339  -0.048   9.389  0.2389 -2.2671 -1.8278
  177SOPE   H6S20143   0.455   0.064   9.307  1.3656 -0.2620 -1.0393
  177SOPE   C2720144   0.494  -0.149   9.293  1.0879 -1.0725 -0.4401
  177SOPE   H7R20145   0.589  -0.183   9.340  1.2765 -0.4917 -0.3877
  177SOPE   H7S20146   0.417  -0.228   9.290  1.4013 -1.3678 -0.8565
  177SOPE   C2820147   0.543  -0.115   9.147  0.3027  0.2381  0.2251
  177SOPE   H8R20148   0.632  -0.049   9.160  0.9564 -1.0063  2.6234
  177SOPE   H8S20149   0.584  -0.203   9.094 -0.8236  0.0526 -0.3642
  177SOPE   C2920150   0.444  -0.033   9.068  0.1578  0.1760 -0.0743
  177SOPE   H9120151   0.358  -0.090   9.032  0.8443 -2.5487  2.2374
  177SOPE  C21020152   0.450   0.098   9.037 -0.0880  0.2879  0.2678
  177SOPE  H10120153   0.366   0.144   8.984  2.5036  2.0922 -2.6720
  177SOPE  C21120154   0.556   0.195   9.066  0.0429 -0.4480  0.7107
  177SOPE  H11R20155   0.613   0.173   9.159  1.4034  1.9779  0.5138
  177SOPE  H11S20156   0.504   0.291   9.081  0.9652  0.0440  0.8245
  177SOPE  C21220157   0.667   0.210   8.957  1.0625 -0.1961  0.2561
  177SOPE  H12R20158   0.710   0.112   8.927 -0.5095 -0.6793 -0.5187
  177SOPE  H12S20159   0.744   0.279   8.998  1.3744  0.1798 -0.9355
  177SOPE  C21320160   0.604   0.288   8.837  0.4219  0.2800  0.0329
  177SOPE  H13R20161   0.586   0.394   8.865  1.3725  0.9432 -1.6992
  177SOPE  H13S20162   0.502   0.246   8.823  0.6088 -0.7508  1.5120
  177SOPE  C21420163   0.691   0.275   8.718  0.7942  0.2312 -0.4228
  177SOPE  H14R20164   0.719   0.168   8.709 -1.3164 -0.3838 -0.1531
  177SOPE  H14S20165   0.785   0.330   8.740 -0.2143  1.3963  1.1604
  177SOPE  C21520166   0.635   0.326   8.582  0.5076 -0.5179 -0.3171
  177SOPE  H15R20167   0.542   0.267   8.568  0.0333  0.0268  0.4976
  177SOPE  H15S20168   0.719   0.298   8.514  1.2407 -1.0900  0.7943
  177SOPE  C21620169   0.616   0.478   8.571 -0.3412  0.1254  0.4790
  177SOPE  H16R20170   0.698   0.528   8.627  0.5196 -0.6542 -0.0514
  177SOPE  H16S20171   0.517   0.516   8.605 -0.8166 -0.4119 -0.2767
  177SOPE  C21720172   0.593   0.524   8.419 -1.0766  0.9552  0.3516
  177SOPE  H17R20173   0.519   0.452   8.379  2.2236 -1.2719 -2.2523
  177SOPE  H17S20174   0.684   0.505   8.359  0.0766 -2.2869  2.7957
  177SOPE  C21820175   0.551   0.663   8.401  0.6145 -0.3795 -0.0578
  177SOPE  H18R20176   0.625   0.739   8.436  0.4731  0.3658 -1.2993
  177SOPE  H18S20177   0.455   0.684   8.453 -0.1610 -4.4151  0.4363
  177SOPE  H18T20178   0.526   0.696   8.298  0.1790 -0.4681  0.0183
  177SOPE   C3320179   1.019  -0.388   9.782 -0.5084 -0.4162  0.4608
  177SOPE   H3X20180   1.021  -0.495   9.752  2.0379 -0.0205 -1.1646
  177SOPE   H3Y20181   1.126  -0.363   9.797 -0.9532  1.0639  1.3641
  177SOPE   C3420182   0.940  -0.307   9.675  0.1187  0.2043 -0.5641
  177SOPE   H4X20183   0.955  -0.200   9.704  0.3498  0.0943 -0.2705
  177SOPE   H4Y20184   0.830  -0.322   9.677  0.3893 -2.0511  0.5592
  177SOPE   C3520185   0.983  -0.333   9.536 -0.0363 -0.7959  0.1753
  177SOPE   H5X20186   0.982  -0.444   9.526  1.0520 -0.8396  0.3745
  177SOPE   H5Y20187   1.089  -0.306   9.516  0.1802 -1.1130  0.8644
  177SOPE   C3620188   0.891  -0.279   9.425  0.0902 -0.4940 -0.2267
  177SOPE   H6X20189   0.889  -0.168   9.430  2.8317 -0.2935 -1.5091
  177SOPE   H6Y20190   0.787  -0.317   9.431 -0.5886  1.3731  0.7771
  177SOPE   C3720191   0.934  -0.334   9.290  0.5944 -0.3045  1.0314
  177SOPE   H7X20192   0.925  -0.444   9.296  0.1692 -0.3360  0.1048
  177SOPE   H7Y20193   1.035  -0.305   9.253 -0.8420  1.8662 -1.6247
  177SOPE   C3820194   0.840  -0.292   9.172 -0.1709 -0.2125 -0.9362
  177SOPE   H8X20195   0.841  -0.182   9.154 -2.7621 -0.1531 -1.0580
  177SOPE   H8Y20196   0.735  -0.313   9.204  0.0857  2.3075  2.1856
  177SOPE   C3920197   0.882  -0.364   9.040 -0.2008 -0.3601 -0.4139
  177SOPE   H9X20198   0.876  -0.474   9.060  1.7878 -0.1323  2.0992
  177SOPE   H9Y20199   0.991  -0.341   9.030 -0.4944  3.0505  2.1931
  177SOPE  C31020200   0.816  -0.307   8.910 -0.9532 -0.6869  0.1108
  177SOPE  H10X20201   0.825  -0.196   8.916  1.4117 -0.7594 -0.8245
  177SOPE  H10Y20202   0.709  -0.334   8.897 -1.0166 -0.2097 -0.3803
  177SOPE  C31120203   0.885  -0.362   8.787 -0.2930  0.5508  0.4730
  177SOPE  H11X20204   0.890  -0.471   8.807  1.3884  0.7653  1.3899
  177SOPE  H11Y20205   0.995  -0.349   8.779 -0.1037 -1.7509 -1.8300
  177SOPE  C31220206   0.828  -0.326   8.646  0.4617 -0.3821 -0.3364
  177SOPE  H12X20207   0.729  -0.376   8.651  1.0796 -1.5380  0.6083
  177SOPE  H12Y20208   0.882  -0.375   8.563 -0.5383  1.1422 -1.9498
  177SOPE  C31320209   0.804  -0.172   8.614 -0.7542  0.3179 -0.0443
  177SOPE  H13X20210   0.888  -0.102   8.635 -1.1576  1.2174 -1.2769
  177SOPE  H13Y20211   0.715  -0.141   8.673  0.2417  2.9408  0.2255
  177SOPE  C31420212   0.759  -0.153   8.473  0.0364  0.5990  0.1323
  177SOPE  H14X20213   0.680  -0.228   8.452  0.7505 -0.3826  0.8757
  177SOPE  H14Y20214   0.837  -0.182   8.399 -2.1187 -3.6199 -0.8413
  177SOPE  C31520215   0.712  -0.010   8.443  0.0690 -0.3792  0.0451
  177SOPE  H15X20216   0.798   0.060   8.438 -1.7318  1.8830 -0.6734
  177SOPE  H15Y20217   0.660   0.026   8.534  0.7202 -0.5775  0.5078
  177SOPE  C31620218   0.624  -0.003   8.316  0.0987  0.1382  0.1261
  177SOPE  H16X20219   0.683  -0.052   8.236  0.1443 -0.0036  0.2460
  177SOPE  H16Y20220   0.607   0.101   8.283  0.1610  0.5467  1.3408
  177SOPE  C31720221   0.488  -0.072   8.328 -0.0102  0.4074  0.4540
  177SOPE  H17X20222   0.426  -0.033   8.412  0.2301 -1.8029  1.7456
  177SOPE  H17Y20223   0.503  -0.181   8.345  0.1861  0.1593 -1.1676
  177SOPE  C31820224   0.407  -0.073   8.191  0.1021 -0.1573  0.3847
  177SOPE  H18X20225   0.465  -0.080   8.096 -0.4282  0.8853 -0.0213
  177SOPE  H18Y20226   0.335   0.011   8.186 -0.4201 -0.5654  0.9035
  177SOPE  H18Z20227   0.345  -0.165   8.194  0.5873 -0.5545 -0.9883
  178SOPE     N20228   2.903   6.783  10.392 -0.4010 -0.1582 -0.2551
  178SOPE   HN120229   2.855   6.718  10.327 -1.3708 -0.9586  1.1996
  178SOPE   HN220230   2.927   6.871  10.342  1.3673 -1.3258 -1.5672
  178SOPE   HN320231   2.995   6.746  10.422  2.0029  2.6274 -3.5087
  178SOPE   C1220232   2.831   6.801  10.525 -0.9587 -0.4653  0.1487
  178SOPE  H12A20233   2.753   6.876  10.500 -0.6691 -0.1149  0.2918
  178SOPE  H12B20234   2.913   6.847  10.583 -0.1973  0.1913 -1.3849
  178SOPE   C1120235   2.756   6.675  10.580 -0.1352 -0.2785  0.6134
  178SOPE  H11A20236   2.688   6.647  10.496  2.4686  1.7808 -2.4252
  178SOPE  H11B20237   2.703   6.691  10.676 -3.1792  0.4461 -1.0711
  178SOPE     P20238   2.873   6.445  10.513 -0.2069  0.0041  0.0589
  178SOPE   O1320239   2.750   6.374  10.498 -0.1574  0.6115  0.9190
  178SOPE   O1420240   2.991   6.365  10.551  0.5419 -0.2794  0.2572
  178SOPE   O1220241   2.853   6.574  10.606 -0.0730 -0.2983  0.4615
  178SOPE   O1120242   2.904   6.499  10.369  0.5453 -0.5396  0.1180
  178SOPE    C120243   2.977   6.429  10.268 -0.2247  0.0648 -0.1336
  178SOPE    HA20244   2.914   6.426  10.176  0.4113 -0.5193 -0.5604
  178SOPE    HB20245   3.004   6.325  10.296 -1.4712 -0.2598 -0.0806
  178SOPE    C220246   3.109   6.499  10.224 -0.5602 -0.1857 -0.2174
  178SOPE    HS20247   3.164   6.535  10.314  1.9121 -1.2390 -1.2201
  178SOPE   O2120248   3.067   6.622  10.158  0.0013 -0.0743 -0.3387
  178SOPE   C2120249   3.169   6.713  10.117  0.1809 -0.0029 -0.0437
  178SOPE   O2220250   3.286   6.704  10.148 -0.0257  0.5052  0.1592
  178SOPE   C2220251   3.110   6.814  10.022 -0.7887 -0.3550  0.0082
  178SOPE   H2R20252   3.127   6.917  10.061  0.1857  0.4205 -2.3179
  178SOPE   H2S20253   3.002   6.791  10.016 -0.7274 -0.4927 -0.6415
  178SOPE    C320254   3.209   6.413  10.140  0.0178 -0.3306 -0.1956
  178SOPE    HX20255   3.247   6.326  10.197 -0.9843  0.6669  2.1130
  178SOPE    HY20256   3.295   6.478  10.113 -0.7216 -0.3700 -2.9379
  178SOPE   O3120257   3.155   6.378  10.011 -0.1806  0.5438 -0.8940
  178SOPE   C3120258   3.140   6.252   9.979  0.5420 -0.0857  0.7485
  178SOPE   O3220259   3.176   6.154  10.041  0.3832  0.6699 -0.0365
  178SOPE   C3220260   3.068   6.244   9.840  0.0019 -0.0455  0.1620
  178SOPE   H2X20261   3.133   6.286   9.761  0.5563  0.2619  0.7754
  178SOPE   H2Y20262   2.978   6.309   9.853 -0.4654 -0.7753  0.6672
  178SOPE   C2320263   3.190   6.819   9.890 -0.3510  0.0922 -0.2650
  178SOPE   H3R20264   3.300   6.826   9.905 -0.4779  0.4579  0.4922
  178SOPE   H3S20265   3.155   6.900   9.823  0.3352  1.0539  0.5083
  178SOPE   C2420266   3.163   6.689   9.809  0.5492  0.2597  0.3480
  178SOPE   H4R20267   3.161   6.604   9.880  0.4757 -1.0495 -1.1652
  178SOPE   H4S20268   3.064   6.690   9.759  1.0398 -1.1844 -0.7178
  178SOPE   C2520269   3.260   6.680   9.691  0.0522  1.2211  0.1133
  178SOPE   H5R20270   3.244   6.767   9.623 -1.6895 -1.1500 -2.7254
  178SOPE   H5S20271   3.368   6.682   9.717 -0.7046  2.0282  3.6555
  178SOPE   C2620272   3.234   6.555   9.609 -0.2286  0.2456 -0.5511
  178SOPE   H6R20273   3.247   6.459   9.664 -2.1601  1.1832  1.7123
  178SOPE   H6S20274   3.131   6.565   9.571  0.6344 -1.3540 -3.6016
  178SOPE   C2720275   3.323   6.547   9.478 -0.3573  0.2611  0.4644
  178SOPE   H7R20276   3.322   6.639   9.417 -1.0102  0.8636  1.3536
  178SOPE   H7S20277   3.430   6.546   9.510 -0.5662  0.0702  1.1853
  178SOPE   C2820278   3.288   6.420   9.391 -0.5798  0.0815 -0.3323
  178SOPE   H8R20279   3.331   6.333   9.445  0.1114  1.3757  1.2842
  178SOPE   H8S20280   3.179   6.404   9.406 -0.9308  1.1798 -1.5107
  178SOPE   C2920281   3.337   6.422   9.249  0.7733  0.6282 -0.2551
  178SOPE   H9120282   3.419   6.353   9.225  0.1115 -0.6095  0.9257
  178SOPE  C21020283   3.282   6.498   9.156 -0.1813 -0.1786  0.0125
  178SOPE  H10120284   3.323   6.482   9.055 -0.9326 -0.9261 -0.1923
  178SOPE  C21120285   3.178   6.601   9.173 -0.0471 -0.6350 -0.1795
  178SOPE  H11R20286   3.212   6.702   9.140  1.8249 -1.4434 -0.8687
  178SOPE  H11S20287   3.131   6.606   9.274 -1.9995 -0.0536 -1.0579
  178SOPE  C21220288   3.059   6.589   9.075  0.4143 -0.3173  0.3219
  178SOPE  H12R20289   2.973   6.657   9.089 -0.0992 -0.6609 -0.9874
  178SOPE  H12S20290   3.012   6.488   9.078 -2.1001  0.7946  0.7512
  178SOPE  C21320291   3.096   6.616   8.922 -0.2802  0.5168 -1.3075
  178SOPE  H13R20292   3.162   6.532   8.893 -0.0161 -1.0783  3.0613
  178SOPE  H13S20293   3.160   6.707   8.918  1.0994 -0.2893  0.6197
  178SOPE  C21420294   2.977   6.623   8.834 -0.1604  0.2371  0.2677
  178SOPE  H14R20295   2.920   6.712   8.868  0.1233  0.3815  0.3638
  178SOPE  H14S20296   2.921   6.527   8.836  1.3728 -0.7600 -1.7201
  178SOPE  C21520297   3.009   6.649   8.685 -0.8826 -0.1563 -0.0740
  178SOPE  H15R20298   3.096   6.581   8.675 -0.1641  0.6341  0.6321
  178SOPE  H15S20299   3.051   6.751   8.674 -0.6311 -0.3113 -0.5814
  178SOPE  C21620300   2.896   6.623   8.587  0.3701  0.5386 -0.2314
  178SOPE  H16R20301   2.820   6.704   8.582 -1.2540 -0.9232 -0.3891
  178SOPE  H16S20302   2.837   6.533   8.616 -1.9127  1.8700 -0.4750
  178SOPE  C21720303   2.936   6.603   8.438  0.1834 -0.0859 -0.3378
  178SOPE  H17R20304   3.014   6.524   8.423  0.1730 -0.3830  1.0165
  178SOPE  H17S20305   2.975   6.702   8.406  0.8521  0.2175  1.3071
  178SOPE  C21820306   2.815   6.556   8.358  0.1461 -0.0849  1.1474
  178SOPE  H18R20307   2.851   6.543   8.254 -2.2020 -0.7544  0.3456
  178SOPE  H18S20308   2.726   6.623   8.358 -2.6261 -3.3909 -0.7875
  178SOPE  H18T20309   2.778   6.457   8.395  0.3574 -1.6283 -2.3273
  178SOPE   C3320310   3.033   6.098   9.802  0.2811 -0.0078 -0.1215
  178SOPE   H3X20311   2.964   6.060   9.881  0.5147 -1.0528 -0.4050
  178SOPE   H3Y20312   3.119   6.028   9.804  0.2714 -0.0194 -0.0774
  178SOPE   C3420313   2.960   6.093   9.670 -0.1522 -0.5440 -0.3849
  178SOPE   H4X20314   2.894   6.183   9.676  0.8112  0.0961  2.0489
  178SOPE   H4Y20315   2.892   6.005   9.661  1.3302 -1.7577 -0.0131
  178SOPE   C3520316   3.049   6.093   9.542  0.2489  0.2403  0.1713
  178SOPE   H5X20317   3.124   6.012   9.557  0.7844  0.0220 -2.9811
  178SOPE   H5Y20318   3.106   6.188   9.534 -2.9709  2.2876 -0.6914
  178SOPE   C3620319   2.965   6.085   9.414 -0.3494  0.2255  0.9956
  178SOPE   H6X20320   2.914   6.183   9.406  1.0286  1.1218  2.5041
  178SOPE   H6Y20321   2.893   6.001   9.421 -0.5893  0.4145  0.8115
  178SOPE   C3720322   3.061   6.063   9.290  1.0482  0.3204 -0.3846
  178SOPE   H7X20323   3.086   5.957   9.266 -1.4999 -0.0227 -1.9383
  178SOPE   H7Y20324   3.159   6.109   9.315  0.0290  1.6645  1.3029
  178SOPE   C3820325   3.022   6.125   9.157 -0.4934 -0.1635  0.4576
  178SOPE   H8X20326   2.992   6.230   9.177 -0.8528  0.2287 -1.8599
  178SOPE   H8Y20327   2.940   6.061   9.118  1.6279 -2.1706 -0.9232
  178SOPE   C3920328   3.126   6.118   9.046 -0.6935 -0.6865  0.2247
  178SOPE   H9X20329   3.152   6.014   9.018  0.1057 -0.3678 -0.2392
  178SOPE   H9Y20330   3.222   6.155   9.087 -0.2077  0.1524 -1.5842
  178SOPE  C31020331   3.099   6.203   8.919 -0.2080  0.2648  0.4659
  178SOPE  H10X20332   3.198   6.187   8.871 -0.2765  0.3556  0.2925
  178SOPE  H10Y20333   3.086   6.311   8.939 -0.2380  0.4270 -0.3717
  178SOPE  C31120334   2.993   6.153   8.828  0.5321 -0.1708 -0.9128
  178SOPE  H11X20335   2.892   6.141   8.874  1.3145  0.1097  0.9832
  178SOPE  H11Y20336   3.026   6.054   8.789  0.9487  0.2449 -1.6313
  178SOPE  C31220337   2.974   6.242   8.709  0.1312  0.2538 -0.0722
  178SOPE  H12X20338   3.071   6.259   8.658 -0.6884  0.7070 -1.5558
  178SOPE  H12Y20339   2.938   6.343   8.735  0.3469 -0.4238  3.3449
  178SOPE  C31320340   2.870   6.191   8.610  0.3378  0.1805  0.5323
  178SOPE  H13X20341   2.774   6.245   8.624  1.9135  3.8185 -1.2452
  178SOPE  H13Y20342   2.855   6.083   8.628  0.2054  0.2582  0.9059
  178SOPE  C31420343   2.916   6.206   8.464  0.3913 -0.3013  0.1500
  178SOPE  H14X20344   3.017   6.162   8.451  0.8849  1.0446 -0.8582
  178SOPE  H14Y20345   2.918   6.312   8.430  0.3570 -0.5996 -0.8217
  178SOPE  C31520346   2.819   6.154   8.353 -0.5449 -0.1485 -0.3883
  178SOPE  H15X20347   2.728   6.217   8.345  1.8469  3.6482 -0.1389
  178SOPE  H15Y20348   2.813   6.043   8.355  2.0678 -0.3950  2.4501
  178SOPE  C31620349   2.882   6.179   8.214  1.0163  0.5590  0.1615
  178SOPE  H16X20350   2.993   6.174   8.220  1.0115  1.4933  1.7640
  178SOPE  H16Y20351   2.865   6.284   8.182 -0.2018  0.4153  0.2725
  178SOPE  C31720352   2.829   6.086   8.108 -0.4682 -0.0845 -0.0207
  178SOPE  H17X20353   2.721   6.108   8.111 -0.4018  0.5927 -1.4278
  178SOPE  H17Y20354   2.840   5.980   8.137 -1.8398  0.1160  1.3436
  178SOPE  C31820355   2.886   6.117   7.972 -0.0531 -0.0163 -0.9152
  178SOPE  H18X20356   2.829   6.056   7.898 -0.2725 -1.6814  0.5525
  178SOPE  H18Y20357   2.990   6.079   7.960 -0.2384 -0.4672 -1.1105
  178SOPE  H18Z20358   2.871   6.224   7.947  1.2500  0.3724 -0.0797
  179SOPE     N20359   2.589   1.670   6.144  0.0558 -0.2856  0.1161
  179SOPE   HN120360   2.542   1.583   6.175 -0.7513  0.4625  1.0959
  179SOPE   HN220361   2.564   1.678   6.044 -0.8712  1.2842  0.4290
  179SOPE   HN320362   2.692   1.657   6.147  0.4836  2.1799 -1.3156
  179SOPE   C1220363   2.549   1.788   6.230 -0.1643  0.1278  0.7736
  179SOPE  H12A20364   2.438   1.796   6.230 -0.2829 -0.5374 -2.0678
  179SOPE  H12B20365   2.589   1.876   6.176 -0.1496 -0.5786 -0.3917
  179SOPE   C1120366   2.597   1.795   6.377  0.1210 -0.2146  0.3529
  179SOPE  H11A20367   2.590   1.701   6.437  2.9035 -0.1137  0.9710
  179SOPE  H11B20368   2.537   1.874   6.426  0.5309 -0.3689  1.1062
  179SOPE     P20369   2.772   1.989   6.364 -0.1104 -0.6151 -0.2048
  179SOPE   O1320370   2.646   2.066   6.362 -0.5063  0.1548 -0.4832
  179SOPE   O1420371   2.879   2.023   6.268  0.2002  0.3836 -0.0875
  179SOPE   O1220372   2.736   1.835   6.363  0.7501 -0.0893 -0.4169
  179SOPE   O1120373   2.839   2.021   6.513  0.5670 -0.3184  0.5682
  179SOPE    C120374   2.787   1.954   6.629 -0.1003 -0.6609  0.3933
  179SOPE    HA20375   2.685   1.914   6.612 -0.4331 -0.4720  1.8444
  179SOPE    HB20376   2.783   2.020   6.718 -2.0218 -1.2721  0.8023
  179SOPE    C220377   2.874   1.836   6.670  0.0347 -0.2392  1.0544
  179SOPE    HS20378   2.860   1.766   6.584  0.7413  2.9614 -1.9162
  179SOPE   O2120379   2.829   1.768   6.788  0.8177  0.0088  0.6891
  179SOPE   C2120380   2.715   1.700   6.772 -0.4387  0.1237  0.6591
  179SOPE   O2220381   2.640   1.691   6.673  0.1239  0.0055  0.0170
  179SOPE   C2220382   2.701   1.627   6.903  0.8200  0.1297 -0.3694
  179SOPE   H2R20383   2.694   1.713   6.973 -1.4822  1.1753 -1.7473
  179SOPE   H2S20384   2.794   1.568   6.917  1.8993  1.9108  0.3663
  179SOPE    C320385   3.032   1.877   6.661 -0.9924  0.1781 -0.2240
  179SOPE    HX20386   3.041   1.964   6.729  2.4271 -0.3943  0.2440
  179SOPE    HY20387   3.044   1.904   6.554 -1.6729 -0.1072 -0.3769
  179SOPE   O3120388   3.118   1.765   6.693 -0.1443 -0.0900 -0.1298
  179SOPE   C3120389   3.233   1.813   6.741  0.2164  0.0553 -1.1572
  179SOPE   O3220390   3.264   1.926   6.756  0.0924 -0.5042  0.5003
  179SOPE   C3220391   3.310   1.687   6.806 -0.5829 -0.6859  0.6877
  179SOPE   H2X20392   3.364   1.643   6.720 -3.1180  2.5282 -2.8661
  179SOPE   H2Y20393   3.226   1.622   6.839  0.1193 -2.0987 -0.2435
  179SOPE   C2320394   2.571   1.549   6.923  0.5938  0.2409 -0.8530
  179SOPE   H3R20395   2.568   1.453   6.868 -1.5194  0.2682 -0.8912
  179SOPE   H3S20396   2.483   1.600   6.877 -0.0394 -0.5241 -0.5117
  179SOPE   C2420397   2.550   1.523   7.073 -0.1594 -0.3673  0.3609
  179SOPE   H4R20398   2.531   1.618   7.128 -1.2662  0.0540 -0.7242
  179SOPE   H4S20399   2.457   1.462   7.076 -0.4109 -0.2241 -2.2766
  179SOPE   C2520400   2.666   1.427   7.135  0.2793 -0.4630  1.4375
  179SOPE   H5R20401   2.648   1.320   7.114  2.9323 -1.1833  2.3525
  179SOPE   H5S20402   2.767   1.461   7.103  0.3312  2.0357  3.8165
  179SOPE   C2620403   2.682   1.443   7.287 -0.6626  0.1542  0.2813
  179SOPE   H6R20404   2.752   1.368   7.330 -2.4356 -1.1652  1.0168
  179SOPE   H6S20405   2.733   1.541   7.298 -0.5364 -0.0033  1.1639
  179SOPE   C2720406   2.560   1.453   7.379 -0.0167  0.0114 -0.4419
  179SOPE   H7R20407   2.497   1.532   7.335  0.3616  0.1967 -0.6620
  179SOPE   H7S20408   2.492   1.365   7.382 -0.6725  0.4754 -1.3813
  179SOPE   C2820409   2.604   1.486   7.522  0.3672  0.1935  0.4567
  179SOPE   H8R20410   2.665   1.401   7.561  1.3809  0.9227  0.4994
  179SOPE   H8S20411   2.661   1.581   7.528  1.3279 -0.4003  1.0047
  179SOPE   C2920412   2.486   1.493   7.620 -0.3866 -0.1244 -0.1773
  179SOPE   H9120413   2.386   1.501   7.576 -0.0721 -1.7630 -1.2887
  179SOPE  C21020414   2.500   1.497   7.757 -0.4703 -0.2939  0.9790
  179SOPE  H10120415   2.416   1.531   7.819 -1.5195  1.2083 -1.1289
  179SOPE  C21120416   2.624   1.498   7.845  0.5718  0.1504  0.0171
  179SOPE  H11R20417   2.719   1.478   7.791  1.4403  2.0702  0.7419
  179SOPE  H11S20418   2.609   1.417   7.919  0.1690  0.7615  0.6249
  179SOPE  C21220419   2.642   1.629   7.929  0.7312 -0.4004 -0.0956
  179SOPE  H12R20420   2.560   1.649   8.002 -1.1614 -0.6983 -2.0449
  179SOPE  H12S20421   2.642   1.715   7.859  0.1683  0.1172  0.5153
  179SOPE  C21320422   2.777   1.636   8.004 -0.5977 -0.0640  0.9134
  179SOPE  H13R20423   2.862   1.620   7.934 -0.3550 -0.1643  1.2259
  179SOPE  H13S20424   2.760   1.549   8.071 -2.3027 -0.8171 -0.4307
  179SOPE  C21420425   2.794   1.763   8.086 -0.0275  0.1931  0.1175
  179SOPE  H14R20426   2.722   1.779   8.169 -1.3464  2.1189 -1.2874
  179SOPE  H14S20427   2.787   1.855   8.023  1.2847  0.1486 -0.1154
  179SOPE  C21520428   2.932   1.779   8.152 -0.4082 -0.3922 -0.5884
  179SOPE  H15R20429   3.011   1.771   8.074  1.1991 -3.8147  1.1572
  179SOPE  H15S20430   2.967   1.694   8.214  1.6025 -0.5689 -1.8699
  179SOPE  C21620431   2.954   1.896   8.242 -0.4688 -0.0794  0.6200
  179SOPE  H16R20432   2.932   1.986   8.179  1.0286  0.7214  1.1975
  179SOPE  H16S20433   3.060   1.906   8.271 -0.6594 -0.0608  1.3199
  179SOPE  C21720434   2.866   1.891   8.362 -0.0847  0.1940 -0.0716
  179SOPE  H17R20435   2.878   1.804   8.431  0.4017  0.1880 -0.1659
  179SOPE  H17S20436   2.762   1.901   8.324  0.3663  1.3471 -1.0387
  179SOPE  C21820437   2.891   2.021   8.445  0.2485 -0.3643  0.3745
  179SOPE  H18R20438   2.864   2.112   8.387 -1.0531 -1.0792 -0.1856
  179SOPE  H18S20439   3.000   2.023   8.465  0.0974 -2.3781  1.6627
  179SOPE  H18T20440   2.827   2.022   8.536  0.7992 -0.2996  0.7663
  179SOPE   C3320441   3.422   1.726   6.909  1.1670  0.1247 -0.2656
  179SOPE   H3X20442   3.482   1.808   6.863  0.6789  0.9609  0.5733
  179SOPE   H3Y20443   3.490   1.639   6.925 -0.3567 -1.3193 -1.2692
  179SOPE   C3420444   3.359   1.775   7.034  0.4342 -0.0596 -0.1475
  179SOPE   H4X20445   3.267   1.719   7.059  1.1918  0.1863  3.9863
  179SOPE   H4Y20446   3.322   1.879   7.024 -0.1274 -0.3104 -0.7229
  179SOPE   C3520447   3.449   1.771   7.158  0.6011  0.0956 -0.0267
  179SOPE   H5X20448   3.546   1.824   7.145  0.0854  1.0309 -0.1369
  179SOPE   H5Y20449   3.468   1.666   7.189  0.2910  0.0864  0.1322
  179SOPE   C3620450   3.380   1.836   7.276  0.2000  0.1057 -0.2264
  179SOPE   H6X20451   3.283   1.785   7.294 -0.2736 -0.4500 -3.5505
  179SOPE   H6Y20452   3.356   1.941   7.248 -1.0761  0.4660  2.0288
  179SOPE   C3720453   3.471   1.847   7.401  0.4333 -0.2845  0.4371
  179SOPE   H7X20454   3.565   1.895   7.367 -0.0915 -0.7871 -1.9361
  179SOPE   H7Y20455   3.499   1.746   7.438 -0.0210  0.1587  2.0767
  179SOPE   C3820456   3.409   1.903   7.527  0.1408  0.1743  0.7758
  179SOPE   H8X20457   3.337   1.831   7.570 -0.1396  0.4633  0.7906
  179SOPE   H8Y20458   3.356   1.998   7.502 -0.0504  0.5095  2.3158
  179SOPE   C3920459   3.525   1.929   7.629 -0.2576 -0.0011 -0.2367
  179SOPE   H9X20460   3.578   2.020   7.593  3.2242 -1.0184  1.8738
  179SOPE   H9Y20461   3.589   1.838   7.631  0.0971  0.2385 -0.5325
  179SOPE  C31020462   3.478   1.957   7.774  0.0622  1.0243 -0.0416
  179SOPE  H10X20463   3.405   1.875   7.795  1.8277 -1.1220 -1.6898
  179SOPE  H10Y20464   3.419   2.050   7.789 -0.9745  0.0818  2.0413
  179SOPE  C31120465   3.595   1.969   7.863 -0.5161 -0.3372  0.2745
  179SOPE  H11X20466   3.660   2.054   7.834 -0.5896 -0.8563 -1.5939
  179SOPE  H11Y20467   3.657   1.878   7.847 -1.3155 -0.8261 -0.1314
  179SOPE  C31220468   3.561   1.986   8.013  0.9759 -0.3968  0.3106
  179SOPE  H12X20469   3.521   1.887   8.042  0.9975 -0.5713 -0.2301
  179SOPE  H12Y20470   3.491   2.072   8.021 -0.2088 -1.3340  0.2740
  179SOPE  C31320471   3.680   2.020   8.103  0.1537 -0.1890  0.0301
  179SOPE  H13X20472   3.723   2.117   8.069 -0.8200 -0.2046 -1.3242
  179SOPE  H13Y20473   3.764   1.949   8.086 -0.8064 -1.4101  0.2533
  179SOPE  C31420474   3.666   2.034   8.257  0.5100 -0.1540  0.0104
  179SOPE  H14X20475   3.761   2.077   8.295  0.1024 -0.3815  1.3232
  179SOPE  H14Y20476   3.642   1.933   8.298 -2.4329 -0.5088 -2.2958
  179SOPE  C31520477   3.556   2.136   8.303 -0.1367  0.4286 -0.0657
  179SOPE  H15X20478   3.466   2.104   8.247 -2.0430  3.0063  1.3147
  179SOPE  H15Y20479   3.584   2.239   8.272 -0.6177  0.1320 -1.5679
  179SOPE  C31620480   3.523   2.125   8.452 -0.6191 -0.6439 -0.3402
  179SOPE  H16X20481   3.613   2.170   8.500 -0.2895 -1.4291 -0.1923
  179SOPE  H16Y20482   3.507   2.020   8.487 -3.1475  0.4160  1.9921
  179SOPE  C31720483   3.395   2.200   8.482  0.2417 -0.0940  0.1003
  179SOPE  H17X20484   3.317   2.173   8.408  0.1415  0.4356  0.0103
  179SOPE  H17Y20485   3.424   2.306   8.471  0.6805 -0.4177 -2.2557
  179SOPE  C31820486   3.340   2.167   8.619  0.0988  0.4713  0.1943
  179SOPE  H18X20487   3.417   2.183   8.697  1.4852  1.0739 -1.2452
  179SOPE  H18Y20488   3.307   2.061   8.622 -0.7057  0.7052 -0.1152
  179SOPE  H18Z20489   3.250   2.222   8.652 -0.3520  0.6342 -1.2245
  180SOPE     N20490   2.007   0.870   5.538  0.7671 -0.3224  0.4744
  180SOPE   HN120491   2.060   0.788   5.573 -0.3354 -0.8964  0.8554
  180SOPE   HN220492   2.040   0.895   5.442 -0.6042 -1.6320 -0.3755
  180SOPE   HN320493   2.025   0.951   5.601 -0.7810  0.1461  0.3553
  180SOPE   C1220494   1.863   0.843   5.532  0.4603 -0.7141 -0.9954
  180SOPE  H12A20495   1.846   0.780   5.442 -0.4854 -0.3462 -1.0799
  180SOPE  H12B20496   1.808   0.935   5.504  0.3213 -1.3226 -2.8593
  180SOPE   C1120497   1.821   0.780   5.667 -0.6418  0.1511  0.1126
  180SOPE  H11A20498   1.720   0.736   5.652 -1.8095  2.4871  0.6404
  180SOPE  H11B20499   1.801   0.860   5.741  2.0609  0.4212  0.6312
  180SOPE     P20500   1.937   0.546   5.663  0.2759  0.4291  0.0700
  180SOPE   O1320501   2.035   0.560   5.552 -0.6405  0.9457 -0.1027
  180SOPE   O1420502   1.804   0.489   5.636  0.1414 -0.2004  0.3864
  180SOPE   O1220503   1.918   0.689   5.716  0.3307  0.1179  0.2621
  180SOPE   O1120504   1.992   0.463   5.787  0.4784 -0.3288  0.4771
  180SOPE    C120505   2.064   0.526   5.894  0.2080 -0.1316  0.2073
  180SOPE    HA20506   2.028   0.629   5.912 -1.0150 -0.6858  1.0802
  180SOPE    HB20507   2.170   0.533   5.862  0.5535 -2.1765  0.7103
  180SOPE    C220508   2.037   0.441   6.027 -0.8813 -0.0011 -0.2789
  180SOPE    HS20509   2.069   0.337   6.003  1.5812  0.6081  0.0525
  180SOPE   O2120510   1.897   0.450   6.060 -0.4780  0.4069 -0.2927
  180SOPE   C2120511   1.841   0.345   6.119  0.2036  0.0288 -1.3183
  180SOPE   O2220512   1.892   0.233   6.129 -0.7151 -0.6879  0.4535
  180SOPE   C2220513   1.703   0.374   6.175  0.0982  0.0053  0.1525
  180SOPE   H2R20514   1.637   0.344   6.091  0.2166 -1.0204  0.4118
  180SOPE   H2S20515   1.696   0.484   6.170 -0.6423 -0.0794 -1.2200
  180SOPE    C320516   2.128   0.492   6.144 -0.2921  0.2681  0.8859
  180SOPE    HX20517   2.076   0.585   6.177  0.8870  1.8409 -1.4220
  180SOPE    HY20518   2.228   0.514   6.101  0.0306 -2.2946  0.2043
  180SOPE   O3120519   2.136   0.398   6.256 -0.1602  0.0201  0.1188
  180SOPE   C3120520   2.229   0.298   6.252 -0.1497 -0.3388  1.3771
  180SOPE   O3220521   2.307   0.286   6.154 -0.2095 -0.5437  0.1853
  180SOPE   C3220522   2.211   0.213   6.376  0.1163  0.1134  0.8024
  180SOPE   H2X20523   2.117   0.154   6.385  1.2774 -2.1364 -0.6832
  180SOPE   H2Y20524   2.205   0.290   6.456 -0.2081  0.3830  0.5239
  180SOPE   C2320525   1.665   0.317   6.317  0.7876  0.1377  0.0444
  180SOPE   H3R20526   1.702   0.212   6.323  0.8951  0.1097 -0.8751
  180SOPE   H3S20527   1.554   0.310   6.321  0.7391 -2.8003 -2.4719
  180SOPE   C2420528   1.737   0.397   6.429  0.2260  0.3608 -0.6691
  180SOPE   H4R20529   1.834   0.410   6.376  1.2796  2.3204  1.5663
  180SOPE   H4S20530   1.687   0.494   6.448  0.9944  0.3181  1.9203
  180SOPE   C2520531   1.756   0.329   6.571  0.5835  0.2315 -0.5503
  180SOPE   H5R20532   1.770   0.405   6.651 -1.1600  2.3199 -2.1028
  180SOPE   H5S20533   1.657   0.284   6.595  0.6039  1.0728  1.2132
  180SOPE   C2620534   1.864   0.224   6.566 -0.1461 -0.5096  0.1470
  180SOPE   H6R20535   1.860   0.175   6.466  1.6648 -3.2155  1.2675
  180SOPE   H6S20536   1.966   0.268   6.575 -0.5683  0.4983  0.1360
  180SOPE   C2720537   1.850   0.112   6.665 -0.0458  0.3848  0.0526
  180SOPE   H7R20538   1.746   0.074   6.672  0.2087 -0.2493  0.4273
  180SOPE   H7S20539   1.905   0.022   6.632  0.5751  0.7873 -0.0289
  180SOPE   C2820540   1.911   0.137   6.799  0.3594  0.4370 -0.7546
  180SOPE   H8R20541   1.861   0.217   6.856 -2.5180 -2.1666  0.6683
  180SOPE   H8S20542   1.891   0.051   6.866 -0.2643  1.6494  0.6632
  180SOPE   C2920543   2.063   0.147   6.812 -0.5391 -0.3961 -0.0208
  180SOPE   H9120544   2.121   0.114   6.725 -0.8144 -1.8268  0.3228
  180SOPE  C21020545   2.136   0.197   6.911  0.2948  0.6328 -0.3873
  180SOPE  H10120546   2.245   0.191   6.901  0.4962  2.4538  0.3466
  180SOPE  C21120547   2.079   0.249   7.037 -0.2105 -0.0781  0.2291
  180SOPE  H11R20548   2.137   0.212   7.125 -0.5005  0.6833  0.7471
  180SOPE  H11S20549   1.976   0.210   7.050  0.1155 -1.5799 -1.3912
  180SOPE  C21220550   2.096   0.401   7.041 -0.6142  0.1015 -0.7115
  180SOPE  H12R20551   2.041   0.442   6.954 -1.3581 -1.9746 -1.2582
  180SOPE  H12S20552   2.204   0.428   7.037 -0.3267 -0.8523  0.2484
  180SOPE  C21320553   2.057   0.467   7.173 -0.4725 -0.5524 -0.5158
  180SOPE  H13R20554   2.053   0.388   7.252  0.7139  0.2217  0.3512
  180SOPE  H13S20555   1.956   0.508   7.156 -0.5644 -0.3278  0.4859
  180SOPE  C21420556   2.139   0.588   7.225  0.5484  0.7194  0.2529
  180SOPE  H14R20557   2.097   0.683   7.186 -3.3949 -1.2214 -0.7346
  180SOPE  H14S20558   2.244   0.581   7.190  0.6125  1.5587  0.2764
  180SOPE  C21520559   2.131   0.597   7.381 -0.1651  0.4503  0.9826
  180SOPE  H15R20560   2.175   0.505   7.425 -0.4999  0.0618  0.5126
  180SOPE  H15S20561   2.025   0.591   7.410 -0.4703 -1.1969 -0.3189
  180SOPE  C21620562   2.182   0.723   7.445 -0.3918  0.8705  0.2495
  180SOPE  H16R20563   2.118   0.809   7.415 -0.3808  1.1836  1.1208
  180SOPE  H16S20564   2.288   0.737   7.415 -0.0544 -1.5515  0.1273
  180SOPE  C21720565   2.179   0.724   7.602 -0.3872  0.4054  0.0678
  180SOPE  H17R20566   2.221   0.821   7.635 -0.6591  0.1268  1.2634
  180SOPE  H17S20567   2.235   0.645   7.655  1.5753  2.8481  1.8672
  180SOPE  C21820568   2.033   0.726   7.654  0.2601  0.0216  0.1100
  180SOPE  H18R20569   1.975   0.641   7.614  1.1802 -0.8139  0.5046
  180SOPE  H18S20570   1.973   0.810   7.612 -0.4911  1.0595  2.9647
  180SOPE  H18T20571   2.024   0.724   7.765 -0.9031 -1.1665  0.0173
  180SOPE   C3320572   2.332   0.123   6.403  0.4754 -0.2755  0.0839
  180SOPE   H3X20573   2.423   0.187   6.409 -0.5060  1.0611  1.4991
  180SOPE   H3Y20574   2.343   0.049   6.321  1.8267  0.5867 -0.5655
  180SOPE   C3420575   2.322   0.048   6.535  0.3024 -1.0768  0.2789
  180SOPE   H4X20576   2.244  -0.030   6.521  0.6781 -1.0358 -2.6819
  180SOPE   H4Y20577   2.306   0.116   6.622 -0.3848 -0.0603 -0.6101
  180SOPE   C3520578   2.460  -0.028   6.564 -0.0675  0.2283  0.2238
  180SOPE   H5X20579   2.539   0.047   6.585 -0.0353  0.1373  0.4267
  180SOPE   H5Y20580   2.488  -0.073   6.466  0.6828  0.9441  0.0990
  180SOPE   C3620581   2.460  -0.135   6.682  0.0380  0.3413 -0.1189
  180SOPE   H6X20582   2.553  -0.194   6.673  0.8134  1.5480 -0.2689
  180SOPE   H6Y20583   2.374  -0.203   6.666 -0.7787 -0.0261  4.4992
  180SOPE   C3720584   2.443  -0.055   6.814  0.7919  0.5504  0.2118
  180SOPE   H7X20585   2.351   0.007   6.815 -0.0760 -0.6852  1.7454
  180SOPE   H7Y20586   2.529   0.013   6.827 -0.1283  2.1839 -1.7408
  180SOPE   C3820587   2.432  -0.143   6.940 -0.2861  0.7234  0.1179
  180SOPE   H8X20588   2.519  -0.210   6.961 -0.3134  1.5393  3.3732
  180SOPE   H8Y20589   2.341  -0.206   6.931  1.3714 -1.8215  0.1862
  180SOPE   C3920590   2.426  -0.057   7.065 -0.7829 -0.6191  0.8220
  180SOPE   H9X20591   2.338   0.009   7.047  0.1090  0.5456  0.6007
  180SOPE   H9Y20592   2.518   0.005   7.060 -1.4459  0.5253  2.0719
  180SOPE  C31020593   2.406  -0.114   7.211  0.1745  0.2297 -0.2248
  180SOPE  H10X20594   2.462  -0.209   7.218 -3.7867 -2.3579 -0.7274
  180SOPE  H10Y20595   2.306  -0.161   7.211  0.7701 -1.1407 -1.7209
  180SOPE  C31120596   2.435   0.001   7.309  0.7843  0.1823 -0.3023
  180SOPE  H11X20597   2.354   0.076   7.296 -1.3483 -2.1876 -1.5338
  180SOPE  H11Y20598   2.537   0.038   7.286  0.7548 -0.1671 -1.0205
  180SOPE  C31220599   2.438  -0.042   7.463  0.1515  0.3352 -0.3046
  180SOPE  H12X20600   2.345  -0.103   7.461  0.6780 -0.4624 -0.8225
  180SOPE  H12Y20601   2.431   0.043   7.535 -0.1749 -1.8087  2.3952
  180SOPE  C31320602   2.554  -0.125   7.510 -0.5515  0.4856 -0.3589
  180SOPE  H13X20603   2.646  -0.063   7.507 -1.4136  1.7751 -1.3225
  180SOPE  H13Y20604   2.571  -0.209   7.440  0.5043 -0.8735  1.4276
  180SOPE  C31420605   2.540  -0.166   7.660 -0.1513 -0.2936  0.7726
  180SOPE  H14X20606   2.447  -0.226   7.668 -1.8296  1.7780 -1.5419
  180SOPE  H14Y20607   2.521  -0.074   7.720 -1.3458 -0.3925  0.5633
  180SOPE  C31520608   2.673  -0.233   7.706  0.4721  0.4789 -0.4538
  180SOPE  H15X20609   2.752  -0.157   7.686  3.8910 -2.3012  1.4264
  180SOPE  H15Y20610   2.697  -0.323   7.645  2.0230 -0.8095  1.9066
  180SOPE  C31620611   2.675  -0.286   7.848  0.3031 -0.3364 -0.4088
  180SOPE  H16X20612   2.640  -0.215   7.927  1.9778  0.8067 -0.6447
  180SOPE  H16Y20613   2.781  -0.290   7.882  0.5273  0.4216 -0.9866
  180SOPE  C31720614   2.610  -0.425   7.868 -0.1401 -0.3856  0.0101
  180SOPE  H17X20615   2.659  -0.504   7.808 -1.0552 -0.6138 -0.4409
  180SOPE  H17Y20616   2.509  -0.416   7.823 -0.4325  0.9036  0.8574
  180SOPE  C31820617   2.591  -0.472   8.013 -0.1783 -0.6426  0.2342
  180SOPE  H18X20618   2.686  -0.497   8.063 -1.5604 -1.3480  2.6545
  180SOPE  H18Y20619   2.533  -0.567   8.005 -2.6557  0.8869 -1.5888
  180SOPE  H18Z20620   2.536  -0.396   8.073  1.0269  1.1185 -0.7843
  181SOPE     N20621   2.559   5.053   5.834 -0.2549  0.4588 -0.3255
  181SOPE   HN120622   2.628   5.083   5.761  1.7071  0.5784  1.4835
  181SOPE   HN220623   2.526   5.143   5.875 -0.5570 -0.5622  1.7641
  181SOPE   HN320624   2.590   4.996   5.915  0.9750  1.9282  0.2900
  181SOPE   C1220625   2.442   4.998   5.767 -0.6283 -0.2110  0.2363
  181SOPE  H12A20626   2.467   4.890   5.753 -0.8164 -0.2405  0.1368
  181SOPE  H12B20627   2.421   5.044   5.669  0.1384 -1.8728 -0.7553
  181SOPE   C1120628   2.318   5.004   5.860 -0.1788  0.5651 -0.0800
  181SOPE  H11A20629   2.330   4.935   5.946 -3.0826 -1.7814 -1.3842
  181SOPE  H11B20630   2.228   4.966   5.808 -1.0179  1.4457  0.6857
  181SOPE     P20631   2.169   5.155   6.002  0.2867  0.3297  0.2125
  181SOPE   O1320632   2.057   5.071   5.959  0.4425 -0.3558 -0.1846
  181SOPE   O1420633   2.136   5.299   6.015  0.1035  0.4536 -0.3797
  181SOPE   O1220634   2.306   5.132   5.911  0.2701 -0.5076 -0.3315
  181SOPE   O1120635   2.214   5.089   6.144  0.4004  0.0037  0.8608
  181SOPE    C120636   2.340   5.142   6.192 -0.5951  0.4196  0.3882
  181SOPE    HA20637   2.334   5.247   6.228  1.4011  0.7182  0.0089
  181SOPE    HB20638   2.422   5.127   6.118 -1.0095 -1.6638  0.2825
  181SOPE    C220639   2.380   5.059   6.316  0.0087  0.0355  0.5967
  181SOPE    HS20640   2.386   4.955   6.277  0.4629  0.8035 -1.5185
  181SOPE   O2120641   2.276   5.067   6.413  0.7500  0.0270 -0.1834
  181SOPE   C2120642   2.273   4.956   6.495 -0.1280  0.3155 -0.1107
  181SOPE   O2220643   2.317   4.846   6.469 -0.6082  0.1090 -0.1579
  181SOPE   C2220644   2.191   4.987   6.627 -0.5814 -0.2755  0.0894
  181SOPE   H2R20645   2.102   5.048   6.599  0.1562  1.4965  1.4755
  181SOPE   H2S20646   2.258   5.046   6.692 -1.9949  0.6127  0.8025
  181SOPE    C320647   2.513   5.103   6.379 -0.0054 -0.1744  0.2790
  181SOPE    HX20648   2.497   5.208   6.413 -1.2943 -0.6323  1.1811
  181SOPE    HY20649   2.597   5.105   6.308  0.1101  0.9679  0.4274
  181SOPE   O3120650   2.552   5.026   6.489 -0.4726  0.1556 -0.3148
  181SOPE   C3120651   2.621   4.915   6.467  0.4368  0.1464  0.9165
  181SOPE   O3220652   2.656   4.874   6.356  0.1692  0.0770 -0.4101
  181SOPE   C3220653   2.668   4.846   6.596 -0.3061 -0.0085  0.3802
  181SOPE   H2X20654   2.734   4.918   6.649  3.3159 -1.0260 -2.3498
  181SOPE   H2Y20655   2.736   4.762   6.573 -1.5261 -1.7372  2.6024
  181SOPE   C2320656   2.149   4.865   6.708  0.3185 -0.0100 -0.5673
  181SOPE   H3R20657   2.221   4.781   6.722  2.1727  1.5275 -0.5991
  181SOPE   H3S20658   2.060   4.828   6.651 -0.2471  0.1435  0.1979
  181SOPE   C2420659   2.106   4.910   6.852  0.3447  0.1946 -0.1350
  181SOPE   H4R20660   2.199   4.932   6.908  1.1008 -0.5919 -1.0688
  181SOPE   H4S20661   2.045   5.003   6.841 -1.9785 -1.1635  0.5551
  181SOPE   C2520662   2.026   4.807   6.919  0.1125 -0.1607  0.8819
  181SOPE   H5R20663   1.922   4.806   6.880 -0.0526  0.4184  1.3002
  181SOPE   H5S20664   2.068   4.707   6.891 -0.4143  0.2158 -1.5312
  181SOPE   C2620665   2.024   4.828   7.069 -0.1223 -0.0174  0.5814
  181SOPE   H6R20666   1.957   4.749   7.109 -1.5773  1.2931  0.8204
  181SOPE   H6S20667   2.124   4.804   7.112 -1.0836  0.6194  3.3924
  181SOPE   C2720668   1.969   4.964   7.116 -0.6205  0.3594  0.1532
  181SOPE   H7R20669   2.030   5.049   7.077  1.7172 -1.0471  0.5550
  181SOPE   H7S20670   1.868   4.981   7.074 -1.7748 -1.2610  2.1392
  181SOPE   C2820671   1.966   4.973   7.269 -0.3882 -0.5382 -0.0401
  181SOPE   H8R20672   1.880   4.912   7.306 -1.9560  1.5316 -0.0819
  181SOPE   H8S20673   2.064   4.945   7.313  2.0348  2.0743 -3.3373
  181SOPE   C2920674   1.924   5.103   7.325 -0.3708  0.1916 -0.3605
  181SOPE   H9120675   1.841   5.152   7.272  0.7110  2.2009 -0.2703
  181SOPE  C21020676   1.986   5.176   7.423  0.8310  0.3432 -0.0315
  181SOPE  H10120677   1.944   5.274   7.451 -0.7182  0.1347 -1.4480
  181SOPE  C21120678   2.104   5.137   7.509 -0.0469 -0.4605  0.2686
  181SOPE  H11R20679   2.180   5.217   7.496  0.7958 -1.2099  0.4862
  181SOPE  H11S20680   2.150   5.042   7.472 -0.8294 -1.3421  1.4797
  181SOPE  C21220681   2.073   5.124   7.655  0.0554  0.3582 -0.8916
  181SOPE  H12R20682   2.150   5.063   7.707 -3.2119 -1.5084  2.3148
  181SOPE  H12S20683   1.971   5.082   7.672 -0.6243  1.8867 -1.0460
  181SOPE  C21320684   2.058   5.263   7.721  0.2453  0.3646 -0.2435
  181SOPE  H13R20685   1.975   5.316   7.669 -1.4209 -0.1042  1.8147
  181SOPE  H13S20686   2.153   5.318   7.699  0.9374 -0.7927 -0.2386
  181SOPE  C21420687   2.018   5.251   7.874  0.5894  0.5111  0.7954
  181SOPE  H14R20688   2.097   5.202   7.936  0.4180 -1.0098 -0.1390
  181SOPE  H14S20689   1.927   5.189   7.884  0.3601  0.6782 -0.2078
  181SOPE  C21520690   1.975   5.387   7.923  0.5506 -0.0464  0.9786
  181SOPE  H15R20691   1.894   5.436   7.865  2.5015  2.6947  0.4175
  181SOPE  H15S20692   2.065   5.451   7.910 -0.1432  0.4901 -2.0209
  181SOPE  C21620693   1.921   5.389   8.064 -0.4722 -0.1095 -0.0457
  181SOPE  H16R20694   1.978   5.315   8.124  0.0446 -0.7096 -1.2472
  181SOPE  H16S20695   1.815   5.358   8.066 -0.0410 -1.6556  0.3742
  181SOPE  C21720696   1.935   5.526   8.130  0.1711 -0.4201 -0.0463
  181SOPE  H17R20697   1.871   5.592   8.067  0.3409  0.1632  0.3807
  181SOPE  H17S20698   2.040   5.562   8.118 -0.6297  2.0523 -0.2660
  181SOPE  C21820699   1.879   5.548   8.276 -0.2589  0.4673 -0.2344
  181SOPE  H18R20700   1.769   5.540   8.265 -0.2835 -0.8786  0.7420
  181SOPE  H18S20701   1.912   5.649   8.307 -1.3331  0.7282  0.0860
  181SOPE  H18T20702   1.915   5.470   8.346  1.1617  2.1020  0.9450
  181SOPE   C3320703   2.556   4.792   6.689  0.3604  0.9411  0.3175
  181SOPE   H3X20704   2.519   4.694   6.653 -0.5646  1.8760 -1.3810
  181SOPE   H3Y20705   2.475   4.867   6.687 -0.9592 -0.4416 -1.0325
  181SOPE   C3420706   2.604   4.791   6.833 -0.0325  0.6005  0.1704
  181SOPE   H4X20707   2.653   4.881   6.875 -0.9078  1.3738 -0.4215
  181SOPE   H4Y20708   2.684   4.715   6.841 -0.5859 -0.0758 -0.5567
  181SOPE   C3520709   2.496   4.737   6.928 -0.3196  0.1753  0.3953
  181SOPE   H5X20710   2.442   4.649   6.887 -0.0168 -0.6875  1.7911
  181SOPE   H5Y20711   2.428   4.820   6.956 -0.9805  0.5795 -2.1079
  181SOPE   C3620712   2.552   4.680   7.061 -0.6591  0.1510  0.9131
  181SOPE   H6X20713   2.641   4.737   7.093 -0.9814  0.2623  1.6388
  181SOPE   H6Y20714   2.587   4.574   7.055 -0.7161  0.1921 -0.1753
  181SOPE   C3720715   2.440   4.693   7.174 -0.6738 -0.4272 -0.2164
  181SOPE   H7X20716   2.371   4.608   7.154 -1.6649  0.6426 -1.6039
  181SOPE   H7Y20717   2.390   4.791   7.159  0.6505  0.3851  0.5287
  181SOPE   C3820718   2.498   4.706   7.317  0.0477 -0.1836  0.0854
  181SOPE   H8X20719   2.404   4.729   7.370  0.6610  2.8305  0.0458
  181SOPE   H8Y20720   2.558   4.800   7.324  4.9299 -2.8709 -1.2882
  181SOPE   C3920721   2.584   4.579   7.343 -0.6110  0.6376  1.3281
  181SOPE   H9X20722   2.678   4.592   7.286 -0.5103 -3.2933  0.3409
  181SOPE   H9Y20723   2.530   4.495   7.295 -0.7382  0.6051  1.5242
  181SOPE  C31020724   2.608   4.553   7.493 -0.0318  0.9090 -0.0867
  181SOPE  H10X20725   2.657   4.454   7.507  0.9881  1.2886 -0.8795
  181SOPE  H10Y20726   2.513   4.551   7.549 -1.2235 -5.1875 -1.6058
  181SOPE  C31120727   2.715   4.654   7.547 -0.5688  0.3281 -0.1921
  181SOPE  H11X20728   2.680   4.759   7.549 -0.4455  0.3858 -0.9498
  181SOPE  H11Y20729   2.810   4.642   7.490 -1.5990 -1.7820 -1.5854
  181SOPE  C31220730   2.747   4.610   7.684 -0.3461  0.7445 -0.7289
  181SOPE  H12X20731   2.800   4.512   7.684  0.1544  0.9989 -2.1219
  181SOPE  H12Y20732   2.661   4.608   7.754 -0.2995  2.2255 -0.5893
  181SOPE  C31320733   2.843   4.700   7.760 -0.0171 -0.4921 -0.4668
  181SOPE  H13X20734   2.805   4.804   7.764 -2.5959 -1.3035 -1.7721
  181SOPE  H13Y20735   2.934   4.711   7.697 -1.9757 -1.3815 -3.7072
  181SOPE  C31420736   2.888   4.648   7.900 -0.3509 -0.5668  0.4646
  181SOPE  H14X20737   2.972   4.711   7.936 -0.0033  0.2222 -1.6092
  181SOPE  H14Y20738   2.925   4.546   7.876 -1.0586 -1.1729  1.8246
  181SOPE  C31520739   2.787   4.653   8.016  0.0385  0.4524  0.8353
  181SOPE  H15X20740   2.689   4.611   7.985 -0.4609  2.0450  0.1817
  181SOPE  H15Y20741   2.766   4.760   8.036 -2.9314  0.1286 -0.0122
  181SOPE  C31620742   2.829   4.568   8.138 -0.6733  0.6048 -0.2735
  181SOPE  H16X20743   2.928   4.599   8.180  0.1351 -1.2344 -0.7057
  181SOPE  H16Y20744   2.858   4.469   8.097  0.7782  0.9526 -0.1696
  181SOPE  C31720745   2.732   4.568   8.255  0.4430  0.1279 -0.2405
  181SOPE  H17X20746   2.625   4.563   8.225  0.5890 -1.5136 -0.6004
  181SOPE  H17Y20747   2.747   4.668   8.301  0.6124 -0.1653  0.3562
  181SOPE  C31820748   2.770   4.467   8.367  0.0150 -0.3712 -0.1503
  181SOPE  H18X20749   2.784   4.373   8.310  0.0114  0.6414 -1.9150
  181SOPE  H18Y20750   2.681   4.458   8.431 -0.3987 -1.1376 -0.8111
  181SOPE  H18Z20751   2.855   4.492   8.434 -0.3917 -1.5493  0.8291
  182SOPE     N20752   5.885   5.663   6.093 -0.0375 -0.3483 -0.3251
  182SOPE   HN120753   5.803   5.650   6.156  0.2438  0.9442  0.3468
  182SOPE   HN220754   5.895   5.581   6.030 -1.4156 -0.8175  0.0321
  182SOPE   HN320755   5.968   5.669   6.155 -0.1033 -1.7644 -0.0734
  182SOPE   C1220756   5.856   5.785   6.011  0.3349  0.4785 -0.3315
  182SOPE  H12A20757   5.847   5.752   5.906 -0.6392  0.0909 -0.1348
  182SOPE  H12B20758   5.950   5.845   6.015  0.8414 -0.3061 -0.2036
  182SOPE   C1120759   5.732   5.868   6.072  0.0922 -0.4840  0.1930
  182SOPE  H11A20760   5.716   5.964   6.018 -1.9870 -0.1085  1.3757
  182SOPE  H11B20761   5.750   5.901   6.177 -1.5627  4.0176 -0.6922
  182SOPE     P20762   5.554   5.718   6.189  0.1106 -0.1059  0.4566
  182SOPE   O1320763   5.659   5.617   6.219 -0.1035  0.6142  0.4848
  182SOPE   O1420764   5.421   5.660   6.167 -0.5383 -0.0234  0.3435
  182SOPE   O1220765   5.606   5.790   6.055 -0.2765 -0.1158 -0.4468
  182SOPE   O1120766   5.557   5.836   6.299  0.0966 -0.1923 -0.5727
  182SOPE    C120767   5.445   5.924   6.318 -0.2137 -0.4955 -0.1180
  182SOPE    HA20768   5.428   5.948   6.425 -1.6488 -2.1341  0.0636
  182SOPE    HB20769   5.350   5.872   6.294 -0.1854 -0.4566 -0.3193
  182SOPE    C220770   5.452   6.066   6.250 -0.3492  0.4197 -0.2813
  182SOPE    HS20771   5.466   6.044   6.142 -1.9730 -2.8757  0.0556
  182SOPE   O2120772   5.565   6.144   6.302 -0.3559 -0.1621 -0.2665
  182SOPE   C2120773   5.603   6.251   6.237  0.4993  0.3255  0.5519
  182SOPE   O2220774   5.578   6.275   6.118 -0.4167  0.0630 -0.2055
  182SOPE   C2220775   5.693   6.340   6.322 -0.5465 -0.2267 -0.3090
  182SOPE   H2R20776   5.797   6.345   6.282 -0.5505 -0.0195 -0.2911
  182SOPE   H2S20777   5.704   6.298   6.425  3.8990  2.0179  0.3880
  182SOPE    C320778   5.334   6.153   6.284  0.2979  0.1748  0.4495
  182SOPE    HX20779   5.240   6.103   6.252 -0.6969  0.9012  2.0449
  182SOPE    HY20780   5.334   6.247   6.225  2.0735 -0.0124  0.1108
  182SOPE   O3120781   5.314   6.192   6.422 -0.1464  0.2774  0.6054
  182SOPE   C3120782   5.226   6.123   6.490 -0.4081 -0.3918  0.1078
  182SOPE   O3220783   5.170   6.026   6.451 -0.1880  0.0724  0.1927
  182SOPE   C3220784   5.200   6.202   6.622  0.0120 -0.6787 -0.1934
  182SOPE   H2X20785   5.103   6.254   6.610  0.5790 -0.1476 -3.2994
  182SOPE   H2Y20786   5.273   6.285   6.629 -0.0880 -0.5942 -0.1622
  182SOPE   C2320787   5.639   6.485   6.343  0.2288  1.1170 -0.3922
  182SOPE   H3R20788   5.545   6.465   6.399  0.7216  0.7618  0.3279
  182SOPE   H3S20789   5.617   6.539   6.248  2.7046  0.6270 -1.2963
  182SOPE   C2420790   5.728   6.569   6.440 -0.1345  0.0603 -1.0102
  182SOPE   H4R20791   5.823   6.594   6.387  0.6827  1.2177  0.8804
  182SOPE   H4S20792   5.680   6.667   6.463 -1.6673 -0.5919 -1.3051
  182SOPE   C2520793   5.791   6.503   6.568  0.1266 -0.4923  0.7289
  182SOPE   H5R20794   5.857   6.418   6.540 -0.9702 -1.0323 -0.2765
  182SOPE   H5S20795   5.854   6.575   6.625  0.3328  0.1400 -0.2795
  182SOPE   C2620796   5.682   6.449   6.668  0.3938 -1.0107  0.8560
  182SOPE   H6R20797   5.626   6.532   6.716 -0.2068 -1.1587  0.4132
  182SOPE   H6S20798   5.601   6.399   6.612  0.7182 -0.9585  0.3328
  182SOPE   C2720799   5.721   6.353   6.780 -1.1163 -0.4264 -0.4245
  182SOPE   H7R20800   5.765   6.265   6.727  0.3880  0.5283 -0.8250
  182SOPE   H7S20801   5.802   6.402   6.839 -0.4935 -0.1538 -1.4795
  182SOPE   C2820802   5.611   6.292   6.870 -0.2594 -0.2232  0.1188
  182SOPE   H8R20803   5.526   6.261   6.806 -0.9389  3.4928 -1.0075
  182SOPE   H8S20804   5.648   6.194   6.905  0.8820 -0.4657 -1.6121
  182SOPE   C2920805   5.561   6.384   6.980  0.6790 -1.2861 -0.1064
  182SOPE   H9120806   5.455   6.410   6.969  1.6444  3.1274 -0.7806
  182SOPE  C21020807   5.629   6.450   7.078 -0.1727 -0.8852 -0.1307
  182SOPE  H10120808   5.575   6.514   7.149 -1.1312 -0.6246 -1.0777
  182SOPE  C21120809   5.779   6.439   7.114  0.0933  0.5091  0.4859
  182SOPE  H11R20810   5.831   6.537   7.111  0.7370  0.2300  1.9158
  182SOPE  H11S20811   5.828   6.365   7.047  1.6208  1.2402  0.7634
  182SOPE  C21220812   5.810   6.379   7.251  0.0386 -0.0851  0.5886
  182SOPE  H12R20813   5.920   6.365   7.262 -0.2842 -2.3793  1.2878
  182SOPE  H12S20814   5.775   6.274   7.255 -1.6939  0.4471  0.1509
  182SOPE  C21320815   5.767   6.469   7.365 -0.7891  0.2535 -0.9197
  182SOPE  H13R20816   5.659   6.487   7.344 -0.5980  0.6253 -1.6567
  182SOPE  H13S20817   5.813   6.570   7.369 -1.4582  0.5105  1.9227
  182SOPE  C21420818   5.758   6.401   7.505  0.2314  0.4539  0.0931
  182SOPE  H14R20819   5.675   6.327   7.509  0.0250  0.6220 -0.7769
  182SOPE  H14S20820   5.724   6.489   7.563 -2.7106 -0.6360  0.2050
  182SOPE  C21520821   5.898   6.351   7.545  0.0243 -0.6092  0.1791
  182SOPE  H15R20822   5.967   6.437   7.536  0.7484 -1.0862  1.0147
  182SOPE  H15S20823   5.932   6.279   7.467 -0.7801  1.4600 -2.2528
  182SOPE  C21620824   5.908   6.277   7.676 -0.3190  0.2613 -0.3797
  182SOPE  H16R20825   5.996   6.211   7.664 -0.8723 -0.5465 -0.0681
  182SOPE  H16S20826   5.813   6.222   7.688  0.1436 -0.4124  0.2140
  182SOPE  C21720827   5.944   6.375   7.794 -0.1887 -1.0182 -1.0520
  182SOPE  H17R20828   5.874   6.460   7.795  0.4485 -0.4360  1.3700
  182SOPE  H17S20829   6.049   6.409   7.779  0.9977 -4.4348 -1.5938
  182SOPE  C21820830   5.939   6.312   7.937  0.1253 -1.1031 -0.9098
  182SOPE  H18R20831   5.836   6.317   7.979 -0.1918 -0.8587 -1.7039
  182SOPE  H18S20832   6.004   6.372   8.005 -1.0108  0.3027 -1.0083
  182SOPE  H18T20833   5.959   6.203   7.937 -2.4444 -1.7146  1.7668
  182SOPE   C3320834   5.222   6.109   6.744  0.0040 -0.9418  0.2695
  182SOPE   H3X20835   5.317   6.052   6.734  1.7212  1.9573 -1.4947
  182SOPE   H3Y20836   5.137   6.038   6.754  0.1078 -0.8441  2.1654
  182SOPE   C3420837   5.228   6.208   6.862  0.5404  0.2319  0.1443
  182SOPE   H4X20838   5.127   6.248   6.888  0.9791  1.7904 -0.4351
  182SOPE   H4Y20839   5.295   6.295   6.849  0.2255  0.8005  2.0363
  182SOPE   C3520840   5.279   6.149   6.995 -0.0385 -0.5129 -0.2821
  182SOPE   H5X20841   5.388   6.132   6.983  0.6593  1.2890  2.5092
  182SOPE   H5Y20842   5.232   6.051   7.018  0.6533 -0.9549 -0.7101
  182SOPE   C3620843   5.249   6.251   7.104 -0.1182  0.1772 -0.2814
  182SOPE   H6X20844   5.143   6.250   7.135 -0.1706  2.4925 -0.1896
  182SOPE   H6Y20845   5.277   6.350   7.061  2.5521 -1.1220 -1.8404
  182SOPE   C3720846   5.330   6.221   7.229  0.7265 -1.0810 -0.1175
  182SOPE   H7X20847   5.438   6.206   7.206  0.6931  0.5304 -1.4217
  182SOPE   H7Y20848   5.298   6.130   7.285  2.1216 -0.9234  0.9903
  182SOPE   C3820849   5.322   6.340   7.330  0.3761 -0.0429  0.1487
  182SOPE   H8X20850   5.218   6.381   7.324 -0.1517 -1.5114 -3.0528
  182SOPE   H8Y20851   5.386   6.422   7.291 -1.0606  0.9728 -0.1963
  182SOPE   C3920852   5.371   6.297   7.474 -0.6104  0.1698  0.0284
  182SOPE   H9X20853   5.474   6.261   7.452 -1.0420 -0.6083 -0.8197
  182SOPE   H9Y20854   5.316   6.205   7.502  0.0941  0.1897  1.5516
  182SOPE  C31020855   5.356   6.401   7.582  0.8591 -0.6114 -0.0166
  182SOPE  H10X20856   5.250   6.433   7.575  1.0577 -0.1151 -0.7987
  182SOPE  H10Y20857   5.420   6.489   7.562  0.6070 -0.6376 -0.9884
  182SOPE  C31120858   5.401   6.355   7.721 -0.1609  0.1813 -0.4511
  182SOPE  H11X20859   5.508   6.328   7.706 -0.0757  0.3123 -0.0845
  182SOPE  H11Y20860   5.337   6.271   7.754 -2.7237  2.7404  1.6545
  182SOPE  C31220861   5.396   6.449   7.844 -0.5560 -0.2184  0.3787
  182SOPE  H12X20862   5.448   6.543   7.813 -0.7590 -0.5470 -1.0235
  182SOPE  H12Y20863   5.457   6.418   7.931  0.6126  1.0786  0.0630
  182SOPE  C31320864   5.248   6.467   7.887  0.7045 -0.0170 -0.1670
  182SOPE  H13X20865   5.203   6.373   7.925  0.6805  1.3642  3.6859
  182SOPE  H13Y20866   5.187   6.515   7.808 -0.0329 -1.2256 -0.3483
  182SOPE  C31420867   5.221   6.550   8.012 -0.4175 -0.3117  0.6279
  182SOPE  H14X20868   5.245   6.486   8.100 -1.0870 -0.0459  1.0096
  182SOPE  H14Y20869   5.111   6.561   8.022 -0.6061 -2.8032  2.2870
  182SOPE  C31520870   5.286   6.682   8.023 -0.4093 -0.4425  0.3164
  182SOPE  H15X20871   5.246   6.748   7.942 -0.0019 -0.3143  0.2173
  182SOPE  H15Y20872   5.397   6.671   8.020 -0.2343  0.5466  2.0748
  182SOPE  C31620873   5.256   6.761   8.156  0.0297 -0.2534 -0.1972
  182SOPE  H16X20874   5.303   6.706   8.240 -0.1955  2.2277  1.6680
  182SOPE  H16Y20875   5.148   6.763   8.184  0.5494 -0.0306  1.9548
  182SOPE  C31720876   5.314   6.897   8.156 -0.6454 -0.8594 -0.0110
  182SOPE  H17X20877   5.345   6.931   8.056 -1.3097 -0.8741 -0.2242
  182SOPE  H17Y20878   5.403   6.900   8.223 -1.3123 -1.9350  0.9873
  182SOPE  C31820879   5.222   7.009   8.215 -0.0404  0.5114  0.1449
  182SOPE  H18X20880   5.172   6.984   8.311 -4.2500  1.1796 -1.6741
  182SOPE  H18Y20881   5.141   7.015   8.140 -0.8473  0.6084  1.0046
  182SOPE  H18Z20882   5.260   7.111   8.234 -1.7237  1.3983 -1.0228
  183SOPE     N20883   5.191   4.183   5.906  0.5759  0.2758 -0.1483
  183SOPE   HN120884   5.157   4.123   5.829  0.2653 -3.2146  2.4381
  183SOPE   HN220885   5.151   4.279   5.897 -1.6614 -0.7731 -2.3598
  183SOPE   HN320886   5.293   4.196   5.893  0.7840  0.3958  1.3700
  183SOPE   C1220887   5.160   4.112   6.034  0.0422 -0.0411  0.0873
  183SOPE  H12A20888   5.180   4.003   6.028 -0.5019 -0.1596  0.3475
  183SOPE  H12B20889   5.053   4.123   6.062  0.2857  2.2882  0.3249
  183SOPE   C1120890   5.238   4.176   6.145 -0.3359 -0.6103 -0.2517
  183SOPE  H11A20891   5.233   4.115   6.237  1.1620  1.4548  1.2721
  183SOPE  H11B20892   5.189   4.273   6.166  0.7009  0.1902 -1.3743
  183SOPE     P20893   5.491   4.102   6.127  0.2741 -0.0028  0.1272
  183SOPE   O1320894   5.608   4.171   6.087  0.0372 -0.1575  0.5956
  183SOPE   O1420895   5.463   3.976   6.052 -0.6787 -1.5958 -0.5879
  183SOPE   O1220896   5.370   4.197   6.111 -0.3658 -0.3457  0.2832
  183SOPE   O1120897   5.503   4.084   6.281 -0.1683 -0.4575 -0.0924
  183SOPE    C120898   5.493   4.199   6.369 -0.0023  0.1766  0.2383
  183SOPE    HA20899   5.409   4.259   6.329  1.2342 -0.1482 -3.1343
  183SOPE    HB20900   5.586   4.260   6.362 -0.4803  0.7704 -1.3186
  183SOPE    C220901   5.474   4.167   6.517 -0.2131  0.2840  0.8916
  183SOPE    HS20902   5.401   4.243   6.554 -0.0690 -0.4421  2.7642
  183SOPE   O2120903   5.608   4.184   6.579  0.9691 -0.8117  0.0590
  183SOPE   C2120904   5.601   4.232   6.701  0.3738 -0.4168  0.3219
  183SOPE   O2220905   5.501   4.284   6.750  0.4845 -0.5971 -0.2294
  183SOPE   C2220906   5.731   4.207   6.778 -0.1469 -0.1804  0.2724
  183SOPE   H2R20907   5.811   4.242   6.710 -1.1438  2.4371  0.3315
  183SOPE   H2S20908   5.743   4.097   6.795  3.3538  0.1748  0.8490
  183SOPE    C320909   5.420   4.021   6.535  0.2773  0.0705 -0.1052
  183SOPE    HX20910   5.493   3.952   6.486  0.5497  1.5224 -1.8435
  183SOPE    HY20911   5.319   4.014   6.489 -0.3500 -1.6215  1.4019
  183SOPE   O3120912   5.408   3.989   6.679  0.1725 -0.8632  0.3758
  183SOPE   C3120913   5.287   3.991   6.732  0.1878  0.0894 -0.3987
  183SOPE   O3220914   5.186   4.023   6.673  0.2290  0.2015 -0.0750
  183SOPE   C3220915   5.295   3.953   6.881  0.3960  0.2229  1.3039
  183SOPE   H2X20916   5.382   4.006   6.927  0.6755  0.3989  0.5905
  183SOPE   H2Y20917   5.327   3.847   6.878  0.6299  0.3126 -0.4318
  183SOPE   C2320918   5.754   4.280   6.911  0.1818 -0.6804 -0.5899
  183SOPE   H3R20919   5.751   4.389   6.892 -0.3024 -0.7542 -0.9749
  183SOPE   H3S20920   5.856   4.260   6.949  0.4407 -2.2428 -1.9919
  183SOPE   C2420921   5.659   4.237   7.020  1.4143 -0.4474 -0.0948
  183SOPE   H4R20922   5.551   4.224   7.001  0.9391  0.2362  1.9053
  183SOPE   H4S20923   5.693   4.133   7.038 -0.2345 -0.7046  1.8253
  183SOPE   C2520924   5.667   4.313   7.156  0.2944 -0.6562  0.8288
  183SOPE   H5R20925   5.762   4.366   7.176  0.7485 -1.7117  1.5379
  183SOPE   H5S20926   5.596   4.399   7.148  1.0900  0.0048  0.8107
  183SOPE   C2620927   5.627   4.236   7.281 -0.1610 -0.4564  0.2051
  183SOPE   H6R20928   5.525   4.192   7.279 -0.6616  0.6077 -2.5352
  183SOPE   H6S20929   5.701   4.153   7.273  1.4417  1.0842 -2.1812
  183SOPE   C2720930   5.643   4.320   7.407 -0.3802  0.0338 -0.3553
  183SOPE   H7R20931   5.741   4.373   7.400 -0.0492 -0.4789  0.2945
  183SOPE   H7S20932   5.564   4.396   7.421 -1.9700 -1.7061  0.5936
  183SOPE   C2820933   5.643   4.237   7.543  0.2946 -0.0245  0.0917
  183SOPE   H8R20934   5.645   4.310   7.626 -2.4223 -2.9907  3.0906
  183SOPE   H8S20935   5.541   4.191   7.544  0.2489  0.0648  2.0621
  183SOPE   C2920936   5.754   4.136   7.550 -0.2799 -0.1493  0.1609
  183SOPE   H9120937   5.826   4.146   7.468 -1.2363  0.2604 -0.6479
  183SOPE  C21020938   5.767   4.046   7.642  0.4118  0.2750  0.6877
  183SOPE  H10120939   5.848   3.972   7.639  0.0506 -0.1676  1.4502
  183SOPE  C21120940   5.683   4.013   7.754  0.7241 -0.8167 -0.1019
  183SOPE  H11R20941   5.683   3.905   7.781  0.9664 -1.0323 -0.9387
  183SOPE  H11S20942   5.574   4.032   7.738 -0.0458 -3.1486  1.6715
  183SOPE  C21220943   5.738   4.096   7.877  0.5509 -0.3329  0.3232
  183SOPE  H12R20944   5.693   4.198   7.883  0.7004 -0.0802 -1.9742
  183SOPE  H12S20945   5.847   4.105   7.861  0.3711 -1.0109 -1.5733
  183SOPE  C21320946   5.736   4.009   8.007 -0.2575  0.3784  0.9034
  183SOPE  H13R20947   5.792   3.914   7.994  0.7686  1.1760 -0.8317
  183SOPE  H13S20948   5.629   3.981   8.007 -0.6180  1.7000  0.9955
  183SOPE  C21420949   5.794   4.083   8.130  0.0244 -0.1808  0.4913
  183SOPE  H14R20950   5.771   4.191   8.122  0.1034 -0.3046 -2.3771
  183SOPE  H14S20951   5.904   4.068   8.131 -0.0193 -1.0257 -1.6093
  183SOPE  C21520952   5.722   4.031   8.259 -0.5194  0.1749  0.5910
  183SOPE  H15R20953   5.732   3.921   8.265  1.4351  0.3279  0.7744
  183SOPE  H15S20954   5.613   4.040   8.242 -0.4769  2.8825  1.3597
  183SOPE  C21620955   5.774   4.090   8.399  0.3977  0.3464  0.0974
  183SOPE  H16R20956   5.741   4.191   8.432 -0.1782  0.9734 -2.2017
  183SOPE  H16S20957   5.883   4.099   8.383  0.1275  4.0182 -0.5313
  183SOPE  C21720958   5.742   3.995   8.515  0.1078  0.6100  0.4034
  183SOPE  H17R20959   5.770   3.892   8.486 -0.7050  0.1425  1.2094
  183SOPE  H17S20960   5.632   3.997   8.533  0.2337 -1.5484  1.7308
  183SOPE  C21820961   5.806   4.049   8.639 -0.0452 -0.0245  0.5996
  183SOPE  H18R20962   5.782   3.983   8.725 -1.4591 -2.3808 -1.4424
  183SOPE  H18S20963   5.752   4.141   8.670  0.1433  1.3373 -2.6666
  183SOPE  H18T20964   5.910   4.075   8.611 -0.1655  0.3499  0.4897
  183SOPE   C3320965   5.154   3.964   6.959  0.1795 -0.2622  0.0702
  183SOPE   H3X20966   5.085   3.899   6.901 -1.7464  1.6281  0.0751
  183SOPE   H3Y20967   5.117   4.069   6.963  1.7385  0.2685  1.4129
  183SOPE   C3420968   5.147   3.921   7.109 -0.4687 -0.1955  0.2534
  183SOPE   H4X20969   5.192   3.820   7.112 -1.6113 -0.9908 -3.4914
  183SOPE   H4Y20970   5.042   3.902   7.140 -1.2900  1.9949 -0.9664
  183SOPE   C3520971   5.204   4.028   7.196  0.0330 -0.2704  0.3386
  183SOPE   H5X20972   5.135   4.115   7.201  0.8644  0.4655 -0.5769
  183SOPE   H5Y20973   5.300   4.060   7.151  0.5044  0.3703  1.7164
  183SOPE   C3620974   5.242   3.986   7.334 -0.1615  0.5113  0.7273
  183SOPE   H6X20975   5.328   4.050   7.362  1.5094 -1.1248 -0.4328
  183SOPE   H6Y20976   5.290   3.887   7.325  1.6110  1.4187 -0.5050
  183SOPE   C3720977   5.130   3.980   7.434 -0.1743 -0.6803  0.1910
  183SOPE   H7X20978   5.044   3.922   7.396 -2.5165  1.9867  1.0640
  183SOPE   H7Y20979   5.084   4.081   7.437 -2.3291 -1.6483  2.3506
  183SOPE   C3820980   5.177   3.948   7.572  0.6182  0.2159 -0.8638
  183SOPE   H8X20981   5.243   3.859   7.579  1.7480  1.1526  1.2317
  183SOPE   H8Y20982   5.084   3.934   7.631  0.5687  0.6370 -0.8386
  183SOPE   C3920983   5.260   4.056   7.641 -0.2341  0.1319  0.3195
  183SOPE   H9X20984   5.224   4.161   7.630 -2.2311 -0.7337 -2.3473
  183SOPE   H9Y20985   5.364   4.056   7.601 -0.4374  2.9668 -0.4443
  183SOPE  C31020986   5.279   4.026   7.801 -0.3910  0.4074 -0.4309
  183SOPE  H10X20987   5.364   4.088   7.837 -0.2925  0.5357 -0.8722
  183SOPE  H10Y20988   5.300   3.918   7.814  1.3161  0.9479  1.9031
  183SOPE  C31120989   5.151   4.053   7.881  0.4081  0.3752 -0.5178
  183SOPE  H11X20990   5.056   4.016   7.837 -0.7808 -0.2924  2.4077
  183SOPE  H11Y20991   5.145   4.163   7.870  3.2779  0.4650 -2.5444
  183SOPE  C31220992   5.167   4.016   8.032  0.0029  0.1525  0.0482
  183SOPE  H12X20993   5.192   3.908   8.028  2.7302  0.4328  4.2233
  183SOPE  H12Y20994   5.074   4.030   8.091 -0.0644  0.1212 -0.0501
  183SOPE  C31320995   5.282   4.084   8.109 -0.3609 -0.4387  0.6121
  183SOPE  H13X20996   5.246   4.188   8.126 -0.4867  0.0917 -2.3581
  183SOPE  H13Y20997   5.372   4.096   8.046 -0.6518 -3.2315 -0.4906
  183SOPE  C31420998   5.317   4.035   8.246  0.3482 -0.1117 -0.2354
  183SOPE  H14X20999   5.383   3.946   8.250  0.6836  0.1666  0.7858
  183SOPE  H14Y21000   5.224   3.995   8.292 -0.6318  0.0422 -2.0045
  183SOPE  C31521001   5.373   4.156   8.325 -0.0189 -0.8703  0.1759
  183SOPE  H15X21002   5.434   4.225   8.262  1.9303 -1.5160  1.2574
  183SOPE  H15Y21003   5.443   4.100   8.390  0.7327 -2.5273 -1.9195
  183SOPE  C31621004   5.268   4.243   8.399  0.2003 -0.0304  0.1235
  183SOPE  H16X21005   5.167   4.264   8.357 -0.9834 -0.2993  2.6276
  183SOPE  H16Y21006   5.305   4.345   8.423 -0.7056  0.3990 -0.2547
  183SOPE  C31721007   5.227   4.175   8.528  0.1580  0.2285  0.0120
  183SOPE  H17X21008   5.322   4.133   8.569  0.7639 -0.0335 -1.5992
  183SOPE  H17Y21009   5.158   4.093   8.499 -0.5142  0.8094 -0.0453
  183SOPE  C31821010   5.157   4.266   8.619  0.4855  0.0272  0.4401
  183SOPE  H18X21011   5.067   4.312   8.573 -0.0523 -2.1002 -0.7538
  183SOPE  H18Y21012   5.214   4.355   8.651  0.0289  0.5746 -0.2500
  183SOPE  H18Z21013   5.125   4.224   8.717 -0.3711 -0.1570  0.0912
  184SOPE     N21014   3.874   4.334   6.044 -0.4870  0.0745  0.1629
  184SOPE   HN121015   3.952   4.275   6.080 -3.0365 -3.5591  0.3181
  184SOPE   HN221016   3.808   4.260   6.013 -1.0766 -0.8553  3.3096
  184SOPE   HN321017   3.893   4.393   5.960  0.2213 -1.2487 -0.6334
  184SOPE   C1221018   3.820   4.429   6.145  0.1568  0.9031 -0.2474
  184SOPE  H12A21019   3.909   4.459   6.204 -0.1231 -0.4967  0.9384
  184SOPE  H12B21020   3.739   4.377   6.201  1.1044 -1.7601 -1.1810
  184SOPE   C1121021   3.767   4.562   6.084  0.3208  0.4266  0.0769
  184SOPE  H11A21022   3.734   4.634   6.162  0.0929  0.5303 -0.1108
  184SOPE  H11B21023   3.678   4.534   6.022  1.2818 -1.0334 -0.7049
  184SOPE     P21024   3.976   4.718   6.034  0.3287  0.2853 -0.3570
  184SOPE   O1321025   4.013   4.796   5.913  0.1532 -0.0524 -0.3828
  184SOPE   O1421026   4.087   4.652   6.101 -0.2111 -0.2513 -0.4665
  184SOPE   O1221027   3.868   4.614   5.996  0.1558 -0.1045 -1.0732
  184SOPE   O1121028   3.919   4.814   6.140 -0.7382  0.3483  0.1089
  184SOPE    C121029   3.911   4.956   6.131 -0.3503  0.5662 -0.8656
  184SOPE    HA21030   3.818   4.987   6.183  0.6559  0.2656  1.2189
  184SOPE    HB21031   3.913   4.981   6.022  0.1334 -1.1101 -1.2626
  184SOPE    C221032   4.025   5.027   6.212  0.0086  0.1631  0.8506
  184SOPE    HS21033   4.121   4.977   6.187  0.1566  0.0803  1.5621
  184SOPE   O2121034   3.995   5.002   6.350 -0.1629 -0.1405 -0.0322
  184SOPE   C2121035   4.036   4.887   6.400 -0.3211 -0.8169 -0.6013
  184SOPE   O2221036   4.133   4.814   6.362  0.1056  0.1177 -0.1353
  184SOPE   C2221037   3.955   4.859   6.522  0.5528  0.1823  0.1818
  184SOPE   H2R21038   3.991   4.761   6.559  1.4194  0.2726 -0.3963
  184SOPE   H2S21039   3.851   4.848   6.483  1.6862  0.4003 -3.2324
  184SOPE    C321040   4.026   5.177   6.175 -0.2491 -0.0792 -0.3662
  184SOPE    HX21041   3.919   5.199   6.155  0.0390  2.9427  0.8059
  184SOPE    HY21042   4.080   5.172   6.078  1.7180 -1.9320  0.7318
  184SOPE   O3121043   4.087   5.273   6.269 -1.1504 -0.2062  0.2333
  184SOPE   C3121044   3.997   5.307   6.360 -0.1264 -0.1460 -0.6183
  184SOPE   O3221045   3.880   5.285   6.352  0.0199  0.1506  0.3559
  184SOPE   C3221046   4.063   5.370   6.485 -0.5525  0.1043  0.4458
  184SOPE   H2X21047   4.103   5.470   6.460  0.2473 -0.0531  1.0755
  184SOPE   H2Y21048   4.144   5.301   6.518  0.1845  0.3875 -0.7193
  184SOPE   C2321049   3.962   4.968   6.635  0.2426 -0.1846 -0.4767
  184SOPE   H3R21050   3.909   5.059   6.600  1.2522  0.5201 -0.2223
  184SOPE   H3S21051   4.068   4.999   6.639  0.0283  0.7732 -1.6940
  184SOPE   C2421052   3.917   4.939   6.781 -0.4727  0.1697  0.7035
  184SOPE   H4R21053   3.958   4.839   6.805  0.5969  0.2604 -0.6561
  184SOPE   H4S21054   3.960   5.023   6.841 -2.2864  2.3268 -0.8398
  184SOPE   C2521055   3.765   4.945   6.814 -0.8614 -0.6831 -0.2234
  184SOPE   H5R21056   3.737   5.047   6.780  0.4468 -0.3350 -0.3411
  184SOPE   H5S21057   3.709   4.870   6.755 -2.3124  0.1162  0.0977
  184SOPE   C2621058   3.735   4.927   6.966 -0.3074 -0.4839 -0.1758
  184SOPE   H6R21059   3.770   4.823   6.985  2.1758  0.3539  0.3090
  184SOPE   H6S21060   3.797   4.992   7.032 -0.2538 -2.1921  1.5656
  184SOPE   C2721061   3.584   4.941   7.000 -0.2509  0.8260  0.3627
  184SOPE   H7R21062   3.553   5.043   6.969 -2.4279  0.3521  0.8280
  184SOPE   H7S21063   3.542   4.865   6.930 -1.4477  2.0558 -0.2847
  184SOPE   C2821064   3.559   4.902   7.151  0.0556  0.1899 -0.4339
  184SOPE   H8R21065   3.611   4.974   7.217 -0.1353 -1.8670  2.1418
  184SOPE   H8S21066   3.450   4.918   7.169 -0.3985 -1.5460 -1.3877
  184SOPE   C2921067   3.605   4.766   7.193 -0.6922  0.3390 -0.1111
  184SOPE   H9121068   3.642   4.703   7.110  0.5104  3.3296 -1.9872
  184SOPE  C21021069   3.618   4.716   7.317 -0.3597 -0.2685 -0.0166
  184SOPE  H10121070   3.637   4.609   7.329 -0.5813 -0.2211  0.7761
  184SOPE  C21121071   3.567   4.787   7.445  0.1874  0.0851 -0.0548
  184SOPE  H11R21072   3.526   4.717   7.521  0.1682 -0.2505 -0.3709
  184SOPE  H11S21073   3.490   4.866   7.430  1.8698  1.9463  0.7059
  184SOPE  C21221074   3.682   4.862   7.506  0.4707 -0.2124  0.1450
  184SOPE  H12R21075   3.714   4.945   7.440 -0.9155  1.6899  1.7529
  184SOPE  H12S21076   3.772   4.801   7.530  0.8281 -0.0726 -0.8219
  184SOPE  C21321077   3.638   4.912   7.636  0.4024 -0.0687 -0.0435
  184SOPE  H13R21078   3.553   4.984   7.635 -0.3500 -0.9262  0.4377
  184SOPE  H13S21079   3.712   4.987   7.672 -0.5027  1.2566 -0.8556
  184SOPE  C21421080   3.618   4.806   7.749 -0.6065 -0.4996 -0.6674
  184SOPE  H14R21081   3.708   4.742   7.761 -0.5575 -0.2559  0.3453
  184SOPE  H14S21082   3.533   4.736   7.735 -1.2093 -0.2527  1.4864
  184SOPE  C21521083   3.595   4.889   7.883  0.1691 -0.1358  0.0337
  184SOPE  H15R21084   3.561   4.989   7.849  1.5323  1.0512  1.9840
  184SOPE  H15S21085   3.696   4.901   7.927  2.0338 -2.1888 -3.2831
  184SOPE  C21621086   3.490   4.824   7.972 -0.7989  0.3569 -0.0083
  184SOPE  H16R21087   3.516   4.724   8.013 -2.0954 -0.5238 -1.2393
  184SOPE  H16S21088   3.399   4.804   7.913 -1.1172 -2.0746  1.1449
  184SOPE  C21721089   3.472   4.908   8.092 -0.2300 -0.5075 -0.3340
  184SOPE  H17R21090   3.437   5.002   8.045 -1.1238  0.5049  2.1872
  184SOPE  H17S21091   3.576   4.927   8.127  0.2739 -0.4785 -1.7565
  184SOPE  C21821092   3.372   4.875   8.204 -0.1609 -0.1454  0.7752
  184SOPE  H18R21093   3.375   4.950   8.286 -0.3301 -1.2319  1.8122
  184SOPE  H18S21094   3.392   4.785   8.266 -3.0784 -0.7871  0.9227
  184SOPE  H18T21095   3.275   4.847   8.158  1.2931 -2.2626 -1.2899
  184SOPE   C3321096   3.967   5.385   6.604  1.3982  0.3847  0.3283
  184SOPE   H3X21097   3.942   5.283   6.640  0.8472  0.1432 -0.6988
  184SOPE   H3Y21098   3.874   5.431   6.563  2.0860 -0.2284 -2.0986
  184SOPE   C3421099   4.028   5.473   6.710  0.4573  0.7597 -0.7047
  184SOPE   H4X21100   4.053   5.570   6.661 -0.8737  0.4151 -2.1126
  184SOPE   H4Y21101   4.128   5.439   6.745  0.4054  0.9294 -0.3894
  184SOPE   C3521102   3.943   5.510   6.829  0.1809  0.3022 -0.5966
  184SOPE   H5X21103   3.847   5.564   6.809 -1.1257 -1.1798  1.2907
  184SOPE   H5Y21104   3.999   5.578   6.896 -0.6714 -3.1980  4.1351
  184SOPE   C3621105   3.910   5.379   6.909 -0.7748  0.6846 -0.3252
  184SOPE   H6X21106   4.009   5.345   6.945 -0.9755 -0.4218 -0.7814
  184SOPE   H6Y21107   3.860   5.311   6.836 -0.0940 -0.2583  0.0764
  184SOPE   C3721108   3.815   5.412   7.026 -0.5329 -0.7156 -0.2779
  184SOPE   H7X21109   3.712   5.435   6.989 -0.3182 -1.3104 -1.2532
  184SOPE   H7Y21110   3.862   5.486   7.094  0.4021  0.3802 -2.0587
  184SOPE   C3821111   3.801   5.288   7.112 -0.5486 -0.3560 -0.3793
  184SOPE   H8X21112   3.896   5.231   7.121 -0.3123  0.0087 -0.5449
  184SOPE   H8Y21113   3.731   5.213   7.068 -1.5038  0.5421 -0.4370
  184SOPE   C3921114   3.771   5.327   7.257  0.8647  0.1658  0.6462
  184SOPE   H9X21115   3.847   5.403   7.281  0.3367  1.4746 -1.5303
  184SOPE   H9Y21116   3.767   5.252   7.339 -3.7849  0.9720  1.4568
  184SOPE  C31021117   3.634   5.392   7.277 -0.1547  0.9515 -0.2611
  184SOPE  H10X21118   3.571   5.326   7.213  2.1159 -0.5408 -1.0702
  184SOPE  H10Y21119   3.628   5.489   7.222 -2.2672  0.5797 -0.7804
  184SOPE  C31121120   3.578   5.407   7.418 -0.8219  0.1950  0.0253
  184SOPE  H11X21121   3.473   5.437   7.395 -1.0078 -0.3353  0.1553
  184SOPE  H11Y21122   3.638   5.481   7.474  0.2404  0.0511 -0.8989
  184SOPE  C31221123   3.558   5.274   7.490 -0.5474 -0.3033 -0.3106
  184SOPE  H12X21124   3.646   5.222   7.534  0.0437 -0.3565 -1.4938
  184SOPE  H12Y21125   3.508   5.206   7.417 -0.0512  1.0080 -1.9415
  184SOPE  C31321126   3.473   5.288   7.623 -0.2590 -0.4949 -0.1026
  184SOPE  H13X21127   3.432   5.186   7.634 -2.2383  0.2324 -0.3681
  184SOPE  H13Y21128   3.385   5.351   7.597 -0.8074 -0.8620  0.8354
  184SOPE  C31421129   3.535   5.347   7.752 -0.9195  0.1197  0.4092
  184SOPE  H14X21130   3.565   5.454   7.744  3.6540 -0.8856  1.3271
  184SOPE  H14Y21131   3.623   5.286   7.781 -1.4275 -0.0961  1.5640
  184SOPE  C31521132   3.447   5.309   7.870  0.6868  0.1000  0.6040
  184SOPE  H15X21133   3.438   5.199   7.880 -0.1612  0.0600 -0.4526
  184SOPE  H15Y21134   3.341   5.338   7.856  0.0797 -1.7325  1.1543
  184SOPE  C31621135   3.500   5.367   7.994 -0.7647  0.3539 -0.5022
  184SOPE  H16X21136   3.496   5.478   7.994 -0.0779  0.4231 -2.7180
  184SOPE  H16Y21137   3.607   5.340   8.012 -0.9333 -0.5179 -0.7638
  184SOPE  C31721138   3.429   5.302   8.116 -0.0277 -0.1336  0.0099
  184SOPE  H17X21139   3.472   5.349   8.207 -0.5723 -2.2883  1.4765
  184SOPE  H17Y21140   3.429   5.193   8.138  0.3332  0.3164  2.5845
  184SOPE  C31821141   3.273   5.329   8.116 -0.1353 -0.5569 -0.4742
  184SOPE  H18X21142   3.238   5.301   8.218 -1.0297 -1.9706 -1.1428
  184SOPE  H18Y21143   3.218   5.255   8.054 -1.6334  1.3230 -1.5009
  184SOPE  H18Z21144   3.248   5.435   8.092  1.1319 -0.7599 -2.9564
  185SAPI   C1221145   6.374   2.208  10.768  0.1202 -0.3735 -0.7696
  185SAPI    H221146   6.265   2.227  10.783  0.1467 -1.6599  1.5591
  185SAPI    O221147   6.430   2.205  10.895 -0.1376  0.7078 -0.6384
  185SAPI   HO221148   6.360   2.217  10.960 -2.1944 -1.7625 -2.2664
  185SAPI   C1321149   6.382   2.087  10.686 -0.6254 -0.3154  0.1132
  185SAPI    H321150   6.346   2.106  10.583 -0.2016  0.1396  0.0426
  185SAPI    O321151   6.314   1.978  10.750  0.1617 -0.0646 -0.0861
  185SAPI   HO321152   6.227   1.968  10.711  0.0865  0.5934 -0.1055
  185SAPI   C1421153   6.529   2.051  10.664 -0.1314 -0.1076 -0.5397
  185SAPI    H421154   6.561   2.008  10.762 -0.9783  1.3656  0.4159
  185SAPI    O421155   6.542   1.950  10.562 -0.1976 -0.4625  0.5967
  185SAPI   HO421156   6.471   1.887  10.577 -0.2977 -0.3477  0.6105
  185SAPI   C1521157   6.629   2.169  10.648  0.0784 -0.2453  0.5169
  185SAPI    H521158   6.636   2.168  10.538 -1.7574 -0.6452  0.3775
  185SAPI    O521159   6.757   2.151  10.687 -0.0971 -0.0865  0.1958
  185SAPI   HO521160   6.790   2.204  10.760  1.8896 -0.4044 -0.4007
  185SAPI   C1621161   6.578   2.312  10.686 -0.1034  0.3886 -0.3268
  185SAPI    H621162   6.627   2.333  10.784 -0.9218  0.0216  0.1713
  185SAPI    O621163   6.624   2.422  10.597 -0.2093 -0.1614  0.3125
  185SAPI   HO621164   6.571   2.501  10.606  1.8503  1.6108 -1.9812
  185SAPI   C1121165   6.429   2.327  10.700  0.3149 -0.1216  0.3744
  185SAPI    H121166   6.376   2.342  10.603  1.3194 -0.4523 -0.2436
  185SAPI     P21167   6.357   2.593  10.729  0.1533 -0.2693  0.0555
  185SAPI   O1321168   6.338   2.693  10.837 -0.1956  0.1527  0.1539
  185SAPI   O1421169   6.241   2.577  10.636  0.2447  0.3552  0.0348
  185SAPI   O1221170   6.400   2.443  10.783 -0.2313 -0.2190  0.5360
  185SAPI   O1121171   6.480   2.649  10.645 -0.2486 -0.0322 -0.1437
  185SAPI    C121172   6.456   2.733  10.532  0.2085 -0.2928  0.4931
  185SAPI    HA21173   6.364   2.795  10.540 -1.4237 -2.5830  0.4518
  185SAPI    HB21174   6.533   2.813  10.531  0.2398 -0.3027  1.5124
  185SAPI    C221175   6.436   2.656  10.405  0.5726  0.5354  0.5209
  185SAPI    HS21176   6.354   2.585  10.427 -0.6238  0.6112 -2.9569
  185SAPI   O2121177   6.559   2.590  10.367 -0.0286 -0.1794  0.1680
  185SAPI   C2121178   6.551   2.472  10.318  0.1237  0.1937  0.5603
  185SAPI   O2221179   6.450   2.405  10.306 -0.4319  0.3339  0.1151
  185SAPI   C2221180   6.691   2.428  10.274 -0.0356 -0.0245  0.3360
  185SAPI   H2R21181   6.739   2.427  10.375 -1.1910 -2.7179  0.9618
  185SAPI   H2S21182   6.689   2.322  10.239  1.1640 -0.7419  2.2469
  185SAPI    C321183   6.380   2.741  10.286 -0.0477 -0.4716 -0.1789
  185SAPI    HX21184   6.437   2.835  10.274 -2.3587  0.9912 -0.2952
  185SAPI    HY21185   6.280   2.784  10.310  0.1881  1.4297 -2.2346
  185SAPI   O3121186   6.352   2.660  10.169  0.2101  0.4461  0.2656
  185SAPI   C3121187   6.430   2.684  10.066 -0.4636  0.3846 -0.9357
  185SAPI   O3221188   6.526   2.762  10.068  0.2417 -0.0826 -0.2902
  185SAPI   C3221189   6.404   2.585   9.942 -0.2584 -0.6010  0.2252
  185SAPI   H2X21190   6.303   2.546   9.963 -0.3843 -0.7604 -0.6250
  185SAPI   H2Y21191   6.481   2.505   9.950  1.1801  0.6153 -0.7831
  185SAPI   C2321192   6.770   2.518  10.173  0.1597  1.4897  0.3056
  185SAPI   H3R21193   6.768   2.620  10.216 -1.6925  0.9267  1.7056
  185SAPI   H3S21194   6.718   2.517  10.074 -0.3993 -1.5651  0.5332
  185SAPI   C2421195   6.918   2.478  10.157  0.4032 -0.4017 -0.0701
  185SAPI   H4R21196   6.970   2.476  10.255 -1.1669 -0.7024  0.7747
  185SAPI   H4S21197   6.953   2.558  10.088 -1.7568 -1.8258 -3.0697
  185SAPI   C2521198   6.937   2.350  10.086  0.6862  0.4899 -0.6201
  185SAPI   H5R21199   6.920   2.262  10.149  1.8935  1.6447  1.4042
  185SAPI   C2621200   6.985   2.334   9.963  0.0389 -0.1999 -0.0767
  185SAPI   H6R21201   6.993   2.231   9.924 -0.5313 -0.6182  0.8975
  185SAPI   C2721202   7.025   2.447   9.873 -0.2271 -0.6030 -0.3009
  185SAPI   H7R21203   7.101   2.518   9.911 -0.7040  1.7313 -3.3449
  185SAPI   H7S21204   6.937   2.515   9.864  0.7089  0.7661  0.4744
  185SAPI   C2821205   7.068   2.398   9.732 -0.0621  0.2813  0.1254
  185SAPI   H8R21206   7.178   2.395   9.724  0.2567 -2.1384  3.3376
  185SAPI   C2921207   6.998   2.409   9.622  0.7666  0.6966 -0.0061
  185SAPI   H9R21208   7.048   2.386   9.527 -0.6337 -2.7213 -0.0530
  185SAPI  C21021209   6.846   2.427   9.623  0.1021  0.2717  0.0962
  185SAPI  H10R21210   6.832   2.512   9.552  1.2225  0.5859  0.2289
  185SAPI  H10S21211   6.797   2.463   9.716  0.0841  0.1858  0.1192
  185SAPI  C21121212   6.768   2.313   9.571 -0.5446  0.0686 -0.5115
  185SAPI  H11R21213   6.819   2.265   9.487  0.9155  1.9227 -0.7625
  185SAPI  C21221214   6.649   2.269   9.622 -0.4665  0.2362  0.3117
  185SAPI  H12R21215   6.596   2.178   9.590  0.3473 -0.7153  1.5417
  185SAPI  C21321216   6.577   2.342   9.731 -0.2427 -0.2727 -0.2190
  185SAPI  H13R21217   6.579   2.452   9.717 -1.1017 -0.3148 -0.7190
  185SAPI  H13S21218   6.638   2.311   9.819 -2.5536 -0.0966  1.5380
  185SAPI  C21421219   6.437   2.290   9.760 -0.1137  0.4561  1.0549
  185SAPI  H14R21220   6.426   2.256   9.864  1.1882 -1.7493  0.5208
  185SAPI  C21521221   6.346   2.258   9.671  0.8976  0.2831 -0.7080
  185SAPI  H15R21222   6.261   2.200   9.711 -0.1634  2.9086  1.1336
  185SAPI  C21621223   6.342   2.272   9.521  0.5908 -0.5867  0.3947
  185SAPI  H16R21224   6.362   2.180   9.463  1.5541  1.0352 -1.9875
  185SAPI  H16S21225   6.417   2.347   9.488  1.4322 -0.4749  2.3867
  185SAPI  C21721226   6.200   2.330   9.485 -0.5350 -0.1599  0.3513
  185SAPI  H17R21227   6.189   2.437   9.512 -2.1532 -0.5153  1.2325
  185SAPI  H17S21228   6.118   2.267   9.525 -0.2052 -1.9510 -1.5666
  185SAPI  C21821229   6.167   2.332   9.335 -0.5661  0.0550  0.3736
  185SAPI  H18R21230   6.201   2.233   9.297  2.2313 -0.3918  3.5540
  185SAPI  H18S21231   6.220   2.417   9.287  1.4576 -0.9731  0.6484
  185SAPI  C21921232   6.014   2.341   9.319 -1.0368  0.4249 -0.5836
  185SAPI  H19R21233   5.978   2.444   9.339 -0.1877  0.9365 -1.6189
  185SAPI  H19S21234   5.971   2.266   9.388  1.7081 -1.1291 -0.4175
  185SAPI  C22021235   5.976   2.315   9.176  0.5846  0.2565  0.7910
  185SAPI  H20R21236   5.996   2.212   9.141 -1.3719 -0.7576  2.4462
  185SAPI  H20S21237   6.015   2.385   9.099 -1.8332  1.1278  0.2632
  185SAPI  H20T21238   5.866   2.322   9.166  0.1811 -1.1942  3.2989
  185SAPI   C3321239   6.427   2.657   9.805  0.1395  0.0717 -0.0340
  185SAPI   H3X21240   6.425   2.583   9.721 -0.2573 -0.6068  0.5631
  185SAPI   H3Y21241   6.526   2.708   9.797  0.4131 -0.5016 -0.4030
  185SAPI   C3421242   6.306   2.735   9.758  0.3714  0.4746  0.3311
  185SAPI   H4X21243   6.241   2.757   9.846  1.0279  1.2589  0.6362
  185SAPI   H4Y21244   6.239   2.695   9.679 -0.0154  0.6657  0.5572
  185SAPI   C3521245   6.346   2.872   9.702 -0.1317  0.3638  0.1978
  185SAPI   H5X21246   6.387   2.921   9.793  0.4111 -1.0915  0.7666
  185SAPI   H5Y21247   6.252   2.926   9.676 -1.1487 -0.5222  1.8477
  185SAPI   C3621248   6.443   2.864   9.585  0.6057 -0.1665  0.0415
  185SAPI   H6X21249   6.539   2.822   9.622  1.0467  0.7486 -0.0412
  185SAPI   H6Y21250   6.476   2.960   9.540 -0.5149  0.1294 -0.1819
  185SAPI   C3721251   6.385   2.790   9.466  0.1565  0.0619 -0.1319
  185SAPI   H7X21252   6.277   2.813   9.457  0.2846  1.0396  0.7268
  185SAPI   H7Y21253   6.397   2.680   9.477  3.0283  0.0985 -1.8282
  185SAPI   C3821254   6.459   2.823   9.330 -0.2673 -0.7067 -0.3135
  185SAPI   H8X21255   6.568   2.830   9.353 -0.2524  1.5063 -0.8040
  185SAPI   H8Y21256   6.439   2.928   9.301  1.7363 -0.4476 -0.9224
  185SAPI   C3921257   6.423   2.723   9.222  0.5859 -0.1786 -0.8087
  185SAPI   H9X21258   6.312   2.719   9.228  0.6462 -2.2812  0.0008
  185SAPI   H9Y21259   6.457   2.620   9.249 -0.3250 -0.2400  0.1728
  185SAPI  C31021260   6.455   2.754   9.082 -0.0412  1.0040 -0.0086
  185SAPI  H10X21261   6.563   2.735   9.061 -0.3751 -0.0778 -0.8568
  185SAPI  H10Y21262   6.433   2.862   9.067 -0.5859  0.7703 -0.9722
  185SAPI  C31121263   6.380   2.663   8.986  0.1362  0.4413 -0.6953
  185SAPI  H11X21264   6.274   2.655   9.019  0.1952 -0.6155 -0.7377
  185SAPI  H11Y21265   6.431   2.565   8.995 -0.6975 -0.0777 -1.5141
  185SAPI  C31221266   6.391   2.714   8.838  0.3314  0.1684  0.2679
  185SAPI  H12X21267   6.498   2.737   8.817  0.5685 -1.4822 -0.4966
  185SAPI  H12Y21268   6.333   2.809   8.838  0.8923  0.5874  3.3362
  185SAPI  C31321269   6.345   2.606   8.737  0.2013 -0.1288 -0.5995
  185SAPI  H13X21270   6.234   2.594   8.741 -0.1750  2.0850 -2.3543
  185SAPI  H13Y21271   6.398   2.512   8.759  0.0066 -0.3496 -1.0696
  185SAPI  C31421272   6.378   2.664   8.599  0.1487 -0.1596 -0.0542
  185SAPI  H14X21273   6.345   2.770   8.590 -1.8821 -0.7415  0.0226
  185SAPI  H14Y21274   6.316   2.614   8.521  0.9653 -1.9419  0.3762
  185SAPI  C31521275   6.520   2.639   8.547 -0.1706  0.5939 -0.1313
  185SAPI  H15X21276   6.527   2.530   8.525 -0.6936  0.2594  1.2599
  185SAPI  H15Y21277   6.573   2.667   8.641 -0.4286 -0.7145  0.4178
  185SAPI  C31621278   6.567   2.732   8.435 -0.6964 -0.7813  0.0202
  185SAPI  H16X21279   6.523   2.832   8.454 -1.1652 -0.8844 -0.4664
  185SAPI  H16Y21280   6.530   2.709   8.332  1.9987 -1.1456 -0.9378
  185SAPI  C31721281   6.715   2.742   8.420  0.4706 -0.8441  0.2984
  185SAPI  H17X21282   6.752   2.639   8.401  0.7367 -0.6765 -0.1203
  185SAPI  H17Y21283   6.761   2.786   8.511 -1.2049  3.0604 -0.5198
  185SAPI  C31821284   6.768   2.823   8.302  0.1123 -0.5138  0.1684
  185SAPI  H18X21285   6.724   2.792   8.205 -2.6333 -3.0135  2.0470
  185SAPI  H18Y21286   6.878   2.817   8.314  0.2996  0.9890 -0.5007
  185SAPI  H18Z21287   6.747   2.930   8.325  3.5347 -0.0885  2.0172
  186SAPI   C1221288   0.610   0.513  10.330 -0.9374  0.9229 -0.0397
  186SAPI    H221289   0.655   0.523  10.229 -2.1011 -0.4314 -0.7186
  186SAPI    O221290   0.617   0.382  10.386 -0.1255 -0.4885 -0.0862
  186SAPI   HO221291   0.698   0.348  10.348  1.2417  1.6507  0.7110
  186SAPI   C1321292   0.689   0.618  10.413 -0.2087  0.7423 -0.4452
  186SAPI    H321293   0.667   0.718  10.372  1.2212  0.7657 -1.2419
  186SAPI    O321294   0.826   0.601  10.403 -0.3067 -0.2515  0.7899
  186SAPI   HO321295   0.842   0.510  10.379 -1.3533 -0.5755  1.2853
  186SAPI   C1421296   0.649   0.625  10.559 -0.2512  0.2295 -0.0488
  186SAPI    H421297   0.674   0.526  10.603 -2.0579 -0.3571 -0.2599
  186SAPI    O421298   0.717   0.721  10.640  0.2297 -0.2148  0.3718
  186SAPI   HO421299   0.719   0.811  10.605  0.5468 -0.2100  0.4030
  186SAPI   C1521300   0.497   0.621  10.584 -0.0730 -0.3090 -0.2970
  186SAPI    H521301   0.463   0.725  10.598 -2.1978 -1.0093  0.1420
  186SAPI    O521302   0.458   0.557  10.712  0.3591  0.1932  0.5514
  186SAPI   HO521303   0.453   0.626  10.779 -0.0053 -1.2433  2.0595
  186SAPI   C1621304   0.413   0.564  10.474  0.5528 -0.2859  0.5193
  186SAPI    H621305   0.377   0.461  10.495  0.3951 -0.3170  0.1023
  186SAPI    O621306   0.286   0.632  10.469 -0.5866  0.3100 -0.1680
  186SAPI   HO621307   0.247   0.621  10.382  0.1851 -2.4415 -0.2689
  186SAPI   C1121308   0.465   0.555  10.327  0.1565 -0.3667 -0.2799
  186SAPI    H121309   0.480   0.656  10.282  1.5662 -0.2473  0.3859
  186SAPI     P21310   0.254   0.538  10.154  0.4161  0.1919  0.2986
  186SAPI   O1321311   0.171   0.617  10.247  0.2293 -0.3114  0.7699
  186SAPI   O1421312   0.181   0.420  10.091 -0.0348  0.7858  0.0878
  186SAPI   O1221313   0.389   0.473  10.229 -0.2345 -0.2949 -0.3934
  186SAPI   O1121314   0.317   0.637  10.041  0.6627 -0.3721 -0.2292
  186SAPI    C121315   0.424   0.602   9.956  0.4707 -0.9447 -0.5825
  186SAPI    HA21316   0.511   0.670   9.974  0.8426 -1.7384  0.7610
  186SAPI    HB21317   0.459   0.498   9.969  3.2010  0.0203  0.4242
  186SAPI    C221318   0.388   0.617   9.800  0.7113  0.4757 -0.3575
  186SAPI    HS21319   0.340   0.715   9.779 -1.8461 -0.4203  0.8173
  186SAPI   O2121320   0.293   0.509   9.767  0.1151  0.1670  0.1684
  186SAPI   C2121321   0.183   0.540   9.707  0.0035 -0.0880 -0.1432
  186SAPI   O2221322   0.134   0.652   9.693 -0.1797  0.5170  0.4241
  186SAPI   C2221323   0.108   0.409   9.671  0.6456 -0.3961  0.2338
  186SAPI   H2R21324   0.156   0.320   9.718  0.9547 -0.0598  0.5662
  186SAPI   H2S21325   0.009   0.428   9.718  1.8840  1.9480  2.0655
  186SAPI    C321326   0.508   0.593   9.712  0.2723 -0.1768 -0.0712
  186SAPI    HX21327   0.562   0.504   9.750  3.3730  2.3393  1.9715
  186SAPI    HY21328   0.575   0.680   9.730  0.9720 -0.8221  0.4985
  186SAPI   O3121329   0.487   0.601   9.572  0.4681  0.4290  0.4028
  186SAPI   C3121330   0.594   0.561   9.508  0.0356  0.3935  0.3663
  186SAPI   O3221331   0.689   0.502   9.561  0.0410 -0.3861 -0.1155
  186SAPI   C3221332   0.600   0.580   9.356  0.3633 -0.0537  0.1604
  186SAPI   H2X21333   0.593   0.690   9.348 -1.2716 -0.0745  0.8913
  186SAPI   H2Y21334   0.509   0.534   9.311 -1.4459  3.0505  0.4304
  186SAPI   C2321335   0.111   0.387   9.512  0.0388  0.2008 -0.3679
  186SAPI   H3R21336   0.061   0.480   9.478  0.2536  0.3288 -0.3353
  186SAPI   H3S21337   0.037   0.307   9.492 -0.2862  0.5470 -0.5676
  186SAPI   C2421338   0.246   0.379   9.437 -0.2910 -0.1948  0.0080
  186SAPI   H4R21339   0.324   0.336   9.504  0.8315 -2.9722 -2.8132
  186SAPI   H4S21340   0.273   0.483   9.407 -0.9176  0.7504  2.4774
  186SAPI   C2521341   0.242   0.291   9.311  0.6506  0.7580 -0.2077
  186SAPI   H5R21342   0.268   0.186   9.330 -2.0031  0.5638  3.6286
  186SAPI   C2621343   0.205   0.329   9.186  0.1668 -0.2775 -0.2343
  186SAPI   H6R21344   0.222   0.261   9.101 -0.8553 -1.0537  0.1631
  186SAPI   C2721345   0.164   0.470   9.151 -0.1558 -0.4375  0.0862
  186SAPI   H7R21346   0.103   0.503   9.238 -0.1966 -1.5221  0.4808
  186SAPI   H7S21347   0.081   0.470   9.077 -1.2363  0.0048  1.2496
  186SAPI   C2821348   0.280   0.552   9.098  0.8630  0.2040 -0.2162
  186SAPI   H8R21349   0.332   0.612   9.173  0.5626  0.4496 -0.2017
  186SAPI   C2921350   0.329   0.553   8.975 -0.1015  0.5985  0.4917
  186SAPI   H9R21351   0.413   0.615   8.944  2.3836 -1.7354  2.1109
  186SAPI  C21021352   0.262   0.492   8.851  0.1730 -0.2236  0.2302
  186SAPI  H10R21353   0.153   0.480   8.870  0.2852 -0.6112  0.6710
  186SAPI  H10S21354   0.300   0.389   8.832 -2.3353 -0.7626 -2.4992
  186SAPI  C21121355   0.277   0.575   8.725  0.0432  0.5125  0.1762
  186SAPI  H11R21356   0.338   0.665   8.737 -2.8360  2.6607 -0.1435
  186SAPI  C21221357   0.222   0.535   8.609 -0.0101  0.8774  0.1509
  186SAPI  H12R21358   0.219   0.594   8.516 -1.3463 -2.0956 -1.8578
  186SAPI  C21321359   0.137   0.411   8.588 -0.4899  0.0911 -0.7078
  186SAPI  H13R21360   0.049   0.446   8.530 -0.2477 -2.0876 -2.5285
  186SAPI  H13S21361   0.094   0.366   8.681  0.0213 -0.8313 -0.8982
  186SAPI  C21421362   0.210   0.315   8.500 -0.5716 -0.5802  0.5702
  186SAPI  H14R21363   0.306   0.357   8.468 -0.1011 -1.6378  0.5576
  186SAPI  C21521364   0.199   0.181   8.496 -0.5462 -0.5724  0.1118
  186SAPI  H15R21365   0.257   0.129   8.420  0.4272 -1.8319  1.6592
  186SAPI  C21621366   0.087   0.105   8.563 -0.6384  0.2194 -0.1722
  186SAPI  H16R21367   0.062   0.014   8.503 -1.5585 -0.0059  0.5286
  186SAPI  H16S21368  -0.014   0.152   8.559 -2.0187 -2.4650  0.5437
  186SAPI  C21721369   0.118   0.071   8.709 -0.6786 -0.2824 -0.3239
  186SAPI  H17R21370   0.041  -0.002   8.744  0.0119 -0.8936 -0.0543
  186SAPI  H17S21371   0.122   0.160   8.775  4.3400  1.0173 -1.9303
  186SAPI  C21821372   0.249  -0.001   8.724 -0.2758 -0.2935 -0.2553
  186SAPI  H18R21373   0.266  -0.000   8.834 -2.3297  2.6084  0.1581
  186SAPI  H18S21374   0.337   0.051   8.680  1.2362 -1.7065  0.9663
  186SAPI  C21921375   0.264  -0.139   8.653  0.3677  1.2234 -0.4697
  186SAPI  H19R21376   0.247  -0.120   8.545  3.3334  1.4535 -0.9836
  186SAPI  H19S21377   0.191  -0.209   8.698  0.1901  1.6122 -0.1485
  186SAPI  C22021378   0.405  -0.186   8.661 -0.3922  0.2248 -0.3079
  186SAPI  H20R21379   0.419  -0.276   8.598  0.7851 -0.3812  0.7554
  186SAPI  H20S21380   0.434  -0.217   8.764 -0.3208  1.1146 -0.0453
  186SAPI  H20T21381   0.472  -0.104   8.626  1.4949 -0.1653  2.0644
  186SAPI   C3321382   0.730   0.513   9.292  0.2233  0.0309 -0.3758
  186SAPI   H3X21383   0.692   0.456   9.205  0.7183  0.8247 -1.1367
  186SAPI   H3Y21384   0.787   0.446   9.358 -0.2393  2.0818  2.2667
  186SAPI   C3421385   0.833   0.621   9.247  0.2631  0.3403 -0.1611
  186SAPI   H4X21386   0.933   0.571   9.254 -0.5163 -1.0401  2.1585
  186SAPI   H4Y21387   0.818   0.709   9.313 -1.7779  0.9701 -1.3810
  186SAPI   C3521388   0.830   0.658   9.099 -0.2364 -0.3118 -0.3064
  186SAPI   H5X21389   0.880   0.757   9.088  1.7846 -0.8686  2.6008
  186SAPI   H5Y21390   0.727   0.656   9.058  0.1377 -0.3061 -1.2878
  186SAPI   C3621391   0.904   0.551   9.014 -0.4317 -0.3326 -0.4074
  186SAPI   H6X21392   0.849   0.456   9.031  2.3538 -1.8037  0.9045
  186SAPI   H6Y21393   1.006   0.516   9.038 -0.2642 -0.6001 -1.4551
  186SAPI   C3721394   0.902   0.584   8.865  0.1084 -0.2827 -0.4433
  186SAPI   H7X21395   0.814   0.623   8.808  1.3186 -1.9387 -3.6987
  186SAPI   H7Y21396   0.921   0.489   8.810  0.4749  0.7893 -2.2770
  186SAPI   C3821397   1.021   0.678   8.829 -0.9559  0.1284  0.4577
  186SAPI   H8X21398   1.115   0.622   8.850 -0.9437 -0.3922 -0.8881
  186SAPI   H8Y21399   1.019   0.770   8.891  0.1632 -0.6377  1.6749
  186SAPI   C3921400   1.029   0.718   8.680 -0.3183 -0.0974  0.3773
  186SAPI   H9X21401   1.101   0.802   8.672 -0.4419  0.0712  1.0153
  186SAPI   H9Y21402   0.928   0.753   8.650  0.1462  1.0126  0.0853
  186SAPI  C31021403   1.063   0.601   8.575  0.3117 -0.5464 -0.7276
  186SAPI  H10X21404   0.969   0.542   8.581 -0.4521  0.7692  1.4294
  186SAPI  H10Y21405   1.154   0.541   8.597  2.1397  2.6614  1.2212
  186SAPI  C31121406   1.072   0.641   8.434 -0.2719 -1.2203 -0.8834
  186SAPI  H11X21407   1.098   0.553   8.372 -2.3997 -1.8585 -0.9414
  186SAPI  H11Y21408   1.153   0.717   8.434  0.2901 -1.8065 -0.4451
  186SAPI  C31221409   0.945   0.701   8.374 -0.0356  0.1832 -0.3846
  186SAPI  H12X21410   0.934   0.801   8.420 -0.1277 -0.2802  0.6404
  186SAPI  H12Y21411   0.860   0.635   8.403  1.4030 -1.4275  0.3447
  186SAPI  C31321412   0.947   0.714   8.221  0.0348  0.1033  0.0101
  186SAPI  H13X21413   0.964   0.615   8.176 -3.0873  0.2581 -1.7937
  186SAPI  H13Y21414   1.019   0.790   8.186 -0.0054  1.4115  2.4958
  186SAPI  C31421415   0.817   0.763   8.160  0.4733 -0.2983 -0.0417
  186SAPI  H14X21416   0.800   0.873   8.168 -0.0638 -0.4671  1.7623
  186SAPI  H14Y21417   0.736   0.699   8.202  0.2443  0.2207  0.3179
  186SAPI  C31521418   0.814   0.739   8.008  0.3792 -0.0795 -0.0471
  186SAPI  H15X21419   0.811   0.630   7.985 -2.7503 -0.4407  1.5661
  186SAPI  H15Y21420   0.913   0.768   7.965 -0.6810  2.5301 -0.9055
  186SAPI  C31621421   0.696   0.802   7.935  0.4002 -0.7617  0.5922
  186SAPI  H16X21422   0.664   0.902   7.972 -3.2263 -1.2076 -0.8246
  186SAPI  H16Y21423   0.609   0.735   7.952 -0.9620  0.9957  0.9011
  186SAPI  C31721424   0.719   0.820   7.779  0.3466  0.3184 -0.2997
  186SAPI  H17X21425   0.628   0.871   7.740 -0.2540 -0.0910  0.5384
  186SAPI  H17Y21426   0.721   0.720   7.731 -0.4105  0.0065  0.2931
  186SAPI  C31821427   0.845   0.900   7.738  0.1979  0.5100  0.7014
  186SAPI  H18X21428   0.941   0.852   7.766  0.8851  1.4644  0.0626
  186SAPI  H18Y21429   0.839   1.003   7.778 -0.1287  0.9003 -0.3094
  186SAPI  H18Z21430   0.852   0.908   7.627  3.0884  0.5551  0.8290
  187SAPI   C1221431   4.666   0.819   5.781 -0.0048 -0.0816 -0.5567
  187SAPI    H221432   4.567   0.870   5.776 -1.9074 -3.4004 -0.1580
  187SAPI    O221433   4.672   0.749   5.662  0.6161  0.0155 -0.0942
  187SAPI   HO221434   4.609   0.677   5.668 -2.5813  2.2477 -2.9721
  187SAPI   C1321435   4.771   0.917   5.799  0.0007 -1.1498  0.2746
  187SAPI    H321436   4.781   0.960   5.901 -0.4995 -0.5466  0.0783
  187SAPI    O321437   4.743   1.031   5.719  0.5239 -0.3207  0.4147
  187SAPI   HO321438   4.693   1.100   5.763 -0.9500 -0.7365 -0.5146
  187SAPI   C1421439   4.905   0.860   5.770  0.4637  0.1693  0.1078
  187SAPI    H421440   4.897   0.817   5.668  0.1588  0.9148 -0.1898
  187SAPI    O421441   5.011   0.949   5.776  0.4486 -0.4030  0.1549
  187SAPI   HO421442   5.013   0.999   5.694 -0.9240 -0.9751 -0.2400
  187SAPI   C1521443   4.935   0.733   5.851  0.4370  0.8332 -0.4369
  187SAPI    H521444   4.975   0.773   5.947 -1.2230  0.3437  0.5169
  187SAPI    O521445   5.036   0.649   5.809 -0.5494  0.1373  0.3632
  187SAPI   HO521446   5.085   0.612   5.883 -0.2805  1.3780  0.8143
  187SAPI   C1621447   4.811   0.654   5.905 -0.2355  0.1492 -0.1085
  187SAPI    H621448   4.801   0.580   5.822 -1.2579 -2.2529  2.0199
  187SAPI    O621449   4.841   0.575   6.021  0.4850 -0.2021 -0.6695
  187SAPI   HO621450   4.867   0.487   5.996 -0.6897 -0.9257  0.5367
  187SAPI   C1121451   4.674   0.721   5.902  0.5934 -0.3945 -0.2188
  187SAPI    H121452   4.679   0.784   5.994 -2.3559  0.3613 -0.4831
  187SAPI     P21453   4.425   0.674   5.965  0.1446 -0.4201 -0.1234
  187SAPI   O1321454   4.337   0.550   5.960  0.4054 -0.6760 -0.0514
  187SAPI   O1421455   4.383   0.797   5.898 -0.7464 -0.3527 -0.5074
  187SAPI   O1221456   4.568   0.624   5.894 -0.7714  0.0220 -0.3268
  187SAPI   O1121457   4.472   0.702   6.110  0.2248 -1.0134 -0.6181
  187SAPI    C121458   4.418   0.626   6.213 -0.2376  0.3130 -0.9108
  187SAPI    HA21459   4.308   0.612   6.214  0.0460 -2.6799  0.0139
  187SAPI    HB21460   4.454   0.522   6.197 -2.1261 -0.6841  0.8008
  187SAPI    C221461   4.463   0.662   6.359 -0.3997  0.0502  0.7921
  187SAPI    HS21462   4.405   0.607   6.436 -0.7372 -0.4324  0.2039
  187SAPI   O2121463   4.452   0.800   6.372 -0.3675 -0.4124  0.4006
  187SAPI   C2121464   4.326   0.847   6.385  0.1223  0.7701 -0.5614
  187SAPI   O2221465   4.229   0.771   6.385  0.1128 -0.0759 -0.1876
  187SAPI   C2221466   4.347   1.000   6.421  0.1706  0.1953 -0.0736
  187SAPI   H2R21467   4.441   1.016   6.479  0.3168 -0.4409 -0.1259
  187SAPI   H2S21468   4.353   1.053   6.323 -3.0398 -0.3933 -0.6753
  187SAPI    C321469   4.614   0.634   6.374 -0.5048  0.8743 -0.1219
  187SAPI    HX21470   4.666   0.682   6.288  2.8807  0.4752  1.5283
  187SAPI    HY21471   4.636   0.525   6.371  0.9353  1.1534 -1.0939
  187SAPI   O3121472   4.666   0.696   6.495  0.9269  0.0282 -0.3095
  187SAPI   C3121473   4.624   0.645   6.613  0.3640  0.1306  0.1406
  187SAPI   O3221474   4.569   0.537   6.638 -0.2117 -0.2977 -0.0743
  187SAPI   C3221475   4.675   0.756   6.716 -0.1378  0.0629 -0.1475
  187SAPI   H2X21476   4.691   0.855   6.668 -1.4477  1.5249  2.2392
  187SAPI   H2Y21477   4.781   0.731   6.740 -0.1601  0.9511  0.9862
  187SAPI   C2321478   4.237   1.066   6.501  0.1813 -1.0722 -0.5557
  187SAPI   H3R21479   4.134   1.059   6.460 -0.4812  1.5173  0.5060
  187SAPI   H3S21480   4.267   1.173   6.496  1.0781 -1.1864  1.6139
  187SAPI   C2421481   4.220   1.013   6.646  0.0165 -0.7417  0.6187
  187SAPI   H4R21482   4.208   0.903   6.657  4.1081 -1.2473  1.3967
  187SAPI   H4S21483   4.132   1.062   6.694  0.7846  0.5008  0.8011
  187SAPI   C2521484   4.338   1.060   6.728  0.4015 -0.3170 -0.9245
  187SAPI   H5R21485   4.423   0.991   6.734 -0.0515 -1.0557 -2.3804
  187SAPI   C2621486   4.345   1.178   6.791 -0.5338 -0.3675  0.1653
  187SAPI   H6R21487   4.437   1.194   6.849 -0.7302 -0.9808  0.6512
  187SAPI   C2721488   4.224   1.279   6.793  0.3867  0.4345  0.1574
  187SAPI   H7R21489   4.123   1.237   6.810  0.1988 -0.6679 -3.1052
  187SAPI   H7S21490   4.226   1.312   6.687  1.3353 -0.9140 -0.2833
  187SAPI   C2821491   4.228   1.400   6.881 -0.5548 -0.3824 -0.5045
  187SAPI   H8R21492   4.211   1.493   6.825 -0.3464  0.9387  1.5175
  187SAPI   C2921493   4.253   1.410   7.012  0.6208  0.2384 -0.0740
  187SAPI   H9R21494   4.267   1.506   7.064  2.7693  0.7248 -1.4246
  187SAPI  C21021495   4.258   1.291   7.109  0.3566 -0.1485 -0.4356
  187SAPI  H10R21496   4.246   1.191   7.063 -0.9859  0.1862 -0.8539
  187SAPI  H10S21497   4.177   1.319   7.179  1.3046 -0.2952  0.7620
  187SAPI  C21121498   4.394   1.301   7.182  0.3018 -0.4027  0.0667
  187SAPI  H11R21499   4.481   1.289   7.115  0.9988 -2.1588  1.2181
  187SAPI  C21221500   4.415   1.328   7.316  0.2667  0.5285  0.9046
  187SAPI  H12R21501   4.512   1.300   7.360 -0.5381 -1.0190  1.7786
  187SAPI  C21321502   4.299   1.337   7.415 -1.0748  0.1422  0.0268
  187SAPI  H13R21503   4.335   1.272   7.498 -1.6287  0.5650  0.6005
  187SAPI  H13S21504   4.199   1.305   7.380 -1.8643  2.8015 -0.3215
  187SAPI  C21421505   4.293   1.488   7.452  0.3335  0.7686  0.0432
  187SAPI  H14R21506   4.295   1.555   7.365  0.4742  1.7652  0.7971
  187SAPI  C21521507   4.266   1.543   7.568  0.0121 -0.6294 -0.3037
  187SAPI  H15R21508   4.276   1.652   7.582 -1.8782 -0.7657  2.9636
  187SAPI  C21621509   4.243   1.463   7.696 -0.1503 -0.1525  0.7696
  187SAPI  H16R21510   4.319   1.490   7.773 -0.2216  0.1778  0.7264
  187SAPI  H16S21511   4.256   1.354   7.681  0.6808 -0.2350  1.9359
  187SAPI  C21721512   4.111   1.505   7.753  0.3363  0.0408  0.0734
  187SAPI  H17R21513   4.097   1.435   7.838 -1.6687 -0.7723 -0.8601
  187SAPI  H17S21514   4.020   1.496   7.689 -0.4088  3.7551  0.3940
  187SAPI  C21821515   4.121   1.640   7.824  0.8982 -0.1888 -0.8477
  187SAPI  H18R21516   4.093   1.718   7.750  1.0841  0.2066 -0.5044
  187SAPI  H18S21517   4.226   1.659   7.852  0.5452 -1.0364  1.2667
  187SAPI  C21921518   4.057   1.643   7.961  0.0532 -0.6823  0.1517
  187SAPI  H19R21519   4.102   1.560   8.020 -1.3970 -2.0110 -0.5424
  187SAPI  H19S21520   3.950   1.617   7.948  0.0493 -0.5858 -0.0130
  187SAPI  C22021521   4.069   1.771   8.035  0.0489  0.0849  0.3974
  187SAPI  H20R21522   4.034   1.861   7.979 -1.1185 -0.4197  0.2762
  187SAPI  H20S21523   4.166   1.792   8.084  0.4354  0.6161 -0.5748
  187SAPI  H20T21524   4.003   1.757   8.124 -1.1003 -0.6080 -0.5359
  187SAPI   C3321525   4.587   0.760   6.841  0.0525  0.2718 -0.3240
  187SAPI   H3X21526   4.556   0.658   6.873  0.5749  0.3976  0.6489
  187SAPI   H3Y21527   4.494   0.816   6.823  0.5329  2.5186  3.1143
  187SAPI   C3421528   4.658   0.833   6.951  0.1601  0.4813  0.1333
  187SAPI   H4X21529   4.665   0.941   6.930  1.3458  0.5145  0.6124
  187SAPI   H4Y21530   4.766   0.813   6.969  0.7673  2.2475 -1.2949
  187SAPI   C3521531   4.585   0.810   7.087  0.2347 -0.0269 -0.0818
  187SAPI   H5X21532   4.569   0.700   7.089 -2.9015  0.3370  0.7467
  187SAPI   H5Y21533   4.487   0.863   7.086 -0.7395 -1.7520 -0.4327
  187SAPI   C3621534   4.653   0.875   7.211 -0.3061 -0.5648  0.3994
  187SAPI   H6X21535   4.620   0.981   7.203  1.2895 -0.1162 -1.0156
  187SAPI   H6Y21536   4.763   0.868   7.197 -0.3530 -1.3435  0.3780
  187SAPI   C3721537   4.617   0.796   7.336  0.2602  0.0136  0.6197
  187SAPI   H7X21538   4.620   0.687   7.315 -1.9051  0.0687 -0.3006
  187SAPI   H7Y21539   4.510   0.820   7.354 -0.0913  0.6772 -1.9040
  187SAPI   C3821540   4.697   0.854   7.444 -0.2256 -0.2313  0.3319
  187SAPI   H8X21541   4.680   0.963   7.457 -0.2396  0.0881 -1.9471
  187SAPI   H8Y21542   4.803   0.828   7.423 -0.2012 -0.0531  0.2314
  187SAPI   C3921543   4.666   0.783   7.578 -0.4432 -0.0967  0.1821
  187SAPI   H9X21544   4.661   0.672   7.577 -0.9591 -0.2213  3.7816
  187SAPI   H9Y21545   4.565   0.816   7.610 -0.1154  2.7597 -1.3876
  187SAPI  C31021546   4.761   0.815   7.691  0.3889 -0.9368  0.0794
  187SAPI  H10X21547   4.763   0.925   7.702 -1.5586 -1.0250  1.9132
  187SAPI  H10Y21548   4.865   0.782   7.670  1.3062 -0.1038  2.9174
  187SAPI  C31121549   4.703   0.752   7.817 -1.4173 -0.3806  1.0158
  187SAPI  H11X21550   4.683   0.643   7.812 -0.6625 -0.5249  0.9478
  187SAPI  H11Y21551   4.604   0.798   7.832 -2.0304 -0.4467 -2.0216
  187SAPI  C31221552   4.782   0.761   7.955  0.3856 -0.4212 -0.2078
  187SAPI  H12X21553   4.802   0.870   7.965 -2.6845  0.2902 -0.7195
  187SAPI  H12Y21554   4.876   0.702   7.954  1.9356  1.9177 -1.2130
  187SAPI  C31321555   4.696   0.731   8.076  0.7232 -0.0978 -0.3088
  187SAPI  H13X21556   4.641   0.637   8.053 -1.1254  1.2275 -1.5197
  187SAPI  H13Y21557   4.631   0.821   8.082  0.3877 -0.2222 -1.7845
  187SAPI  C31421558   4.775   0.711   8.207  0.2018 -1.0325  0.3032
  187SAPI  H14X21559   4.702   0.658   8.272  0.8687 -0.5854  1.4506
  187SAPI  H14Y21560   4.795   0.809   8.255 -0.1115 -0.0747 -1.4415
  187SAPI  C31521561   4.899   0.620   8.212 -0.3172  0.2337  0.4237
  187SAPI  H15X21562   4.993   0.673   8.188  0.0861 -0.4252  0.5337
  187SAPI  H15Y21563   4.867   0.546   8.136 -0.3784 -1.3088  1.9079
  187SAPI  C31621564   4.920   0.534   8.339 -0.4459  0.4498 -0.0375
  187SAPI  H16X21565   5.004   0.463   8.326 -0.7841  0.0503 -0.0395
  187SAPI  H16Y21566   4.831   0.471   8.361 -0.0377 -0.3451 -0.6277
  187SAPI  C31721567   4.942   0.609   8.463  0.4088  0.3497 -0.1019
  187SAPI  H17X21568   4.855   0.677   8.477 -0.6644 -1.2431  1.4514
  187SAPI  H17Y21569   5.034   0.670   8.470  0.4679  0.0756  2.3302
  187SAPI  C31821570   4.941   0.515   8.588 -0.7244 -0.2747  0.7170
  187SAPI  H18X21571   4.961   0.579   8.677 -1.3469  0.6099  0.2254
  187SAPI  H18Y21572   4.999   0.420   8.584  0.7617  0.6532 -1.0608
  187SAPI  H18Z21573   4.835   0.481   8.586 -0.0976 -2.3866  0.6265
  188SAPI   C1221574   1.113   3.239   5.994  0.5083 -0.0608  1.0108
  188SAPI    H221575   1.022   3.179   5.971  0.7228 -0.4290  1.1032
  188SAPI    O221576   1.118   3.283   6.130 -0.2512 -0.0404 -0.0099
  188SAPI   HO221577   1.038   3.334   6.148 -0.6918 -0.6870 -0.0713
  188SAPI   C1321578   1.226   3.142   5.980 -0.5694  0.0105  0.1740
  188SAPI    H321579   1.226   3.103   5.876  0.6092 -0.3634  0.2932
  188SAPI    O321580   1.214   3.028   6.064 -0.2072 -0.3872 -0.6010
  188SAPI   HO321581   1.187   3.056   6.151 -0.5707 -0.5720 -0.6529
  188SAPI   C1421582   1.367   3.210   5.996  0.5975 -0.3054  0.7163
  188SAPI    H421583   1.374   3.223   6.107  2.7632  0.3262  0.5380
  188SAPI    O421584   1.467   3.122   5.955 -0.5794 -0.1082  0.3110
  188SAPI   HO421585   1.527   3.110   6.029  0.5515  0.1298 -0.5349
  188SAPI   C1521586   1.378   3.350   5.944  0.1193 -0.1875  0.3864
  188SAPI    H521587   1.399   3.345   5.835  0.3703 -0.0360  0.4274
  188SAPI    O521588   1.490   3.422   5.992 -0.5491  0.1898 -0.3761
  188SAPI   HO521589   1.537   3.475   5.927 -2.5745  0.9272 -1.3147
  188SAPI   C1621590   1.252   3.438   5.946 -0.3388 -0.2538  0.1527
  188SAPI    H621591   1.251   3.486   6.045  0.4575 -1.2989  0.6900
  188SAPI    O621592   1.257   3.548   5.849 -0.1131  0.1915  0.6168
  188SAPI   HO621593   1.166   3.575   5.835 -0.1915 -1.2134 -2.5747
  188SAPI   C1121594   1.126   3.361   5.913  0.3048  0.1999  0.0614
  188SAPI    H121595   1.141   3.323   5.809  0.4374 -2.1408  0.8775
  188SAPI     P21596   0.885   3.420   5.855 -0.1167 -0.0021  0.6044
  188SAPI   O1321597   0.929   3.373   5.724 -0.4534  0.2721  0.0884
  188SAPI   O1421598   0.805   3.542   5.858  0.3405  0.1690 -0.1390
  188SAPI   O1221599   1.015   3.448   5.946  0.1619  0.2093  0.6301
  188SAPI   O1121600   0.812   3.308   5.942 -1.0384 -0.7823  0.1992
  188SAPI    C121601   0.710   3.326   6.038 -1.2136 -0.2555 -0.5111
  188SAPI    HA21602   0.660   3.425   6.034 -1.7826 -0.5360 -0.5658
  188SAPI    HB21603   0.625   3.257   6.016 -1.2757 -0.1336 -0.6622
  188SAPI    C221604   0.763   3.293   6.182 -0.7974  0.5844  0.3981
  188SAPI    HS21605   0.685   3.306   6.261  0.0943  1.5029  1.1528
  188SAPI   O2121606   0.876   3.369   6.217  0.7291  0.2538 -0.4759
  188SAPI   C2121607   0.849   3.493   6.243 -0.2236 -0.2636 -0.1125
  188SAPI   O2221608   0.739   3.542   6.238 -0.2478 -0.2333 -0.3496
  188SAPI   C2221609   0.974   3.554   6.296  0.3344 -0.0954  0.5176
  188SAPI   H2R21610   0.950   3.593   6.398 -0.1145 -1.3875  0.9237
  188SAPI   H2S21611   1.059   3.483   6.303 -0.1668 -0.8122 -0.4476
  188SAPI    C321612   0.800   3.144   6.181  0.3905  0.1440  0.0024
  188SAPI    HX21613   0.886   3.131   6.113  2.7423  1.5782  2.4863
  188SAPI    HY21614   0.711   3.087   6.145  0.3429  0.2347 -0.0223
  188SAPI   O3121615   0.823   3.110   6.320 -0.0238 -0.0029  0.1469
  188SAPI   C3121616   0.940   3.058   6.343  0.2099 -0.4673 -0.4564
  188SAPI   O3221617   1.018   3.025   6.253 -0.2408  0.5848 -0.2554
  188SAPI   C3221618   0.964   3.052   6.491  0.2237  0.1556  0.0195
  188SAPI   H2X21619   1.029   2.962   6.497 -1.6877 -1.3814 -1.1948
  188SAPI   H2Y21620   0.868   3.029   6.542  0.7544 -0.8728  0.5815
  188SAPI   C2321621   1.009   3.677   6.200 -0.0229  0.3681  0.1737
  188SAPI   H3R21622   0.937   3.760   6.215  1.2503  1.5221  0.0726
  188SAPI   H3S21623   1.005   3.650   6.092 -1.8436  1.1085  0.0212
  188SAPI   C2421624   1.148   3.727   6.252 -0.4163 -0.2921  0.0331
  188SAPI   H4R21625   1.229   3.712   6.177 -0.0865 -1.5930  0.6317
  188SAPI   H4S21626   1.187   3.658   6.330  1.6990  2.4734  1.6434
  188SAPI   C2521627   1.155   3.872   6.304  0.6318 -0.5919 -0.1752
  188SAPI   H5R21628   1.208   3.929   6.227 -2.0203  1.8038 -0.4137
  188SAPI   C2621629   1.113   3.931   6.426 -0.0497  0.3855 -0.5381
  188SAPI   H6R21630   1.136   4.037   6.447  1.6460 -0.3872  1.8811
  188SAPI   C2721631   1.061   3.852   6.548  0.4815 -0.1452  0.2996
  188SAPI   H7R21632   1.083   3.922   6.631  2.3382 -1.0808  0.6450
  188SAPI   H7S21633   1.122   3.762   6.570  1.8022  0.4463 -0.7531
  188SAPI   C2821634   0.912   3.830   6.545 -0.0960  0.0587 -0.2387
  188SAPI   H8R21635   0.849   3.832   6.456 -1.5165 -0.2674  0.7255
  188SAPI   C2921636   0.840   3.805   6.655 -0.1802 -0.2688 -0.1069
  188SAPI   H9R21637   0.730   3.806   6.657 -0.2807  0.2347 -2.4403
  188SAPI  C21021638   0.897   3.790   6.793  0.3713 -0.4271  0.2181
  188SAPI  H10R21639   1.007   3.775   6.798  0.0611 -2.5287  2.1327
  188SAPI  H10S21640   0.856   3.700   6.843  0.4327 -0.2044  0.6705
  188SAPI  C21121641   0.867   3.911   6.880  0.8157 -0.2214  0.1511
  188SAPI  H11R21642   0.885   4.010   6.836 -0.5319  0.3944  0.9336
  188SAPI  C21221643   0.848   3.913   7.012  0.5934 -0.0438  0.4298
  188SAPI  H12R21644   0.821   4.006   7.065  1.2598  0.1954  0.3614
  188SAPI  C21321645   0.848   3.795   7.101 -0.3475 -0.0830 -0.3597
  188SAPI  H13R21646   0.932   3.808   7.173 -2.9371  0.0987  2.8524
  188SAPI  H13S21647   0.862   3.703   7.040 -1.2251  0.8281 -1.9983
  188SAPI  C21421648   0.717   3.778   7.172 -0.0816 -0.8129  0.3262
  188SAPI  H14R21649   0.633   3.772   7.101 -1.2853 -2.2437  1.8065
  188SAPI  C21521650   0.687   3.765   7.304  0.4270 -0.0030  0.6025
  188SAPI  H15R21651   0.580   3.775   7.325 -0.1302  0.8911 -2.2129
  188SAPI  C21621652   0.782   3.780   7.417 -1.2181 -0.4526 -0.0591
  188SAPI  H16R21653   0.782   3.882   7.462 -2.0462 -0.0051 -1.0305
  188SAPI  H16S21654   0.888   3.767   7.387 -0.8638  1.2854  0.2818
  188SAPI  C21721655   0.737   3.694   7.535 -0.1962  0.2176  0.0116
  188SAPI  H17R21656   0.727   3.585   7.513  1.7491  0.0715 -0.2989
  188SAPI  H17S21657   0.639   3.735   7.568  0.1666  0.1965  1.1274
  188SAPI  C21821658   0.835   3.694   7.657  0.3103 -0.1899  1.2250
  188SAPI  H18R21659   0.871   3.799   7.663 -2.0464  0.7270  0.4289
  188SAPI  H18S21660   0.920   3.624   7.639  1.7275  2.1096 -2.0070
  188SAPI  C21921661   0.766   3.668   7.787 -0.3247 -0.1094 -0.5078
  188SAPI  H19R21662   0.725   3.565   7.784  1.3548 -0.9201  1.3724
  188SAPI  H19S21663   0.699   3.753   7.810 -0.7674 -0.1806 -1.5064
  188SAPI  C22021664   0.871   3.667   7.905  0.1465  0.3146  0.2394
  188SAPI  H20R21665   0.945   3.587   7.887  1.4591  1.8226 -1.4465
  188SAPI  H20S21666   0.825   3.654   8.005  1.6538  0.2459  0.9454
  188SAPI  H20T21667   0.926   3.763   7.915  0.0864  0.1284  3.5513
  188SAPI   C3321668   1.028   3.183   6.530  0.2315 -0.3605 -0.6814
  188SAPI   H3X21669   0.939   3.248   6.536 -0.1562 -0.8911 -0.6488
  188SAPI   H3Y21670   1.109   3.213   6.460  0.3238  1.1126  0.0220
  188SAPI   C3421671   1.089   3.186   6.673  0.1428 -0.0413 -0.1413
  188SAPI   H4X21672   1.105   3.293   6.696 -0.7973  0.0871 -0.0658
  188SAPI   H4Y21673   1.191   3.142   6.679  1.0721  1.9051 -0.8211
  188SAPI   C3521674   0.996   3.127   6.788  0.0264 -0.1639  0.2708
  188SAPI   H5X21675   0.968   3.022   6.766  0.5649  0.1381 -2.1027
  188SAPI   H5Y21676   0.902   3.184   6.799  1.4309  1.9279  2.6049
  188SAPI   C3621677   1.064   3.136   6.923 -0.1365  0.4191 -0.3268
  188SAPI   H6X21678   1.076   3.240   6.958  0.5627  0.1213  0.3498
  188SAPI   H6Y21679   1.166   3.093   6.921 -0.1458  0.4002 -0.3923
  188SAPI   C3721680   0.996   3.061   7.035  0.6926 -0.1199 -0.4832
  188SAPI   H7X21681   0.989   2.952   7.016  0.7154 -0.1611 -0.2611
  188SAPI   H7Y21682   0.893   3.093   7.060  0.7215 -3.1658  5.2641
  188SAPI   C3821683   1.064   3.075   7.175 -0.1223 -0.3279  0.2060
  188SAPI   H8X21684   1.033   3.172   7.218 -0.2507 -0.6748  0.9216
  188SAPI   H8Y21685   1.175   3.079   7.180 -0.2004  1.3805  1.3285
  188SAPI   C3921686   1.010   2.985   7.285  0.2083  0.0234  0.2337
  188SAPI   H9X21687   1.039   2.880   7.266 -2.1392 -0.4451 -1.0774
  188SAPI   H9Y21688   0.899   2.993   7.283  0.1159 -0.9464  0.8422
  188SAPI  C31021689   1.060   3.031   7.425  0.2514  0.0073  1.1335
  188SAPI  H10X21690   1.048   3.140   7.444 -2.1037 -0.0186  0.2084
  188SAPI  H10Y21691   1.168   3.006   7.429  0.0082 -1.1122  0.9902
  188SAPI  C31121692   0.991   2.952   7.532  0.0199  0.8548 -0.1233
  188SAPI  H11X21693   0.979   2.847   7.498 -0.9633  1.2914 -1.1668
  188SAPI  H11Y21694   0.887   2.991   7.534 -0.3254 -0.0590  1.0783
  188SAPI  C31221695   1.053   2.973   7.672  0.0306  0.2132 -0.2558
  188SAPI  H12X21696   1.145   2.909   7.675  0.4472  0.5903 -2.6512
  188SAPI  H12Y21697   0.988   2.935   7.753  1.5992  0.9232  1.3930
  188SAPI  C31321698   1.081   3.118   7.705 -0.5278  0.5057 -0.3218
  188SAPI  H13X21699   0.992   3.185   7.694 -1.0169 -0.1546 -0.4286
  188SAPI  H13Y21700   1.151   3.163   7.631  0.9275 -0.8476  0.1930
  188SAPI  C31421701   1.133   3.144   7.841 -0.0443 -0.4169  0.0029
  188SAPI  H14X21702   1.238   3.107   7.838  0.7968  1.6441 -4.5438
  188SAPI  H14Y21703   1.068   3.098   7.917 -1.3571  1.6203  0.2044
  188SAPI  C31521704   1.142   3.290   7.885  0.2156 -0.5004  0.3943
  188SAPI  H15X21705   1.040   3.332   7.899  0.3932  0.4089 -0.7718
  188SAPI  H15Y21706   1.193   3.356   7.811  0.3088 -2.2241 -1.1339
  188SAPI  C31621707   1.194   3.303   8.031  0.0710  0.1676 -0.1424
  188SAPI  H16X21708   1.300   3.271   8.034 -0.7632 -2.8720  0.0690
  188SAPI  H16Y21709   1.129   3.234   8.089 -1.1524  0.3306 -1.2645
  188SAPI  C31721710   1.186   3.454   8.073 -0.1103  0.4850 -0.3628
  188SAPI  H17X21711   1.183   3.463   8.183  0.1031 -0.3595 -0.2795
  188SAPI  H17Y21712   1.095   3.500   8.029  0.2104 -0.8821 -2.6244
  188SAPI  C31821713   1.311   3.536   8.025  0.2845  0.3285 -0.0085
  188SAPI  H18X21714   1.321   3.529   7.915 -0.9810  1.8755 -0.2609
  188SAPI  H18Y21715   1.399   3.494   8.077 -1.1062 -0.8414  1.5169
  188SAPI  H18Z21716   1.311   3.644   8.052  0.7588 -0.2746  2.7098
  189POPC     N21717   5.138   5.686  10.424  0.1198  0.5851 -0.3151
  189POPC   C1221718   5.221   5.567  10.404 -0.1865 -0.5990 -0.2629
  189POPC  H12A21719   5.207   5.505  10.492  0.0394 -0.1364  0.1025
  189POPC  H12B21720   5.324   5.599  10.397 -1.0877  2.4951 -0.8175
  189POPC   C1321721   5.009   5.642  10.477 -0.3892 -0.2135 -0.2008
  189POPC  H13A21722   4.976   5.553  10.425 -0.1372 -0.2307 -0.3355
  189POPC  H13B21723   5.018   5.625  10.583 -1.0037  1.4172  0.1358
  189POPC  H13C21724   4.931   5.714  10.461  1.0603  1.6052  0.5315
  189POPC   C1421725   5.192   5.797  10.515 -0.2032 -0.5753  0.3930
  189POPC  H14A21726   5.222   5.763  10.613  1.6175  0.2713  0.1856
  189POPC  H14B21727   5.284   5.846  10.484  0.6263 -1.4174  1.4377
  189POPC  H14C21728   5.127   5.882  10.526  2.4230  1.3842  2.0290
  189POPC   C1521729   5.115   5.750  10.299 -0.0343 -0.2157 -0.0036
  189POPC  H15A21730   5.081   5.681  10.223 -2.5675  1.2134 -0.2856
  189POPC  H15B21731   5.206   5.793  10.259  0.6229 -1.4168  0.1387
  189POPC  H15C21732   5.038   5.826  10.296 -0.0422 -0.2388 -0.9754
  189POPC   C1121733   5.190   5.471  10.290  0.6416  0.6974  0.9594
  189POPC  H11A21734   5.266   5.393  10.312  1.8718  1.6200  0.1490
  189POPC  H11B21735   5.211   5.516  10.190 -3.2193 -0.2629 -0.4555
  189POPC     P21736   4.994   5.304  10.363  0.3576  0.7425 -0.3180
  189POPC   O1321737   4.856   5.333  10.414  0.1372 -0.3621 -0.2855
  189POPC   O1421738   5.083   5.256  10.468 -0.4323 -0.2228 -0.0108
  189POPC   O1221739   5.051   5.426  10.288 -0.4591 -0.3321 -0.0562
  189POPC   O1121740   4.988   5.201  10.250  0.0296 -0.2932  1.1245
  189POPC    C121741   5.106   5.151  10.179 -0.1329 -0.5092 -0.8958
  189POPC    HA21742   5.083   5.045  10.152  1.9819 -1.5906  1.1166
  189POPC    HB21743   5.193   5.149  10.248  0.9036 -2.2473 -2.1466
  189POPC    C221744   5.141   5.238  10.050  0.1508 -0.1859  0.5212
  189POPC    HS21745   5.147   5.344  10.081 -1.0981  0.2941 -0.7557
  189POPC   O2121746   5.030   5.233   9.957 -0.1862  0.4777  0.3913
  189POPC   C2121747   4.992   5.349   9.900 -0.6402  0.0720  0.3053
  189POPC   O2221748   5.058   5.455   9.913 -0.4132 -0.0022  0.0985
  189POPC   C2221749   4.865   5.340   9.812  0.5136  0.1630 -0.2251
  189POPC   H2R21750   4.808   5.433   9.833  1.9580  0.4187  3.2464
  189POPC   H2S21751   4.808   5.249   9.842 -1.3823  1.8289  1.5338
  189POPC    C321752   5.274   5.191   9.992 -0.0246  0.6222  0.6438
  189POPC    HX21753   5.357   5.212  10.064  1.0973  0.4755 -0.5665
  189POPC    HY21754   5.301   5.247   9.900  1.9180  0.1239  0.8645
  189POPC   O3121755   5.256   5.053   9.946  0.2190 -0.0879 -0.1273
  189POPC   C3121756   5.332   4.959  10.000 -0.5262  0.7743 -0.0964
  189POPC   O3221757   5.426   4.978  10.074  0.4815 -0.1376 -0.0303
  189POPC   C3221758   5.294   4.814   9.951  0.1889  0.2444  0.0814
  189POPC   H2X21759   5.241   4.767  10.037 -0.7584  0.9991 -0.0743
  189POPC   H2Y21760   5.387   4.762   9.919 -0.6884 -2.3223  1.4208
  189POPC   C2321761   4.890   5.317   9.660  0.1113  0.3204  0.8581
  189POPC   H3R21762   4.975   5.247   9.649 -0.1694  0.2069 -0.8360
  189POPC   H3S21763   4.938   5.408   9.620 -0.7187  0.5467  0.3485
  189POPC   C2421764   4.763   5.294   9.576 -0.6435 -0.4601 -0.3511
  189POPC   H4R21765   4.702   5.383   9.603  1.5139  1.8037 -2.3803
  189POPC   H4S21766   4.724   5.192   9.596  0.1908 -0.9241 -1.0431
  189POPC   C2521767   4.794   5.310   9.428  0.8649 -0.5635 -0.2535
  189POPC   H5R21768   4.865   5.392   9.410  3.8096 -2.8499  0.2239
  189POPC   H5S21769   4.696   5.322   9.376  0.9216 -1.3771 -0.5719
  189POPC   C2621770   4.841   5.175   9.359  0.2392  0.4623  0.0403
  189POPC   H6R21771   4.766   5.096   9.341  3.1471 -2.0445 -2.2964
  189POPC   H6S21772   4.920   5.123   9.418  1.6349  1.0466 -1.2384
  189POPC   C2721773   4.909   5.212   9.224  0.3811 -0.4298  0.1229
  189POPC   H7R21774   4.969   5.123   9.194  1.5317  0.6254 -0.7952
  189POPC   H7S21775   4.978   5.297   9.238 -0.5409  0.1081  1.6521
  189POPC   C2821776   4.803   5.230   9.118 -0.1046 -0.5793  0.2979
  189POPC   H8R21777   4.742   5.320   9.144 -2.2956 -1.8456 -0.2386
  189POPC   H8S21778   4.734   5.143   9.122  0.0515 -0.6724  1.1199
  189POPC   C2921779   4.859   5.247   8.982 -0.1447  1.6989 -0.1621
  189POPC   H9121780   4.910   5.344   8.977  0.6534  1.3523  0.9056
  189POPC  C21021781   4.855   5.167   8.874  0.3715  0.2865 -0.1341
  189POPC  H10121782   4.914   5.205   8.790  2.3455 -2.7539 -0.2664
  189POPC  C21121783   4.792   5.031   8.859  0.3349  0.2811 -0.1652
  189POPC  H11R21784   4.811   4.978   8.955 -0.4915 -0.2717 -0.2892
  189POPC  H11S21785   4.843   4.979   8.775  1.0525 -1.2337  1.1481
  189POPC  C21221786   4.639   5.023   8.837  0.4548  0.0480 -0.3465
  189POPC  H12R21787   4.623   5.110   8.770  0.4804 -1.1070 -1.9115
  189POPC  H12S21788   4.583   5.046   8.931  2.1868  0.7593  0.5407
  189POPC  C21321789   4.587   4.884   8.781  0.2502 -0.3234 -0.0230
  189POPC  H13R21790   4.624   4.800   8.844  0.0735 -0.6142 -0.3026
  189POPC  H13S21791   4.630   4.877   8.679 -1.4713  1.4183 -0.9413
  189POPC  C21421792   4.436   4.880   8.781 -0.1930  0.1236  0.1499
  189POPC  H14R21793   4.392   4.966   8.725 -0.8101 -1.4138 -1.8514
  189POPC  H14S21794   4.406   4.892   8.887  0.5516  1.4117  0.2460
  189POPC  C21521795   4.375   4.759   8.713 -0.7294  0.9075 -0.2881
  189POPC  H15R21796   4.394   4.668   8.773  0.1811  1.9229  1.0315
  189POPC  H15S21797   4.428   4.741   8.616  0.3601  1.7902  0.1100
  189POPC  C21621798   4.225   4.779   8.693  0.4737  0.1542  0.1613
  189POPC  H16R21799   4.197   4.874   8.642  1.8780  0.2037 -0.5436
  189POPC  H16S21800   4.179   4.788   8.794  2.4562  2.5679  0.9411
  189POPC  C21721801   4.159   4.664   8.601  0.4243 -0.0709 -0.2107
  189POPC  H17R21802   4.195   4.694   8.500  2.9495  0.1870  0.6734
  189POPC  H17S21803   4.049   4.674   8.610  0.6774  0.6226  4.7435
  189POPC  C21821804   4.196   4.524   8.641  0.5979  0.5802 -0.8038
  189POPC  H18R21805   4.162   4.452   8.564  0.9614 -0.4647 -0.0229
  189POPC  H18S21806   4.147   4.509   8.740  0.5664  0.0610 -0.8932
  189POPC  H18T21807   4.304   4.508   8.661  0.9610  1.1644 -2.1890
  189POPC   C3321808   5.198   4.822   9.832  0.7353  0.0632 -0.2366
  189POPC   H3X21809   5.109   4.881   9.859  0.3133 -0.6557 -0.0335
  189POPC   H3Y21810   5.169   4.716   9.812  4.1754 -0.7625 -1.7265
  189POPC   C3421811   5.257   4.875   9.704 -0.1180 -1.1935 -0.7192
  189POPC   H4X21812   5.358   4.833   9.686  0.2796 -0.5018 -0.1384
  189POPC   H4Y21813   5.288   4.981   9.706  0.2087 -1.2759  2.0593
  189POPC   C3521814   5.159   4.842   9.591 -0.3776  0.1776  0.2490
  189POPC   H5X21815   5.073   4.913   9.590 -1.6754 -1.3453  0.8292
  189POPC   H5Y21816   5.118   4.740   9.603  1.1891 -0.3478  1.4400
  189POPC   C3621817   5.230   4.844   9.455  0.1370 -0.9788 -0.7321
  189POPC   H6X21818   5.316   4.774   9.445 -0.8440 -2.3689  0.1741
  189POPC   H6Y21819   5.265   4.946   9.431  0.3055 -0.3118  2.0336
  189POPC   C3721820   5.129   4.806   9.343 -0.1657  0.6610  0.2461
  189POPC   H7X21821   5.052   4.884   9.329  0.4734  1.2902  0.2199
  189POPC   H7Y21822   5.069   4.721   9.383  2.9734 -1.2013  1.3736
  189POPC   C3821823   5.196   4.756   9.213 -0.2731  0.2104 -0.4565
  189POPC   H8X21824   5.119   4.696   9.160 -0.3485  0.3456 -0.4990
  189POPC   H8Y21825   5.285   4.696   9.241  1.7439  2.0399 -2.6027
  189POPC   C3921826   5.250   4.875   9.130 -0.5098 -0.1459  0.2833
  189POPC   H9X21827   5.324   4.932   9.189 -0.7898  0.5115  0.0121
  189POPC   H9Y21828   5.167   4.945   9.107 -0.4806  1.0580  3.4591
  189POPC  C31021829   5.317   4.827   9.002  0.0574 -0.5898 -0.5996
  189POPC  H10X21830   5.403   4.758   9.012 -0.4958 -1.3175 -0.7715
  189POPC  H10Y21831   5.351   4.919   8.951 -2.7511 -0.5409 -2.6262
  189POPC  C31121832   5.233   4.747   8.899  0.5692 -0.7029  0.5121
  189POPC  H11X21833   5.126   4.778   8.904 -0.6484 -3.4932 -3.3533
  189POPC  H11Y21834   5.235   4.641   8.929 -2.2995 -1.3503 -1.2144
  189POPC  C31221835   5.284   4.771   8.759  0.2558 -0.2831  0.3630
  189POPC  H12X21836   5.389   4.739   8.746  0.4067 -0.3213  1.5639
  189POPC  H12Y21837   5.288   4.877   8.723  2.0769 -1.3429 -2.9887
  189POPC  C31321838   5.195   4.706   8.651  0.0005  0.7929 -0.0978
  189POPC  H13X21839   5.093   4.718   8.692  1.1184 -2.4243  4.5506
  189POPC  H13Y21840   5.202   4.595   8.644 -1.9568  0.5495  1.0254
  189POPC  C31421841   5.210   4.772   8.514  0.2444 -0.2419 -0.4560
  189POPC  H14X21842   5.163   4.698   8.446  0.6139 -1.5944  0.7161
  189POPC  H14Y21843   5.318   4.782   8.491  0.8640  0.8118  2.4515
  189POPC  C31521844   5.137   4.905   8.504 -0.3592 -0.0769  0.1806
  189POPC  H15X21845   5.192   4.975   8.571  1.3770 -2.2653  1.1633
  189POPC  H15Y21846   5.033   4.896   8.543 -0.1449 -1.8386  0.4126
  189POPC  C31621847   5.124   4.985   8.375  0.1337  0.0920  0.3944
  189POPC  H16X21848   5.222   4.992   8.324  0.0825  0.3871  0.3396
  189POPC  H16Y21849   5.090   5.090   8.385  0.9118  0.3417  0.4809
  189POPC  H16Z21850   5.066   4.925   8.301  2.2014 -1.4238 -0.0921
  190POPC     N21851   3.990   3.930  10.671 -0.6136  0.4213 -0.3994
  190POPC   C1221852   3.994   4.077  10.629 -0.0554 -0.0236 -0.2650
  190POPC  H12A21853   4.098   4.105  10.640  0.8098 -2.9445 -0.1599
  190POPC  H12B21854   3.955   4.143  10.705  2.5305  0.7591  0.4973
  190POPC   C1321855   3.856   3.877  10.663  0.3504 -0.0359  0.0684
  190POPC  H13A21856   3.810   3.887  10.566  1.7929  0.8109 -0.5763
  190POPC  H13B21857   3.844   3.771  10.677 -1.9029  0.1148 -0.4363
  190POPC  H13C21858   3.791   3.937  10.725  1.3184  1.1237  0.0182
  190POPC   C1421859   4.078   3.853  10.584  0.1920  0.0330  0.4144
  190POPC  H14A21860   4.095   3.749  10.604 -0.6462 -0.6228 -1.8735
  190POPC  H14B21861   4.039   3.870  10.484 -1.2203  1.6481  1.1935
  190POPC  H14C21862   4.175   3.899  10.572  0.7491 -1.3570 -0.7026
  190POPC   C1521863   4.049   3.922  10.805 -0.1492 -0.3288 -0.2225
  190POPC  H15A21864   4.000   3.988  10.874  0.9314 -0.4123  0.6539
  190POPC  H15B21865   4.153   3.949  10.789 -0.2967  0.4339  0.1102
  190POPC  H15C21866   4.056   3.823  10.848  0.1251  0.0383  0.5925
  190POPC   C1121867   3.936   4.117  10.497  0.0809 -0.1639 -0.8974
  190POPC  H11A21868   3.989   4.055  10.421  2.7425  1.4183 -0.4693
  190POPC  H11B21869   3.976   4.217  10.470  2.8196 -1.2666 -1.2797
  190POPC     P21870   3.692   4.201  10.559  0.4727 -0.0004  0.6348
  190POPC   O1321871   3.746   4.323  10.621  0.1503  0.4375  0.4708
  190POPC   O1421872   3.611   4.114  10.650 -0.5481 -0.2940  0.1891
  190POPC   O1221873   3.793   4.107  10.492 -0.2380  0.2366  0.4306
  190POPC   O1121874   3.602   4.243  10.440  0.5898  0.2043  0.0168
  190POPC    C121875   3.629   4.325  10.330 -0.2509  0.0057 -0.4828
  190POPC    HA21876   3.702   4.274  10.263 -0.3928 -0.8694  0.0097
  190POPC    HB21877   3.679   4.414  10.372  1.4778 -1.0963 -0.1030
  190POPC    C221878   3.503   4.360  10.260 -0.2931  0.2029  0.1037
  190POPC    HS21879   3.434   4.402  10.336  0.1185  1.6247 -0.2823
  190POPC   O2121880   3.446   4.243  10.200 -0.0052  0.9697  0.5921
  190POPC   C2121881   3.328   4.257  10.138  0.2115 -0.3656  0.5034
  190POPC   O2221882   3.262   4.359  10.132  0.3153  0.3490 -0.3291
  190POPC   C2221883   3.286   4.123  10.062  0.5207 -0.8277 -0.5013
  190POPC   H2R21884   3.196   4.154  10.004 -0.5896 -1.7901  0.6716
  190POPC   H2S21885   3.247   4.056  10.141 -1.4631  2.1031  1.1763
  190POPC    C321886   3.521   4.478  10.156  0.1454  0.1296  0.0067
  190POPC    HX21887   3.558   4.571  10.204 -1.0260  0.5272  0.1604
  190POPC    HY21888   3.428   4.524  10.118  0.0947 -0.7401 -0.9674
  190POPC   O3121889   3.585   4.426  10.043  0.8133  0.1136  0.1691
  190POPC   C3121890   3.676   4.501   9.983  0.6591  0.0701 -0.2379
  190POPC   O3221891   3.727   4.597  10.031  0.2010 -0.4388 -0.4931
  190POPC   C3221892   3.682   4.459   9.839 -0.1182  0.3688 -0.2510
  190POPC   H2X21893   3.577   4.472   9.808 -0.2166 -0.0988 -0.1123
  190POPC   H2Y21894   3.707   4.351   9.834  0.2990  0.4364  0.2304
  190POPC   C2321895   3.393   4.044   9.983  0.3111 -0.4067  0.5779
  190POPC   H3R21896   3.338   3.964   9.929  0.6017  1.3960 -2.6859
  190POPC   H3S21897   3.460   3.982  10.045  0.8795  1.2857  1.7264
  190POPC   C2421898   3.476   4.129   9.883  0.5448 -0.0179  0.1386
  190POPC   H4R21899   3.576   4.084   9.871 -0.2183 -1.6105 -0.6111
  190POPC   H4S21900   3.482   4.234   9.919  0.3474  0.7213 -1.8364
  190POPC   C2521901   3.412   4.147   9.741  1.0332 -0.2025 -0.0112
  190POPC   H5R21902   3.391   4.049   9.692 -0.4086  0.4160 -0.6591
  190POPC   H5S21903   3.490   4.193   9.677 -0.5555  0.5803 -1.4643
  190POPC   C2621904   3.288   4.242   9.745  0.0118 -0.5904  0.4757
  190POPC   H6R21905   3.286   4.323   9.821  2.5469 -0.1453  0.1664
  190POPC   H6S21906   3.206   4.172   9.775 -0.1557 -1.6872 -2.2531
  190POPC   C2721907   3.258   4.324   9.620  0.1584  0.1090 -0.0812
  190POPC   H7R21908   3.351   4.379   9.595  0.7654 -0.8386  0.0586
  190POPC   H7S21909   3.174   4.396   9.627 -0.6332 -0.5035 -2.3196
  190POPC   C2821910   3.211   4.228   9.503  0.2881  0.2486 -0.1432
  190POPC   H8R21911   3.286   4.146   9.502  0.4188  0.3249  1.2752
  190POPC   H8S21912   3.245   4.283   9.412  2.0735  2.8627  1.9379
  190POPC   C2921913   3.067   4.175   9.514  0.4888 -0.9707  0.2644
  190POPC   H9121914   3.050   4.100   9.593  0.3758 -1.0041  0.2094
  190POPC  C21021915   2.961   4.204   9.434 -0.4784  0.0573  0.3368
  190POPC  H10121916   2.867   4.148   9.446 -0.9742  1.3271  3.2133
  190POPC  C21121917   2.969   4.294   9.312  0.4967 -0.0602  0.6367
  190POPC  H11R21918   3.042   4.378   9.319  0.9199 -0.4715  1.1543
  190POPC  H11S21919   2.874   4.351   9.305  0.0378 -0.9653 -1.5174
  190POPC  C21221920   2.984   4.209   9.178  0.9217  0.1917 -1.0768
  190POPC  H12R21921   3.051   4.123   9.201 -1.4164 -0.9845  2.2113
  190POPC  H12S21922   3.021   4.274   9.096  2.4259  0.1942 -0.4291
  190POPC  C21321923   2.852   4.140   9.132  0.4012  0.3661  0.2764
  190POPC  H13R21924   2.764   4.203   9.157 -0.2915  0.3400 -1.9447
  190POPC  H13S21925   2.834   4.043   9.182 -0.9192  0.7157  0.5199
  190POPC  C21421926   2.834   4.127   8.983  0.1228 -0.1309  0.5051
  190POPC  H14R21927   2.754   4.052   8.965 -0.2173  0.4503 -0.4856
  190POPC  H14S21928   2.924   4.095   8.925  0.8207  0.6139  1.1583
  190POPC  C21521929   2.783   4.254   8.908 -0.1657  0.2361  0.5199
  190POPC  H15R21930   2.869   4.323   8.892  1.2511 -1.6139 -0.3916
  190POPC  H15S21931   2.700   4.309   8.957 -1.3220 -1.3365  0.4067
  190POPC  C21621932   2.713   4.227   8.775  0.2263  0.3872 -0.4106
  190POPC  H16R21933   2.632   4.154   8.796  1.2064 -0.6682 -0.2135
  190POPC  H16S21934   2.787   4.190   8.701  1.0198  0.0048  0.5469
  190POPC  C21721935   2.651   4.352   8.715 -0.1955 -0.4031  0.8281
  190POPC  H17R21936   2.719   4.407   8.646 -1.0824  0.5894  0.7288
  190POPC  H17S21937   2.633   4.421   8.800  1.2383  0.1563  0.7099
  190POPC  C21821938   2.524   4.327   8.636  0.3072 -0.9839 -0.7625
  190POPC  H18R21939   2.472   4.423   8.616 -0.9752 -1.4346  0.2876
  190POPC  H18S21940   2.455   4.260   8.691 -0.1268 -1.6821 -2.1219
  190POPC  H18T21941   2.548   4.269   8.544  0.0978  0.3376 -1.6798
  190POPC   C3321942   3.766   4.549   9.753  0.5339  0.5211 -0.2498
  190POPC   H3X21943   3.872   4.525   9.778  0.5208  0.3505 -0.3592
  190POPC   H3Y21944   3.751   4.657   9.775 -0.4513  0.5422 -0.9539
  190POPC   C3421945   3.762   4.535   9.599  0.1788  0.5417 -0.2728
  190POPC   H4X21946   3.840   4.461   9.572 -1.8003 -1.3459 -1.0845
  190POPC   H4Y21947   3.784   4.634   9.553  0.9168  0.1262 -0.8351
  190POPC   C3521948   3.632   4.492   9.536 -0.1858  0.1302 -0.3707
  190POPC   H5X21949   3.542   4.553   9.557  0.5784  2.0849 -2.4145
  190POPC   H5Y21950   3.610   4.397   9.590  1.4361 -0.1720 -0.1648
  190POPC   C3621951   3.654   4.467   9.383 -0.3857  0.2614  0.2047
  190POPC   H6X21952   3.750   4.414   9.367 -1.1502 -1.3682  0.8000
  190POPC   H6Y21953   3.663   4.565   9.331 -0.5402  1.0761  1.6486
  190POPC   C3721954   3.548   4.393   9.306  0.3400 -0.8996 -0.5612
  190POPC   H7X21955   3.566   4.413   9.198  2.1302 -1.3771 -0.3959
  190POPC   H7Y21956   3.443   4.421   9.327 -0.6063 -4.4139  0.1231
  190POPC   C3821957   3.547   4.242   9.335  0.4191  0.1984  0.6691
  190POPC   H8X21958   3.497   4.235   9.435  0.5441  0.3019  0.7393
  190POPC   H8Y21959   3.644   4.190   9.345 -0.3049 -1.1745  0.8799
  190POPC   C3921960   3.448   4.159   9.245  0.0516  0.1053 -1.0317
  190POPC   H9X21961   3.354   4.215   9.233 -0.4633 -0.7624 -1.1267
  190POPC   H9Y21962   3.425   4.060   9.291 -1.3545  0.1169 -1.6733
  190POPC  C31021963   3.502   4.133   9.103 -0.5117 -0.0662 -0.1824
  190POPC  H10X21964   3.557   4.037   9.096 -0.6788 -0.1918  0.1770
  190POPC  H10Y21965   3.581   4.202   9.068  1.0153 -2.3305 -1.3945
  190POPC  C31121966   3.389   4.113   9.006 -0.7438 -0.0409  0.2928
  190POPC  H11X21967   3.324   4.203   9.009  0.2365  0.6902  0.0927
  190POPC  H11Y21968   3.334   4.027   9.048 -0.3031 -0.4044  0.1432
  190POPC  C31221969   3.420   4.087   8.869  0.3262 -0.4179  0.1557
  190POPC  H12X21970   3.478   3.996   8.845 -0.2543 -0.7473 -0.0142
  190POPC  H12Y21971   3.476   4.173   8.824  0.0740  0.3027  1.1780
  190POPC  C31321972   3.278   4.072   8.799 -0.3967 -0.3833  0.0604
  190POPC  H13X21973   3.199   4.129   8.851  0.2633  0.7692 -0.1825
  190POPC  H13Y21974   3.244   3.966   8.804  0.2224 -0.5914  0.0220
  190POPC  C31421975   3.291   4.113   8.650  0.2635 -0.0043 -0.1152
  190POPC  H14X21976   3.380   4.055   8.616 -0.5949 -2.5769  1.7589
  190POPC  H14Y21977   3.310   4.222   8.639  2.1458 -0.2479  0.2477
  190POPC  C31521978   3.170   4.067   8.565 -0.3783 -0.2458 -0.8877
  190POPC  H15X21979   3.161   4.134   8.478  0.0793  0.5817 -0.3129
  190POPC  H15Y21980   3.082   4.078   8.633  0.5757 -1.2349  0.5884
  190POPC  C31621981   3.176   3.924   8.511 -0.0489  0.2290 -0.2176
  190POPC  H16X21982   3.172   3.849   8.594  2.5885 -0.0176 -0.2403
  190POPC  H16Y21983   3.269   3.908   8.453 -0.0729  1.9821 -0.7920
  190POPC  H16Z21984   3.096   3.904   8.436 -0.3485  2.6450 -0.6251
  191POPC     N21985   4.471   4.038   6.170 -0.2069 -0.1847 -0.8052
  191POPC   C1221986   4.406   4.045   6.309  0.3336 -0.2385  0.0020
  191POPC  H12A21987   4.308   4.001   6.303  0.1004  0.4061 -1.4830
  191POPC  H12B21988   4.397   4.151   6.327 -1.2126 -0.5982  1.5656
  191POPC   C1321989   4.451   3.895   6.118 -0.2640  0.1695  0.3278
  191POPC  H13A21990   4.482   3.818   6.187  0.3840  0.7005  0.6319
  191POPC  H13B21991   4.344   3.884   6.107 -0.6838  1.1222  2.8178
  191POPC  H13C21992   4.494   3.886   6.019 -0.6434  2.0530 -0.0555
  191POPC   C1421993   4.412   4.132   6.077  1.0053  0.2911  0.2401
  191POPC  H14A21994   4.418   4.237   6.101 -0.9310  0.9315 -1.7233
  191POPC  H14B21995   4.448   4.111   5.978 -0.6769 -1.5823 -0.0537
  191POPC  H14C21996   4.306   4.110   6.074  1.2146 -0.6458 -1.6510
  191POPC   C1521997   4.623   4.068   6.186  0.4151 -0.1383  0.3169
  191POPC  H15A21998   4.669   4.053   6.089 -1.1702 -2.0244 -0.2078
  191POPC  H15B21999   4.662   3.990   6.250 -1.3695 -0.4993  1.0175
  191POPC  H15C22000   4.641   4.165   6.229 -3.2718  1.4215 -1.2102
  191POPC   C1122001   4.465   3.972   6.431  0.0990  0.6164 -0.0661
  191POPC  H11A22002   4.426   4.005   6.530 -0.0861 -0.1012  0.1099
  191POPC  H11B22003   4.568   4.012   6.433  1.1018 -1.7852  1.8913
  191POPC     P22004   4.327   3.763   6.442 -0.0121 -0.7936 -0.4606
  191POPC   O1322005   4.352   3.622   6.481 -0.2050 -0.2697  0.0737
  191POPC   O1422006   4.255   3.778   6.312  0.1687 -0.4854  0.2384
  191POPC   O1222007   4.473   3.832   6.416  0.6046  0.1232  0.3663
  191POPC   O1122008   4.254   3.847   6.558  0.0828  0.1687  0.8080
  191POPC    C122009   4.170   3.774   6.655  0.1753  0.2347 -0.8753
  191POPC    HA22010   4.135   3.679   6.608 -0.5088  1.5050 -3.0905
  191POPC    HB22011   4.079   3.829   6.686  0.2209 -1.1265  1.9623
  191POPC    C222012   4.238   3.743   6.796  0.3352 -0.1291  0.1132
  191POPC    HS22013   4.160   3.696   6.860 -0.7908 -0.1395 -1.1912
  191POPC   O2122014   4.285   3.865   6.846  0.3093  0.4978 -1.0784
  191POPC   C2122015   4.194   3.940   6.908  0.0918 -0.3556 -0.2565
  191POPC   O2222016   4.077   3.912   6.925  0.5824 -0.3894 -0.2579
  191POPC   C2222017   4.267   4.060   6.966 -0.5718  0.7735 -0.1277
  191POPC   H2R22018   4.235   4.151   6.912 -0.7730 -0.3086 -1.8930
  191POPC   H2S22019   4.376   4.047   6.953 -0.4146  0.1016  1.5161
  191POPC    C322020   4.349   3.643   6.790  0.9757 -0.1127 -0.1396
  191POPC    HX22021   4.436   3.685   6.735 -1.3934  2.8830 -1.9400
  191POPC    HY22022   4.306   3.558   6.733 -1.3907  1.0891 -0.2496
  191POPC   O3122023   4.395   3.609   6.924  0.0246 -0.0611  0.1333
  191POPC   C3122024   4.407   3.487   6.966 -0.1535 -0.4659  0.0700
  191POPC   O3222025   4.399   3.383   6.909 -0.0618 -0.2127 -0.2506
  191POPC   C3222026   4.440   3.498   7.118  0.1109  0.0454  0.1038
  191POPC   H2X22027   4.346   3.520   7.173  0.9770  0.6651  1.3975
  191POPC   H2Y22028   4.517   3.576   7.136  0.6019 -0.2316 -0.7680
  191POPC   C2322029   4.222   4.077   7.108  0.1051 -0.2768  0.4932
  191POPC   H3R22030   4.114   4.096   7.120  0.1937  0.4173  0.2469
  191POPC   H3S22031   4.285   4.157   7.153  2.4483 -1.3859 -0.6007
  191POPC   C2422032   4.252   3.952   7.195 -0.0898  0.3483 -0.3147
  191POPC   H4R22033   4.336   3.897   7.148  1.3063  2.3558 -0.3085
  191POPC   H4S22034   4.167   3.882   7.208  0.6633 -0.3238  1.3514
  191POPC   C2522035   4.298   3.982   7.339 -0.4122  0.2235 -0.0575
  191POPC   H5R22036   4.229   4.051   7.392 -1.2088 -0.5321 -0.0860
  191POPC   H5S22037   4.404   4.014   7.332 -0.7527  1.9682  1.8607
  191POPC   C2622038   4.300   3.853   7.427 -0.0921 -0.0054 -0.0519
  191POPC   H6R22039   4.343   3.771   7.365 -1.0299 -0.2992 -0.3326
  191POPC   H6S22040   4.197   3.820   7.452 -0.1526 -1.1421 -1.6454
  191POPC   C2722041   4.375   3.877   7.563  0.0202  0.8368  0.6264
  191POPC   H7R22042   4.486   3.881   7.554 -0.0903  2.0100 -0.4862
  191POPC   H7S22043   4.337   3.805   7.639  0.3410  0.8698  0.8238
  191POPC   C2822044   4.341   4.006   7.639 -0.6666  0.4003  0.8538
  191POPC   H8R22045   4.236   4.011   7.673 -0.5578  1.1639  1.0936
  191POPC   H8S22046   4.356   4.087   7.564  2.2476 -0.3212  0.5348
  191POPC   C2922047   4.424   4.039   7.760  0.2354  0.0101 -0.2738
  191POPC   H9122048   4.527   4.072   7.744 -0.1653  0.5273 -1.9377
  191POPC  C21022049   4.378   4.038   7.888  0.2441  0.3944  0.4380
  191POPC  H10122050   4.459   4.045   7.962  1.0505  0.5528 -0.4545
  191POPC  C21122051   4.249   3.994   7.950  0.6954 -0.2596  0.5359
  191POPC  H11R22052   4.258   3.889   7.984  0.5371 -1.1729 -2.0225
  191POPC  H11S22053   4.163   3.991   7.879  1.1378 -0.7926  0.0127
  191POPC  C21222054   4.210   4.092   8.057  0.6779  0.1080 -1.1354
  191POPC  H12R22055   4.103   4.090   8.089  1.1936 -1.2015  0.7387
  191POPC  H12S22056   4.217   4.195   8.016  0.1155  0.4649 -0.3816
  191POPC  C21322057   4.304   4.087   8.189  0.2008 -0.4452  0.1907
  191POPC  H13R22058   4.382   4.166   8.181 -1.0427  0.8399  0.4434
  191POPC  H13S22059   4.345   3.984   8.198 -1.3155 -1.0124  0.9255
  191POPC  C21422060   4.234   4.137   8.315  1.1512  0.1722 -0.5525
  191POPC  H14R22061   4.157   4.062   8.343  3.1755 -2.3425 -1.3410
  191POPC  H14S22062   4.173   4.228   8.298  0.1210 -0.3904  0.0035
  191POPC  C21522063   4.329   4.158   8.432 -0.0595  0.9229  0.1811
  191POPC  H15R22064   4.391   4.250   8.421 -1.0387  1.3275 -3.4451
  191POPC  H15S22065   4.402   4.075   8.440 -1.1674 -0.0589  0.2955
  191POPC  C21622066   4.251   4.153   8.564 -0.6961  0.2916  0.0761
  191POPC  H16R22067   4.192   4.059   8.574  0.3726 -0.3862  0.2586
  191POPC  H16S22068   4.175   4.234   8.563 -1.6069 -0.5278 -1.9221
  191POPC  C21722069   4.341   4.184   8.682 -0.1872  0.0064  0.3408
  191POPC  H17R22070   4.403   4.273   8.659  1.4843 -1.2856 -0.3838
  191POPC  H17S22071   4.411   4.101   8.705 -0.8749 -0.8308 -0.5244
  191POPC  C21822072   4.257   4.212   8.813  0.0475 -0.7683  0.4633
  191POPC  H18R22073   4.184   4.129   8.827  0.5175 -1.1033  0.9851
  191POPC  H18S22074   4.193   4.302   8.805  0.9870 -0.1947 -0.7936
  191POPC  H18T22075   4.323   4.223   8.901 -0.6866  2.7203  0.7013
  191POPC   C3322076   4.480   3.368   7.187  0.7119  0.2760  0.0537
  191POPC   H3X22077   4.554   3.312   7.125 -1.0028 -2.4040  0.2423
  191POPC   H3Y22078   4.389   3.304   7.188  0.9453 -0.0981 -0.8659
  191POPC   C3422079   4.504   3.382   7.340 -0.5109  0.0484  0.4255
  191POPC   H4X22080   4.582   3.460   7.354 -0.0969 -0.0917 -0.8786
  191POPC   H4Y22081   4.559   3.293   7.376 -1.3494  0.0863  1.8876
  191POPC   C3522082   4.376   3.392   7.420  0.3660 -0.0945  0.3890
  191POPC   H5X22083   4.330   3.293   7.400  1.6023 -0.0968 -3.1530
  191POPC   H5Y22084   4.310   3.473   7.383  0.4906  0.1274  0.6520
  191POPC   C3622085   4.408   3.424   7.572 -0.7562  0.3048  0.2574
  191POPC   H6X22086   4.441   3.530   7.574  0.1659  0.0493 -0.3876
  191POPC   H6Y22087   4.499   3.362   7.588  0.1632  1.5602  0.0063
  191POPC   C3722088   4.299   3.396   7.683 -0.1602  0.3147  0.5164
  191POPC   H7X22089   4.331   3.437   7.781 -2.9939 -0.7455  1.9861
  191POPC   H7Y22090   4.286   3.286   7.697 -0.4246  0.2374 -0.2568
  191POPC   C3822091   4.158   3.447   7.651 -0.4773  0.0756 -0.5560
  191POPC   H8X22092   4.093   3.378   7.592 -2.4600  1.7400 -0.4195
  191POPC   H8Y22093   4.174   3.547   7.607 -0.8028  0.5994  0.4777
  191POPC   C3922094   4.091   3.478   7.785 -0.4724  1.2028 -0.6893
  191POPC   H9X22095   3.998   3.532   7.757 -0.4311  0.2470 -2.8494
  191POPC   H9Y22096   4.154   3.549   7.843 -1.3628  2.1498 -0.8464
  191POPC  C31022097   4.072   3.340   7.864  0.2442 -0.0144 -0.0199
  191POPC  H10X22098   4.171   3.306   7.903  0.1391 -2.9394 -2.0289
  191POPC  H10Y22099   4.034   3.261   7.797 -1.7717  2.1516 -1.5599
  191POPC  C31122100   3.981   3.355   7.991 -0.7887  0.3348  0.7367
  191POPC  H11X22101   3.881   3.389   7.957 -1.9602 -1.7196  1.9316
  191POPC  H11Y22102   4.023   3.434   8.057  0.3209 -1.1311  1.8683
  191POPC  C31222103   3.968   3.220   8.061  0.1064  0.1488 -0.2022
  191POPC  H12X22104   3.938   3.145   7.984 -2.2624  2.8877 -2.2026
  191POPC  H12Y22105   3.892   3.225   8.142  0.4516  1.6359  0.0449
  191POPC  C31322106   4.090   3.176   8.138 -0.4367  0.5277 -1.0205
  191POPC  H13X22107   4.140   3.261   8.187  0.2698 -1.2213  1.4986
  191POPC  H13Y22108   4.162   3.136   8.063 -0.1420  0.2753 -0.6098
  191POPC  C31422109   4.076   3.063   8.250  0.0690 -1.2541 -0.4572
  191POPC  H14X22110   4.025   2.972   8.212  0.1548 -0.7510 -1.8232
  191POPC  H14Y22111   3.999   3.098   8.323 -1.3138 -0.9257 -2.0188
  191POPC  C31522112   4.210   3.039   8.314 -0.4408  0.4959  0.5125
  191POPC  H15X22113   4.271   2.983   8.239 -0.0470 -1.8693  2.4889
  191POPC  H15Y22114   4.197   2.963   8.393 -1.2385  0.4144  0.3151
  191POPC  C31622115   4.284   3.162   8.375  0.6495 -0.0878 -0.2482
  191POPC  H16X22116   4.334   3.201   8.284 -0.7137  1.8092 -0.2484
  191POPC  H16Y22117   4.362   3.140   8.451  0.8931 -0.4026 -0.5878
  191POPC  H16Z22118   4.213   3.245   8.395  1.7117  0.9199 -0.5279
  192POPC     N22119   1.743   5.191   5.701  0.2815 -0.3236 -0.2418
  192POPC   C1222120   1.609   5.245   5.744 -0.3020  0.1433 -0.4024
  192POPC  H12A22121   1.544   5.246   5.658 -0.6227  0.6042 -0.1564
  192POPC  H12B22122   1.610   5.349   5.770 -0.9947  0.3598 -1.2302
  192POPC   C1322123   1.742   5.042   5.677  0.3965  0.0456  0.1169
  192POPC  H13A22124   1.839   4.998   5.693  0.5856  0.0710 -0.8886
  192POPC  H13B22125   1.683   4.992   5.752 -1.0262  0.6231 -0.5940
  192POPC  H13C22126   1.700   5.027   5.579 -0.9704  0.1993  0.6540
  192POPC   C1422127   1.796   5.264   5.578 -0.0753 -0.3226  0.1148
  192POPC  H14A22128   1.795   5.372   5.587  1.4494 -0.0618 -2.0845
  192POPC  H14B22129   1.898   5.228   5.574  0.3565  0.9426 -1.0163
  192POPC  H14C22130   1.731   5.234   5.498 -1.4982 -1.7438  1.7274
  192POPC   C1522131   1.846   5.220   5.808  0.3933  0.2788  0.2304
  192POPC  H15A22132   1.797   5.203   5.903 -1.0301  0.8322 -0.3741
  192POPC  H15B22133   1.874   5.323   5.793  1.8187 -0.1004  0.1277
  192POPC  H15C22134   1.937   5.163   5.794 -0.1909 -1.2031  2.0063
  192POPC   C1122135   1.532   5.185   5.862  0.4062  0.2261  0.2220
  192POPC  H11A22136   1.594   5.175   5.953 -0.6407 -1.6366  0.7924
  192POPC  H11B22137   1.508   5.079   5.840  0.2315  0.0924  1.0342
  192POPC     P22138   1.394   5.394   5.956  0.2109  0.5889  0.1795
  192POPC   O1322139   1.252   5.403   5.999  0.2079 -0.3159 -0.1521
  192POPC   O1422140   1.451   5.491   5.864  0.3891 -0.0058  0.0420
  192POPC   O1222141   1.409   5.259   5.877  0.0451  0.7285  0.2505
  192POPC   O1122142   1.490   5.363   6.078 -0.6268 -0.1816  0.1439
  192POPC    C122143   1.433   5.311   6.200  0.1129  0.2375 -0.2999
  192POPC    HA22144   1.505   5.239   6.244 -2.8200 -1.7844  1.5454
  192POPC    HB22145   1.336   5.260   6.182 -0.5592  0.9800  1.1134
  192POPC    C222146   1.423   5.421   6.309 -0.4864 -0.1055  0.1640
  192POPC    HS22147   1.337   5.484   6.278 -0.6900 -0.1322  0.6560
  192POPC   O2122148   1.553   5.479   6.329 -0.0568 -0.0864 -0.2197
  192POPC   C2122149   1.560   5.615   6.295 -0.2391  0.0688 -0.7928
  192POPC   O2222150   1.473   5.692   6.259 -0.1533 -0.1135 -0.0928
  192POPC   C2222151   1.701   5.666   6.328  0.8576 -0.2056 -0.5536
  192POPC   H2R22152   1.773   5.629   6.252  1.5033  2.5825 -1.4263
  192POPC   H2S22153   1.737   5.635   6.428 -0.2784  3.2154  1.0772
  192POPC    C322154   1.375   5.356   6.436  0.0672 -0.2631 -0.1642
  192POPC    HX22155   1.389   5.430   6.518 -1.3421  1.2126 -1.1935
  192POPC    HY22156   1.445   5.278   6.473  0.3187  0.5187  1.0508
  192POPC   O3122157   1.237   5.306   6.410  0.2314  0.5059  0.2695
  192POPC   C3122158   1.146   5.334   6.501 -0.4473 -0.1137 -0.2383
  192POPC   O3222159   1.168   5.404   6.600  0.0783  0.1949  0.0716
  192POPC   C3222160   1.020   5.262   6.468 -0.2832 -0.0997  0.4310
  192POPC   H2X22161   1.040   5.153   6.459 -2.0485 -0.2982 -1.7429
  192POPC   H2Y22162   0.991   5.315   6.375 -1.0957 -1.3915 -0.0782
  192POPC   C2322163   1.713   5.820   6.315 -0.2403  0.5642 -0.3803
  192POPC   H3R22164   1.656   5.853   6.225 -2.5509 -2.4176 -0.1818
  192POPC   H3S22165   1.820   5.850   6.311 -0.1937  0.2761 -3.7854
  192POPC   C2422166   1.649   5.903   6.437 -0.2734  0.5071  0.6549
  192POPC   H4R22167   1.539   5.887   6.437 -0.4657  1.0076 -2.8628
  192POPC   H4S22168   1.674   6.008   6.413  2.2910 -0.2710 -0.3465
  192POPC   C2522169   1.704   5.871   6.577  0.2618  0.1692  0.5109
  192POPC   H5R22170   1.682   5.764   6.601 -0.1944  0.1706  0.1046
  192POPC   H5S22171   1.655   5.942   6.646  0.7315  1.4569 -0.4514
  192POPC   C2622172   1.854   5.902   6.583  0.5106 -0.3034 -0.0310
  192POPC   H6R22173   1.877   6.004   6.546  0.2010 -0.7045 -1.3901
  192POPC   H6S22174   1.907   5.830   6.516 -0.6221 -1.5122  0.3194
  192POPC   C2722175   1.908   5.882   6.728 -0.1238  0.3627  0.2360
  192POPC   H7R22176   1.892   5.778   6.763  0.2068  0.6328  1.1937
  192POPC   H7S22177   1.853   5.956   6.790  0.8017 -1.0650  2.8894
  192POPC   C2822178   2.060   5.912   6.738 -0.0404  0.3576 -0.2441
  192POPC   H8R22179   2.086   6.017   6.715 -1.4713  0.7349 -0.2690
  192POPC   H8S22180   2.103   5.856   6.652  0.9776  0.1506  0.3819
  192POPC   C2922181   2.117   5.879   6.869  0.2371  0.8591  0.6402
  192POPC   H9122182   2.192   5.800   6.861 -0.7896  0.0482 -1.8681
  192POPC  C21022183   2.116   5.943   6.987 -1.1011  0.3905 -0.0909
  192POPC  H10122184   2.186   5.902   7.061 -0.3509  2.1353  0.2255
  192POPC  C21122185   2.030   6.060   7.023  0.6044  0.1482 -0.0265
  192POPC  H11R22186   1.933   6.058   6.967  1.5787  1.5640 -1.8940
  192POPC  H11S22187   2.072   6.160   6.997 -1.6760  1.0032 -0.6722
  192POPC  C21222188   1.980   6.056   7.173  0.1068 -0.6201  0.1303
  192POPC  H12R22189   1.959   5.950   7.200  1.5908 -0.9988 -0.1278
  192POPC  H12S22190   1.886   6.113   7.187 -0.1147 -0.6897 -1.0350
  192POPC  C21322191   2.080   6.108   7.274  0.0967  0.0928  0.2993
  192POPC  H13R22192   2.142   6.191   7.233 -0.0712 -0.2134 -0.6024
  192POPC  H13S22193   2.152   6.028   7.302  1.0659  1.5027  2.0790
  192POPC  C21422194   2.012   6.158   7.398 -0.5242  0.0626 -0.1811
  192POPC  H14R22195   1.978   6.077   7.466 -0.1885  1.0837  1.2554
  192POPC  H14S22196   1.926   6.221   7.367 -0.3768  0.3631  0.0156
  192POPC  C21522197   2.100   6.239   7.497 -0.3455  0.1766 -0.7034
  192POPC  H15R22198   2.119   6.333   7.441  3.0703  0.4643  0.6885
  192POPC  H15S22199   2.198   6.189   7.501 -0.5960 -0.3082 -0.6211
  192POPC  C21622200   2.030   6.275   7.626  0.2346  0.3276 -0.4613
  192POPC  H16R22201   1.991   6.179   7.667 -0.8124 -0.2269 -2.6072
  192POPC  H16S22202   1.937   6.336   7.619 -0.1922 -0.0609  1.3721
  192POPC  C21722203   2.113   6.354   7.726 -0.9865 -0.3337  1.2330
  192POPC  H17R22204   2.063   6.434   7.786  1.8952  1.6087  1.2239
  192POPC  H17S22205   2.187   6.407   7.663 -0.3552 -3.4056 -0.8385
  192POPC  C21822206   2.198   6.261   7.815  0.1949  0.9404  0.3845
  192POPC  H18R22207   2.143   6.175   7.857  0.0898  1.0187  0.4072
  192POPC  H18S22208   2.239   6.320   7.900 -3.2396  2.8707  0.8699
  192POPC  H18T22209   2.286   6.214   7.767 -0.6703 -3.0768  2.3499
  192POPC   C3322210   0.905   5.268   6.574  0.0837 -0.1592  0.6373
  192POPC   H3X22211   0.808   5.243   6.526 -0.4298  0.1413  1.5069
  192POPC   H3Y22212   0.900   5.373   6.609 -3.1532 -0.0869  0.2498
  192POPC   C3422213   0.925   5.180   6.694  0.1899  0.1774 -0.2145
  192POPC   H4X22214   1.035   5.181   6.711  0.5554  1.1774 -2.2997
  192POPC   H4Y22215   0.902   5.072   6.681  0.7222 -0.1144  1.1142
  192POPC   C3522216   0.852   5.239   6.818  0.9241  0.7362 -0.1875
  192POPC   H5X22217   0.830   5.154   6.886 -2.0163  0.5498 -1.2006
  192POPC   H5Y22218   0.757   5.278   6.777  0.9326  0.5068 -0.4296
  192POPC   C3622219   0.925   5.344   6.898 -0.1111 -0.6744 -0.2905
  192POPC   H6X22220   0.947   5.435   6.838  0.2255  0.9682  2.2051
  192POPC   H6Y22221   1.023   5.303   6.930  0.7276  0.0404 -1.8258
  192POPC   C3722222   0.831   5.385   7.013  0.2594 -0.7290  0.0302
  192POPC   H7X22223   0.775   5.295   7.044 -0.0217 -1.1938 -1.7325
  192POPC   H7Y22224   0.752   5.447   6.966 -0.1055 -1.6825 -0.6256
  192POPC   C3822225   0.897   5.458   7.128  0.0986  0.0107  0.2342
  192POPC   H8X22226   0.949   5.545   7.081 -1.1421  0.5865 -0.1184
  192POPC   H8Y22227   0.981   5.404   7.176  0.7889  1.6186  0.8968
  192POPC   C3922228   0.800   5.523   7.233 -0.9505  0.1404 -0.2336
  192POPC   H9X22229   0.775   5.444   7.307 -0.7198 -0.5521 -0.8883
  192POPC   H9Y22230   0.707   5.561   7.186 -0.7022  2.7047  1.1380
  192POPC  C31022231   0.860   5.650   7.303  0.0989 -0.1762 -0.1776
  192POPC  H10X22232   0.966   5.629   7.326  0.3186  0.3706 -0.6786
  192POPC  H10Y22233   0.807   5.672   7.398  1.7922 -0.3902  0.8634
  192POPC  C31122234   0.865   5.776   7.210 -0.7004 -0.0052  0.2045
  192POPC  H11X22235   0.775   5.836   7.236  0.5710  1.4857  1.4824
  192POPC  H11Y22236   0.867   5.739   7.106  2.2997 -0.2742  0.2515
  192POPC  C31222237   0.991   5.865   7.215  0.1870 -0.2523 -0.2555
  192POPC  H12X22238   0.979   5.954   7.150 -1.0990 -1.3304 -1.5518
  192POPC  H12Y22239   1.082   5.816   7.176  2.0366 -0.2650  3.6060
  192POPC  C31322240   1.019   5.894   7.359 -0.2960 -0.0888  0.1662
  192POPC  H13X22241   1.018   5.811   7.433 -2.8673  0.0518  0.3739
  192POPC  H13Y22242   0.937   5.963   7.387 -2.1511 -1.7451 -0.9164
  192POPC  C31422243   1.153   5.970   7.366 -0.4716 -0.2104  0.1175
  192POPC  H14X22244   1.148   6.054   7.294  1.5752  1.0873  1.4193
  192POPC  H14Y22245   1.238   5.908   7.329 -0.4099  0.4530 -0.8841
  192POPC  C31522246   1.196   6.024   7.507  0.5764 -0.7307 -0.0800
  192POPC  H15X22247   1.130   6.108   7.537  0.4604  0.7660 -3.9496
  192POPC  H15Y22248   1.300   6.061   7.502  0.2144  0.2858 -0.3179
  192POPC  C31622249   1.200   5.920   7.614  0.6797  0.3671  0.0293
  192POPC  H16X22250   1.238   5.951   7.714  2.7852  0.1739 -0.6626
  192POPC  H16Y22251   1.264   5.838   7.576 -0.1677 -0.6579  0.7590
  192POPC  H16Z22252   1.096   5.879   7.616 -0.6871  3.4998 -0.2216
  193SOD    SOD22253   2.867   3.360   5.760  0.1465  0.2985  0.2593
  194SOD    SOD22254   1.246   3.046   1.086 -0.4801 -0.0632 -0.2714
  195SOD    SOD22255   5.579   2.018   1.995  0.0711 -0.4082  0.4811
  196SOD    SOD22256   5.719   3.656   0.409 -0.1909 -0.4425  0.0260
  197SOD    SOD22257   5.003   6.030  13.580  0.1328 -0.0997 -0.3136
  198SOD    SOD22258   6.526   5.834   1.210  0.1268 -0.0529 -0.2555
  199SOD    SOD22259   4.380   3.420   2.193 -0.1295 -0.1469 -0.1682
  200SOD    SOD22260   1.888   6.569   2.185 -0.2406 -0.3108  0.3014
  201SOD    SOD22261   6.060   0.032   2.719  0.0100  0.5273  0.3556
  202SOD    SOD22262   3.060   3.903  16.212 -0.2390 -0.3338 -0.1188
  203SOD    SOD22263   2.163   3.615  13.811  0.2773  0.0553 -0.1039
  204SOD    SOD22264   3.257   1.781  14.282 -0.2797  0.5168 -0.0526
  205SOD    SOD22265   2.057   3.081  15.993 -0.1645 -0.2787  0.1773
  206SOD    SOD22266   5.901   1.516   3.544  0.1362 -0.1281 -0.4709
  207SOD    SOD22267   6.252   5.672   0.444 -0.0823 -0.2683  0.0401
  208SOD    SOD22268   5.074   1.846  11.398 -0.2411  0.3373  0.3148
  209SOD    SOD22269   3.914   2.894  11.790  0.3684 -0.0178 -0.0752
  210SOD    SOD22270   1.844   4.358  16.300 -0.4388 -0.3017  0.3728
  211SOD    SOD22271   0.959   5.185  12.333  0.0190 -0.3026  0.1299
  212SOD    SOD22272   3.577   2.608   3.598 -0.2106 -0.2987  0.1789
  213SOD    SOD22273   6.744   2.915   0.643  0.3256 -0.1917  0.5497
  214SOD    SOD22274   3.091   3.954   3.706 -0.2124  0.0854 -0.1723
  215SOD    SOD22275   6.715   3.609   5.615 -0.4749 -0.0703 -0.2326
  216SOD    SOD22276   0.112   5.184  10.954 -0.9384  0.1418  0.3164
  217SOD    SOD22277   0.460   1.128   4.987 -0.2803 -0.2134  0.0200
  218SOD    SOD22278   1.226   2.842   1.961  0.1229  0.0009  0.1228
  219SOD    SOD22279   2.590   0.389  11.109  0.3336  0.2662 -0.1453
  220SOD    SOD22280   5.691   3.660   2.395  0.0596  0.2655  0.2211
  221SOD    SOD22281   6.542   0.873   6.306  0.4898 -0.4801  0.2240
  222SOD    SOD22282   5.222   6.506   5.689  0.3137  0.0848  0.5570
  223SOD    SOD22283   4.188   4.601   6.293 -0.1376  0.1835  0.1850
  224SOD    SOD22284   4.067   6.047  10.672  0.0246 -0.1431  0.0843
  225SOD    SOD22285   3.853   4.197  11.833  0.3359 -0.1037  0.3564
  226SOD    SOD22286   3.864   2.574   5.940  0.3761  0.4509 -0.5148
  227SOD    SOD22287   6.490   3.302  10.837  0.2505 -0.2875 -0.2087
  228SOD    SOD22288   6.708   6.775   5.169  0.3708 -0.2323 -0.2837
  229SOD    SOD22289   0.261   0.913  10.016 -0.0919  0.1059 -0.3076
  230SOD    SOD22290   0.084   1.555   0.071  0.0863  0.4272  0.0006
  231SOD    SOD22291   3.705   6.190   3.749  0.2096  0.0585 -0.1915
  232SOD    SOD22292   3.692   1.133  14.629 -0.2372  0.2882  0.0850
  233SOD    SOD22293   1.750   5.776  13.362  0.1569 -0.0743 -0.3946
  234SOD    SOD22294   6.823   0.934  10.562  0.3657  0.0112 -0.6375
  235SOD    SOD22295   3.228   6.217  10.979  0.3395  0.0221  0.0191
  236SOD    SOD22296   1.729   1.246   1.116 -0.4561 -0.1800 -0.2700
  237SOD    SOD22297   3.263   1.154   4.753  0.0090  0.5004 -0.5682
  238SOD    SOD22298   4.279   4.913  12.753  0.2954 -0.2828  0.3022
  239SOD    SOD22299   1.771   3.229  13.201 -0.5835 -0.0661 -0.2234
  240SOD    SOD22300   5.256   2.393  14.697 -0.3816  0.0546 -0.3012
  241SOD    SOD22301   5.954   6.316  12.399 -0.1352  0.3241 -0.3725
  242SOD    SOD22302   5.257   4.793  16.211  0.4496 -0.0906  0.1785
  243SOD    SOD22303   2.317   4.070   2.920  0.3995 -0.5215 -0.3811
  244SOD    SOD22304   5.572   0.953  15.063 -0.2318  0.2441  0.4439
  245SOD    SOD22305   5.389   2.007   3.037 -0.0140  0.1919 -0.5779
  246SOD    SOD22306   1.913   4.583   1.250 -0.4716 -0.1721  0.0391
  247SOD    SOD22307   1.603   1.701  10.938 -0.1803 -0.2217  0.5060
  248SOD    SOD22308   0.800   1.771   5.086  0.3740 -0.1134  0.9385
  249SOD    SOD22309   4.742   1.119   5.058 -0.0947  0.4371  0.4399
  250SOD    SOD22310   5.653   3.133  16.330 -0.3135 -0.3457  0.5146
  251SOD    SOD22311   5.110   4.164  11.889  0.1358  0.2266  0.1876
  252SOD    SOD22312   3.786   4.601  16.358 -0.2899  0.4604 -0.1342
  253SOD    SOD22313   5.754   1.085  13.245 -0.7537  0.1945 -0.3849
  254SOD    SOD22314   3.915   6.617   2.213  0.3368  0.2015 -0.2740
  255SOD    SOD22315   2.089   4.686  11.342 -0.4016  0.3527  0.0489
  256SOD    SOD22316   1.876   6.004  15.140  0.0825  0.0694 -0.1960
  257SOD    SOD22317   2.327   2.138   5.454  0.3855  0.6679 -0.2417
  258SOD    SOD22318   5.664   0.618  12.728 -0.2459  0.1453  0.1623
  259SOD    SOD22319   2.537   0.065   5.864 -0.3393 -0.0233  0.2423
  260SOD    SOD22320   0.612   3.775   3.599 -0.0544 -0.1287  0.0630
  261SOD    SOD22321   3.290   4.402  14.881  0.1324  0.2842  0.2338
  262SOD    SOD22322   5.771   6.429   0.423 -0.1782 -0.7221 -0.2475
  263SOD    SOD22323   2.906   0.423  12.703 -0.2805  0.0289  0.0292
  264SOD    SOD22324   2.428   1.660   2.529  0.2503 -0.0823 -0.7179
  265SOD    SOD22325   3.482   3.029  16.848  0.4484 -0.2350  0.0402
  266SOD    SOD22326   0.548   6.352   0.800  0.0580 -0.3599 -0.1501
  267SOD    SOD22327   2.074   5.585   0.438 -0.1848 -0.0360 -0.1062
  268SOD    SOD22328   0.359   0.374  11.797  0.4507 -0.0779  0.0633
  269SOD    SOD22329   4.239   1.885   5.533 -0.2904 -1.0757 -0.0420
  270CLA    CLA22330   1.639   3.129   4.861  0.0235 -0.2467 -0.2853
  271CLA    CLA22331   0.494   5.377  12.123  0.0296  0.0299  0.2717
  272CLA    CLA22332   6.289   2.132   4.117  0.4219 -0.0224 -0.0337
  273CLA    CLA22333   5.220   1.090  16.299 -0.2707  0.2985 -0.4974
  274CLA    CLA22334   2.411   3.137   2.715  0.3876  0.1862  0.2592
  275CLA    CLA22335   1.451   6.337   1.566  0.0562 -0.3079  0.1622
  276CLA    CLA22336   1.237   4.364   0.730  0.3937 -0.3131 -0.3007
  277CLA    CLA22337   0.819   1.631   0.740  0.1271 -0.0355 -0.3628
  278CLA    CLA22338   6.523   4.835   5.013 -0.2004 -0.2320 -0.3025
  279CLA    CLA22339   1.657   3.958   1.320  0.1290 -0.0403  0.3304
  280CLA    CLA22340   0.659   0.761   0.559  0.2731 -0.3466  0.1969
  281CLA    CLA22341   0.662   1.598   0.226  0.3760  0.1929  0.0722
  282CLA    CLA22342   0.623   1.135  11.217 -0.2404 -0.1631 -0.4024
  283CLA    CLA22343   6.344   1.922  13.424 -0.1116 -0.2214  0.3992
  284CLA    CLA22344   4.798   5.326  15.278  0.5416  0.0683 -0.0128
  285CLA    CLA22345   5.486   1.670   3.816  0.3750  0.4380 -0.0083
  286CLA    CLA22346   1.618   3.272  13.441  0.0006 -0.2175  0.1836
  287CLA    CLA22347   1.821   2.382  12.577  0.2213  0.2312 -0.2136
  288CLA    CLA22348   4.046   3.018   2.688  0.2187 -0.0142  0.0628
  289CLA    CLA22349   3.100   4.666  12.940 -0.1412  0.5162  0.2171
  290CLA    CLA22350   2.251   2.048   2.751  0.3890  0.1838 -0.3910
  291CLA    CLA22351   6.532   5.404  16.618  0.0648 -0.2836 -0.1321
  292CLA    CLA22352   6.643   0.477   0.287 -0.1881  0.3900  0.0179
  293CLA    CLA22353   2.574   4.102  16.783  0.1176  0.2292 -0.2180
  294CLA    CLA22354   4.433   2.582  12.071  0.0986  0.2562  0.1415
  295CLA    CLA22355   6.800   6.454   1.894  0.2041  0.1473 -0.4650
  296CLA    CLA22356   4.360   5.188   0.173 -0.2442 -0.2322 -0.1282
  297CLA    CLA22357   5.149   1.916  11.812  0.1555  0.0402  0.1329
  298CLA    CLA22358   4.051   3.296   0.749 -0.3548 -0.1700 -0.3359
  299CLA    CLA22359   1.721   2.456   4.757 -0.1396 -0.2517  0.0509
  300CLA    CLA22360   5.515   2.056   3.528 -0.5773 -0.0189 -0.1313
  301CLA    CLA22361   4.982   3.640  14.322 -0.2902  0.2172 -0.3589
  302CLA    CLA22362   3.693   0.983   1.739  0.0891  0.0278  0.1484
  303CLA    CLA22363   1.959   2.446  16.130  0.1413 -1.0431  0.1263
  304CLA    CLA22364   2.715   6.581  12.908 -0.3261 -0.3842 -0.4880
  305CLA    CLA22365   4.278   3.024  15.399  0.1257 -0.3992 -0.2680
  306CLA    CLA22366   2.130   0.268   0.268 -0.5379 -0.1151 -0.5648
  307CLA    CLA22367   2.050   5.226  12.952  0.4385  0.1148  0.0784
  308CLA    CLA22368   3.620   2.664  16.942 -0.1982 -0.2785 -0.4066
  309CLA    CLA22369   6.778   1.546  13.261  0.2375  0.3239  0.0373
  310CLA    CLA22370   3.125   2.956  14.626  0.1080  0.0119 -0.0996
  311CLA    CLA22371   1.548   5.078   1.865 -0.3565  0.2831  0.0585
  312CLA    CLA22372   5.560   3.076   2.314  0.2128  0.0239  0.0043
  313CLA    CLA22373   5.802   6.199   0.871  0.1006 -0.1766 -0.2878
  314CLA    CLA22374   4.626   4.483   2.741  0.0164  0.0389 -0.1021
  315CLA    CLA22375   0.923   3.400  14.053 -0.0678  0.2274 -0.6735
  316CLA    CLA22376   2.586   4.752  16.828  0.3319 -0.3380 -0.4122
  317CLA    CLA22377   2.748   4.197   3.086 -0.5747  0.5037 -0.3800
  318CLA    CLA22378   1.265   3.696  12.958 -0.0660  0.2230 -0.6826
  319CLA    CLA22379   5.825   2.287   2.846 -0.0118 -0.2930  0.0607
  320CLA    CLA22380   1.499   2.856  12.345  0.2144 -0.3940  0.2116
  321CLA    CLA22381   5.020   5.723   5.276 -0.0390  0.0100  0.2377
  322CLA    CLA22382   4.786   1.653  13.459 -0.0918  0.3674  0.3401
  323TIP3   OH222383   1.611   5.604  12.161  0.6399  0.2662 -0.0983
  323TIP3    H122384   1.519   5.630  12.160 -0.2156 -2.3698 -0.7940
  323TIP3    H222385   1.649   5.646  12.084 -0.3461  0.3752 -0.5380
  324TIP3   OH222386   1.787   3.709   5.586 -0.5750  0.1413 -0.0089
  324TIP3    H122387   1.713   3.674   5.536 -0.2492  1.5275 -1.5288
  324TIP3    H222388   1.747   3.756   5.659 -1.4029  2.7569 -2.0006
  325TIP3   OH222389   5.715   3.937  11.042 -0.2067 -0.5687  0.2563
  325TIP3    H122390   5.685   3.942  10.951  0.9563  0.3286 -0.1009
  325TIP3    H222391   5.810   3.928  11.035 -0.0509  0.0360  1.3883
  326TIP3   OH222392   4.901   4.570  13.755 -0.5236 -0.0423 -0.0402
  326TIP3    H122393   4.860   4.542  13.837 -0.5977  0.8230  0.2317
  326TIP3    H222394   4.933   4.659  13.774 -0.9624  0.3510 -1.0845
  327TIP3   OH222395   4.113   4.791  12.346 -0.3907  0.1186  0.0067
  327TIP3    H122396   4.180   4.859  12.342  0.3213 -0.5347  0.6240
  327TIP3    H222397   4.030   4.839  12.338  0.0904  1.0751  0.5336
  328TIP3   OH222398   6.418   1.932  16.948 -0.5748 -0.2409  0.5120
  328TIP3    H122399   6.417   2.004  17.012 -1.0134  0.3267 -0.1155
  328TIP3    H222400   6.457   1.972  16.870 -1.6544 -0.4261 -0.1349
  329TIP3   OH222401   0.257   6.757  15.540  0.1903  0.5118 -0.1605
  329TIP3    H122402   0.250   6.665  15.513  1.9301  0.3115 -0.0249
  329TIP3    H222403   0.182   6.771  15.598  1.6969 -1.8346  2.6024
  330TIP3   OH222404   0.955   5.129   5.547 -0.2724  0.4418  0.4790
  330TIP3    H122405   0.963   5.093   5.635 -0.5130  0.0328  0.3347
  330TIP3    H222406   0.938   5.222   5.562  1.9913  0.8599  0.8266
  331TIP3   OH222407   6.483   5.358   5.037  0.2645  0.1768  0.4207
  331TIP3    H122408   6.464   5.443   5.075 -0.0067  0.0827  0.5009
  331TIP3    H222409   6.411   5.343   4.975 -0.5727 -0.6908  1.5504
  332TIP3   OH222410   1.352   5.723   1.257  0.8554  0.4027 -0.2825
  332TIP3    H122411   1.356   5.777   1.336 -1.1054  1.0573 -0.5807
  332TIP3    H222412   1.411   5.650   1.275 -2.1371 -1.4553  3.3949
  333TIP3   OH222413   4.699   1.535   0.333 -0.0629  0.1641  0.4313
  333TIP3    H122414   4.612   1.500   0.354  0.1896 -0.1750  0.9416
  333TIP3    H222415   4.710   1.608   0.394 -1.0945  1.9824 -1.4419
  334TIP3   OH222416   4.745   1.169  15.093 -0.1713  0.2501  0.2982
  334TIP3    H122417   4.795   1.105  15.145 -0.6641  0.1715  0.6758
  334TIP3    H222418   4.723   1.122  15.013 -1.8940 -0.6004  1.2290
  335TIP3   OH222419   3.460   5.467   2.597  0.2221 -0.2471  0.7302
  335TIP3    H122420   3.504   5.393   2.556  0.7283  1.3090 -1.7366
  335TIP3    H222421   3.369   5.439   2.607  0.5203 -1.3849  0.3744
  336TIP3   OH222422   2.964   6.064   1.687  0.4971 -0.2601 -0.4452
  336TIP3    H122423   2.951   6.094   1.777  1.1521  0.1856 -0.4959
  336TIP3    H222424   3.010   5.980   1.696  0.7636 -0.1058 -0.3726
  337TIP3   OH222425   3.139   5.677   4.545  0.0640  0.4118  0.3727
  337TIP3    H122426   3.149   5.605   4.607 -0.8691  0.7926  0.9990
  337TIP3    H222427   3.186   5.750   4.585 -0.2619  0.5656  0.4790
  338TIP3   OH222428   6.171   6.152  14.716 -0.5552  0.1368 -0.2776
  338TIP3    H122429   6.097   6.169  14.774 -1.3002  0.2328 -1.2399
  338TIP3    H222430   6.202   6.065  14.741 -0.5027  0.4034  0.6364
  339TIP3   OH222431   5.285   0.521   4.877  0.0696 -0.3953  0.3693
  339TIP3    H122432   5.269   0.473   4.796 -0.4308 -0.0136  0.2359
  339TIP3    H222433   5.344   0.592   4.851  0.7256 -0.8616  0.5464
  340TIP3   OH222434   1.595   0.481  12.022  0.4453  0.0004  0.6036
  340TIP3    H122435   1.600   0.389  11.996  0.7953  0.9142 -3.1787
  340TIP3    H222436   1.681   0.517  11.999 -0.3455  1.6628  0.0925
  341TIP3   OH222437   2.648   0.784  11.292  0.1684  0.9722  0.5733
  341TIP3    H122438   2.593   0.836  11.350 -0.6473  0.7724 -0.0058
  341TIP3    H222439   2.706   0.735  11.351  0.2996  1.8026  1.1528
  342TIP3   OH222440   6.406   0.161  12.758  0.2540 -0.5611  0.0826
  342TIP3    H122441   6.347   0.090  12.785  1.3605 -1.7590 -0.5674
  342TIP3    H222442   6.434   0.137  12.670  1.0365  0.4481  0.0353
  343TIP3   OH222443   3.552   1.439   2.255  0.3569 -0.1822  0.3649
  343TIP3    H122444   3.494   1.370   2.286 -0.7051  0.4420 -0.2046
  343TIP3    H222445   3.640   1.407   2.276 -0.0661 -1.9909 -0.4547
  344TIP3   OH222446   3.255   3.896  12.716  0.3284  0.1108 -0.0684
  344TIP3    H122447   3.244   3.805  12.743  1.0562 -0.3925 -1.3669
  344TIP3    H222448   3.197   3.907  12.641  1.4181  0.2151 -0.9335
  345TIP3   OH222449   3.679   5.836   2.602 -0.1496  0.5137 -0.1351
  345TIP3    H122450   3.632   5.903   2.553  0.1521  1.9409  1.4530
  345TIP3    H222451   3.664   5.857   2.694  0.3755 -1.3192  0.4201
  346TIP3   OH222452   1.435   1.943  11.510 -0.4998  0.1296  0.1264
  346TIP3    H122453   1.433   1.984  11.424 -0.4111 -0.8785 -0.3671
  346TIP3    H222454   1.528   1.940  11.533 -0.5676  1.0148  0.5771
  347TIP3   OH222455   1.257   6.336   0.993  0.3555  0.4249  0.6741
  347TIP3    H122456   1.196   6.368   1.060 -0.5953  1.8616 -0.8133
  347TIP3    H222457   1.255   6.241   1.002 -1.5486  0.4773  1.1603
  348TIP3   OH222458   0.788   6.015   0.242 -0.3978 -0.4394 -0.6991
  348TIP3    H122459   0.733   6.074   0.190  0.6262  0.5755 -0.6513
  348TIP3    H222460   0.754   5.927   0.222 -1.0039  0.0503 -1.8960
  349TIP3   OH222461   3.525   2.023  16.679  0.5603 -0.0485 -0.1446
  349TIP3    H122462   3.492   1.973  16.604  1.9153  0.3209 -1.0411
  349TIP3    H222463   3.618   1.999  16.684  1.3988  2.6285 -0.9005
  350TIP3   OH222464   3.838   6.567   0.397 -0.3628 -0.4119 -0.1469
  350TIP3    H122465   3.765   6.602   0.346 -3.3761 -2.7723  2.1522
  350TIP3    H222466   3.862   6.487   0.352  0.9437  0.3813 -0.9213
  351TIP3   OH222467   0.601   3.100  14.281 -0.1818 -0.0332 -0.3690
  351TIP3    H122468   0.606   3.019  14.331 -1.5220 -0.3410 -0.6942
  351TIP3    H222469   0.546   3.078  14.205 -0.6498  1.1871 -0.4066
  352TIP3   OH222470   6.569   3.758   2.964 -0.6932 -0.2493  0.1034
  352TIP3    H122471   6.561   3.852   2.978  0.7835 -0.1150  0.2267
  352TIP3    H222472   6.659   3.746   2.932 -1.0628 -1.5444 -0.5062
  353TIP3   OH222473   3.039   1.919   6.098 -0.3886  0.3738  0.2256
  353TIP3    H122474   2.960   1.939   6.149 -2.5075 -1.0306 -2.2755
  353TIP3    H222475   3.072   1.838   6.137  0.4962  1.5209  1.9544
  354TIP3   OH222476   1.744   1.512   2.955  0.0187  0.6198  0.0564
  354TIP3    H122477   1.707   1.477   3.035 -0.0529 -1.1506 -0.7021
  354TIP3    H222478   1.668   1.529   2.899  0.1419  0.5059 -0.1465
  355TIP3   OH222479   2.474   5.872  12.335  0.2360  0.1882  0.1449
  355TIP3    H122480   2.559   5.836  12.309 -0.4654 -2.0932  0.7986
  355TIP3    H222481   2.494   5.933  12.406  1.4209  0.7186 -0.6164
  356TIP3   OH222482   5.670   2.881   3.276 -0.2026 -0.1525 -0.2530
  356TIP3    H122483   5.752   2.903   3.233  0.4331 -2.7537 -0.5274
  356TIP3    H222484   5.693   2.874   3.369 -0.4515  0.5074 -0.1362
  357TIP3   OH222485   0.116   2.301   3.735  0.0304 -0.3703 -0.3812
  357TIP3    H122486   0.049   2.340   3.790  0.4238 -1.2323  0.7501
  357TIP3    H222487   0.132   2.365   3.666  0.5173  1.3861  1.2844
  358TIP3   OH222488   2.410   6.068  14.547  0.3484 -0.1249  0.4416
  358TIP3    H122489   2.382   6.158  14.531 -1.2287 -0.2774  1.9837
  358TIP3    H222490   2.332   6.016  14.528 -0.1514 -0.7245  3.5673
  359TIP3   OH222491   0.260   0.289  14.521  0.6053 -0.1314 -0.2090
  359TIP3    H122492   0.283   0.198  14.542  1.0135 -0.4271 -1.8362
  359TIP3    H222493   0.170   0.285  14.490  0.6986 -0.0026 -0.4928
  360TIP3   OH222494   3.789   3.066  14.392  0.1979  0.4088  0.7322
  360TIP3    H122495   3.799   2.982  14.437  0.6817  0.5914  0.9740
  360TIP3    H222496   3.837   3.054  14.310 -1.5466 -0.2754 -0.2415
  361TIP3   OH222497   1.131   0.949   0.392 -0.2235  0.3271 -0.2258
  361TIP3    H122498   1.055   0.895   0.370 -0.2073 -1.0895  2.7165
  361TIP3    H222499   1.207   0.892   0.374 -0.0091  0.6176 -0.2529
  362TIP3   OH222500   4.828   3.054  11.380 -0.6713 -0.5603  0.4707
  362TIP3    H122501   4.889   3.123  11.353 -0.1932 -0.9836  0.4540
  362TIP3    H222502   4.786   3.088  11.458  0.2656 -0.6368  1.0213
  363TIP3   OH222503   1.648   1.666  15.810  0.4588  0.1374  0.1275
  363TIP3    H122504   1.605   1.642  15.893  0.2026 -0.8065 -0.2692
  363TIP3    H222505   1.588   1.635  15.742  1.6871 -1.1133 -0.4417
  364TIP3   OH222506   5.380   4.570   5.128  0.0997  0.2458  0.2387
  364TIP3    H122507   5.331   4.647   5.101 -1.1276 -0.3780  0.6169
  364TIP3    H222508   5.336   4.539   5.207  1.4502 -0.0225  0.9307
  365TIP3   OH222509   1.244   4.271   5.685  1.1677 -0.3705  0.8846
  365TIP3    H122510   1.218   4.353   5.728  0.7014  0.0395 -0.1536
  365TIP3    H222511   1.319   4.240   5.735  1.9605  1.1941  0.7081
  366TIP3   OH222512   3.609   0.465  11.534  0.1338  0.4899  0.1030
  366TIP3    H122513   3.594   0.451  11.441  2.5076  1.0513 -0.4452
  366TIP3    H222514   3.559   0.396  11.578 -1.7193  0.7528 -1.5135
  367TIP3   OH222515   2.341   1.799  13.276 -0.6141  0.1814 -0.5681
  367TIP3    H122516   2.416   1.752  13.313 -2.0203 -0.1853  2.0675
  367TIP3    H222517   2.364   1.892  13.286 -1.5439  0.1744  2.9895
  368TIP3   OH222518   3.844   6.558   1.736  0.2134  0.4276  0.0096
  368TIP3    H122519   3.885   6.513   1.811  0.9956 -1.7252 -1.6101
  368TIP3    H222520   3.758   6.584   1.768  0.0788 -1.4587  1.3689
  369TIP3   OH222521   4.344   4.423   5.450 -0.2747 -0.2785  0.1262
  369TIP3    H122522   4.358   4.342   5.402  0.1725 -0.6789  0.9201
  369TIP3    H222523   4.406   4.419   5.523  0.1064  0.9971 -0.0975
  370TIP3   OH222524   2.390   3.843  14.371 -0.4912  0.0764 -0.6682
  370TIP3    H122525   2.467   3.801  14.332 -1.1964 -1.2298 -0.7076
  370TIP3    H222526   2.400   3.935  14.350  0.8552 -0.1246 -1.0325
  371TIP3   OH222527   2.480   3.880  13.820  0.3732  0.4236  0.3219
  371TIP3    H122528   2.384   3.888  13.823  0.3233 -0.3054  0.9803
  371TIP3    H222529   2.500   3.811  13.884  1.1212 -1.1871 -1.5402
  372TIP3   OH222530   4.243   2.343  13.655  0.5702 -0.6457  0.7113
  372TIP3    H122531   4.231   2.248  13.648  0.3387 -0.6315  0.9252
  372TIP3    H222532   4.261   2.372  13.565  1.9051 -1.0668  0.8100
  373TIP3   OH222533   2.812   1.194   4.343  0.1901  0.6894  0.1562
  373TIP3    H122534   2.907   1.197   4.330  0.3670 -0.7896  0.8333
  373TIP3    H222535   2.802   1.182   4.438 -0.7299  2.1811  0.2707
  374TIP3   OH222536   3.003   1.445   0.632 -0.0228 -0.4644 -0.1671
  374TIP3    H122537   3.005   1.412   0.542 -0.9042  0.3988 -0.5292
  374TIP3    H222538   3.078   1.504   0.637 -0.3027 -0.0664 -0.5335
  375TIP3   OH222539   6.642   0.873  14.986 -0.4383 -0.3274 -0.9964
  375TIP3    H122540   6.556   0.902  14.955  0.1992  2.8332 -0.1318
  375TIP3    H222541   6.647   0.905  15.076  1.6180 -0.4614 -1.0223
  376TIP3   OH222542   3.008   4.517  12.677 -0.0578  0.5167  0.3468
  376TIP3    H122543   2.993   4.434  12.722 -1.1162 -0.2169 -1.2419
  376TIP3    H222544   3.027   4.579  12.747 -1.8597 -0.5014  1.8484
  377TIP3   OH222545   1.845   5.427   2.676  0.1707 -0.8025 -0.1080
  377TIP3    H122546   1.897   5.487   2.623  0.9305 -0.3387  1.1074
  377TIP3    H222547   1.761   5.471   2.687  0.7710  0.1599  0.8946
  378TIP3   OH222548   1.033   4.580   0.649  0.5641  0.1867  0.0105
  378TIP3    H122549   1.083   4.500   0.664  1.5867  0.9382  0.7202
  378TIP3    H222550   0.975   4.587   0.724  1.1252  0.5802  0.4141
  379TIP3   OH222551   5.992   6.368  15.871  0.3008 -0.0680 -0.7740
  379TIP3    H122552   5.924   6.385  15.938  0.0044 -1.3060 -0.7432
  379TIP3    H222553   6.074   6.381  15.918  0.0955 -0.8155 -0.1754
  380TIP3   OH222554   1.126   1.048   5.088  0.8181  0.2997  0.1517
  380TIP3    H122555   1.054   1.068   5.148 -0.4505 -0.2554 -1.1186
  380TIP3    H222556   1.186   1.123   5.097 -0.6053  1.4832  0.2465
  381TIP3   OH222557   2.863   0.225  14.934 -0.6882 -0.4384 -0.4583
  381TIP3    H122558   2.803   0.274  14.990 -1.2788 -1.5125 -0.1226
  381TIP3    H222559   2.915   0.292  14.890 -0.4788  0.4553  1.0711
  382TIP3   OH222560   4.268   1.465   5.040 -0.5894  0.3458 -0.1000
  382TIP3    H122561   4.350   1.477   5.086 -0.2170  0.3674 -0.7577
  382TIP3    H222562   4.211   1.420   5.103 -1.5079  3.9235  1.9177
  383TIP3   OH222563   1.800   6.796   2.133  0.6615  0.3419  0.1683
  383TIP3    H122564   1.861   6.836   2.195 -2.2123 -0.9689  4.2971
  383TIP3    H222565   1.717   6.841   2.149 -1.6319 -3.8547  1.8096
  384TIP3   OH222566   1.323   4.599  11.831 -0.1286  0.3898 -0.2310
  384TIP3    H122567   1.417   4.618  11.824 -0.1855  0.9613  0.4116
  384TIP3    H222568   1.318   4.503  11.832  0.3529  0.3389 -1.3827
  385TIP3   OH222569   5.596   6.545   2.262 -0.1693  0.6566 -0.0102
  385TIP3    H122570   5.598   6.557   2.167  0.2425 -0.9979 -0.2511
  385TIP3    H222571   5.507   6.517   2.282  0.1481 -0.5657 -0.1747
  386TIP3   OH222572   4.049   0.587   3.406 -0.1824  0.0248 -0.2363
  386TIP3    H122573   4.010   0.561   3.490  1.2842  0.2240  0.5404
  386TIP3    H222574   3.990   0.655   3.373 -0.9581 -0.2717  0.4701
  387TIP3   OH222575   1.529   1.665  13.624 -0.9816  0.5328 -0.4092
  387TIP3    H122576   1.589   1.622  13.685 -0.4377  1.8775  0.0385
  387TIP3    H222577   1.496   1.594  13.569 -0.2816 -0.4788  0.4328
  388TIP3   OH222578   0.019   3.483  16.111 -0.5994 -0.4178 -0.0839
  388TIP3    H122579   0.036   3.565  16.158  1.6281 -1.7762  1.7256
  388TIP3    H222580  -0.076   3.472  16.115 -0.6465  0.1621  3.1602
  389TIP3   OH222581   3.505   0.686  14.747 -0.0438 -0.4078 -0.1716
  389TIP3    H122582   3.579   0.722  14.699  0.6843 -1.8565 -0.1802
  389TIP3    H222583   3.487   0.751  14.816 -1.4946  2.0040 -2.6351
  390TIP3   OH222584   5.583   5.038   4.294 -0.2834  0.3802 -0.0831
  390TIP3    H122585   5.597   5.048   4.388  0.6847  1.7660 -0.3553
  390TIP3    H222586   5.496   5.074   4.279  0.0217  1.2254  0.1231
  391TIP3   OH222587   0.215   3.234   4.992 -0.6087 -0.8042 -0.5905
  391TIP3    H122588   0.231   3.277   5.076 -1.7706  0.4753 -0.9819
  391TIP3    H222589   0.200   3.142   5.014 -1.6411 -0.3541  0.6968
  392TIP3   OH222590   4.168   2.216  14.515 -0.0109 -0.3557 -0.5119
  392TIP3    H122591   4.188   2.149  14.580 -1.3734 -2.0023 -1.6944
  392TIP3    H222592   4.082   2.250  14.539  0.2468  0.2867 -0.4712
  393TIP3   OH222593   4.289   1.203  15.747 -0.4767  0.1842 -0.2016
  393TIP3    H122594   4.256   1.221  15.659  2.0398  0.7047 -1.1380
  393TIP3    H222595   4.321   1.113  15.743  0.1855  0.4047 -0.0123
  394TIP3   OH222596   2.014   3.123  15.480  0.0771 -0.8558  0.1657
  394TIP3    H122597   1.996   3.189  15.413  0.6017 -0.4412  0.4240
  394TIP3    H222598   1.931   3.076  15.490  0.2982 -1.6585 -1.5513
  395TIP3   OH222599   2.777   5.394  14.520  0.3040 -0.0694 -0.4031
  395TIP3    H122600   2.823   5.396  14.604  1.3585 -0.9951 -0.9532
  395TIP3    H222601   2.839   5.429  14.457 -0.4095  0.4172 -0.8603
  396TIP3   OH222602   5.330   0.191   2.470 -0.5914 -0.0670 -0.3364
  396TIP3    H122603   5.277   0.170   2.394 -0.6743 -0.4925 -0.1634
  396TIP3    H222604   5.411   0.226   2.434 -1.4199  1.6870 -0.5902
  397TIP3   OH222605   3.029   2.576  14.815 -0.0462  0.2567 -0.0521
  397TIP3    H122606   3.017   2.490  14.775 -0.6945  1.0107 -1.5689
  397TIP3    H222607   3.105   2.613  14.770  1.3241 -0.1677  1.8116
  398TIP3   OH222608   4.132   1.039  14.722 -0.2420 -0.1675 -1.1385
  398TIP3    H122609   4.214   1.062  14.765 -0.6389  0.1836 -0.5510
  398TIP3    H222610   4.158   1.004  14.637  0.4573  1.4777 -1.6501
  399TIP3   OH222611   0.136   6.158   1.827  0.0008 -0.2691 -0.0750
  399TIP3    H122612   0.046   6.125   1.818 -0.3807  0.8211 -0.4079
  399TIP3    H222613   0.125   6.252   1.843  1.1238  0.1360 -1.5715
  400TIP3   OH222614   0.165   4.145   3.728 -0.0024  0.0393 -0.1415
  400TIP3    H122615   0.211   4.150   3.812  0.2528 -0.9388 -0.2154
  400TIP3    H222616   0.107   4.070   3.737  1.1825 -1.0842 -1.3876
  401TIP3   OH222617   6.352   1.751  12.135 -0.3925 -0.1475  0.1836
  401TIP3    H122618   6.366   1.778  12.226 -0.6911  0.6078  0.0143
  401TIP3    H222619   6.440   1.742  12.099 -0.2520 -1.1109  0.7237
  402TIP3   OH222620   2.859   0.846   3.957  0.6732  0.3629 -0.3003
  402TIP3    H122621   2.800   0.835   3.882  2.0593  0.9777 -1.5427
  402TIP3    H222622   2.816   0.913   4.011 -0.1625  0.1967 -0.7392
  403TIP3   OH222623   5.002   0.930  13.811  0.6444  0.3442 -0.3700
  403TIP3    H122624   5.084   0.956  13.768  1.2912 -0.0261  0.6073
  403TIP3    H222625   4.994   0.836  13.794  0.0005  0.5261 -1.1303
  404TIP3   OH222626   3.679   6.779   3.985  0.2227  0.1262  0.2199
  404TIP3    H122627   3.685   6.840   3.911 -0.0722  0.3613  0.3887
  404TIP3    H222628   3.644   6.832   4.056 -1.8081 -0.6794 -0.1294
  405TIP3   OH222629   4.633   3.184   5.531  0.4676 -0.4173 -0.4721
  405TIP3    H122630   4.679   3.246   5.475  1.4535 -0.6412  0.0723
  405TIP3    H222631   4.649   3.099   5.491 -2.1036 -0.2572 -2.0676
  406TIP3   OH222632   3.872   6.635   4.552  0.2019  0.0139  0.6076
  406TIP3    H122633   3.802   6.588   4.597  0.3553 -0.4857  0.3344
  406TIP3    H222634   3.828   6.706   4.505 -0.0815 -0.1035  0.6981
  407TIP3   OH222635   2.543   1.529  16.820 -0.5409 -0.8834  0.4040
  407TIP3    H122636   2.583   1.590  16.883  0.1027  1.2850 -1.9371
  407TIP3    H222637   2.451   1.525  16.847 -0.6388  1.2441  0.6169
  408TIP3   OH222638   2.882   4.505   4.008  0.0717  0.4606  0.4863
  408TIP3    H122639   2.878   4.438   4.076 -0.6385 -0.8302 -0.7701
  408TIP3    H222640   2.973   4.534   4.007  1.0114 -2.2290 -0.5197
  409TIP3   OH222641   1.809   5.580  11.905 -0.1903  0.2344  0.1460
  409TIP3    H122642   1.780   5.490  11.920  1.0836 -0.2744 -0.3786
  409TIP3    H222643   1.899   5.582  11.936  0.3409  0.8854 -1.3685
  410TIP3   OH222644   3.113   6.436  15.759  0.8044 -0.4988  0.1151
  410TIP3    H122645   3.111   6.449  15.854 -1.4503 -0.8297  0.1792
  410TIP3    H222646   3.137   6.522  15.724 -0.8547  0.3445  0.9345
  411TIP3   OH222647   3.000   1.827   1.060 -0.2142  0.1516 -0.2516
  411TIP3    H122648   3.003   1.777   0.979  0.6204 -0.8352  0.3567
  411TIP3    H222649   2.915   1.871   1.058  0.0188  0.5916 -1.8891
  412TIP3   OH222650   3.014   2.918   3.474 -0.2158 -0.3136 -0.4817
  412TIP3    H122651   2.934   2.960   3.506 -1.0481 -2.5346  0.5704
  412TIP3    H222652   3.084   2.979   3.497 -1.1261 -0.3197  2.8805
  413TIP3   OH222653   2.033   5.198  10.790 -0.3614  0.2054  0.2951
  413TIP3    H122654   2.102   5.174  10.851 -0.9129 -3.6305 -0.3205
  413TIP3    H222655   1.954   5.156  10.826 -1.3954  0.6815 -1.3159
  414TIP3   OH222656   4.915   6.490  15.714  0.0481 -0.9755  0.3388
  414TIP3    H122657   4.972   6.556  15.753  1.0196 -2.0084  0.7020
  414TIP3    H222658   4.880   6.441  15.789 -0.2593 -1.2081  0.0489
  415TIP3   OH222659   4.894   4.822   1.971  0.2807  0.3452 -0.1379
  415TIP3    H122660   4.889   4.754   2.038  0.6377  0.1388 -0.3165
  415TIP3    H222661   4.811   4.869   1.978 -0.1679 -0.4091 -0.3383
  416TIP3   OH222662   0.508   2.848  12.524 -0.1337  0.8222 -0.4938
  416TIP3    H122663   0.480   2.869  12.614  0.0949  1.4670 -0.5689
  416TIP3    H222664   0.460   2.909  12.469 -0.5427  0.1903 -0.8527
  417TIP3   OH222665   1.589   2.099  15.240 -0.0299  0.7831  0.3133
  417TIP3    H122666   1.546   2.131  15.161 -0.7707  0.1083  0.4322
  417TIP3    H222667   1.532   2.128  15.311 -0.7656 -0.7999  0.4240
  418TIP3   OH222668   0.242   4.780  15.782 -0.5129 -0.3090  0.1413
  418TIP3    H122669   0.244   4.722  15.706 -1.1911 -2.5350  1.7134
  418TIP3    H222670   0.170   4.841  15.765 -0.3369 -0.4481 -1.1810
  419TIP3   OH222671   0.270   1.433   4.277  0.4855 -0.4768  0.3723
  419TIP3    H122672   0.195   1.419   4.220 -0.8502  1.4019  1.5100
  419TIP3    H222673   0.279   1.352   4.326  0.3147 -1.3455 -1.0012
  420TIP3   OH222674   1.319   0.264   5.967  0.4134 -1.0124 -0.8183
  420TIP3    H122675   1.250   0.294   5.908  0.4231 -0.5098 -0.5827
  420TIP3    H222676   1.272   0.219   6.037  0.0412  1.7303  0.8269
  421TIP3   OH222677   4.658   2.253  13.799  0.5102  0.2984 -0.2673
  421TIP3    H122678   4.582   2.263  13.741  0.7052  1.1193 -0.3970
  421TIP3    H222679   4.664   2.337  13.845  1.1582  0.1293 -0.0356
  422TIP3   OH222680   1.249   0.721  11.249  0.1835  1.2101 -0.1436
  422TIP3    H122681   1.344   0.724  11.233  0.1978 -0.4516 -0.5683
  422TIP3    H222682   1.218   0.647  11.196 -0.8792 -0.1465  2.1825
  423TIP3   OH222683   4.055   3.752   4.176  0.4482  0.0525 -0.5262
  423TIP3    H122684   4.000   3.724   4.102  1.1180 -1.7698 -0.4004
  423TIP3    H222685   4.144   3.751   4.141  0.7456 -0.5823  0.2239
  424TIP3   OH222686   3.184   4.368   2.195  0.1897 -0.7580  0.2318
  424TIP3    H122687   3.173   4.462   2.209 -0.6452 -0.7981 -0.0965
  424TIP3    H222688   3.275   4.357   2.171 -0.2248  0.2587 -1.9946
  425TIP3   OH222689   2.241   0.965  15.657 -0.6719  0.5623 -0.4369
  425TIP3    H122690   2.300   0.986  15.584  0.6559 -0.0028  0.4330
  425TIP3    H222691   2.266   1.026  15.727 -2.0516  1.2188 -0.4694
  426TIP3   OH222692   5.667   0.216  16.218 -0.1906 -0.2439 -0.4631
  426TIP3    H122693   5.643   0.308  16.232  0.5171  0.1501 -1.6490
  426TIP3    H222694   5.599   0.166  16.262  0.3183  0.8451  1.6649
  427TIP3   OH222695   0.868   0.194  11.661 -0.2324 -0.3562 -0.0345
  427TIP3    H122696   0.879   0.253  11.735 -1.4549 -1.3591  1.0045
  427TIP3    H222697   0.874   0.250  11.584  3.5502  0.3761  0.6251
  428TIP3   OH222698   6.691   0.124  14.664 -0.3292 -0.7786 -0.1321
  428TIP3    H122699   6.693   0.079  14.579  1.6603  0.5298 -0.8524
  428TIP3    H222700   6.724   0.059  14.725  0.5738 -0.9820 -0.8086
  429TIP3   OH222701   5.806   2.996  13.321  0.1639  0.1924 -0.0367
  429TIP3    H122702   5.850   2.938  13.258  0.0986 -0.2773  0.3496
  429TIP3    H222703   5.755   3.056  13.266  1.2914  0.7641 -0.4985
  430TIP3   OH222704   3.091   2.724  11.681 -0.9086 -0.3049  0.1044
  430TIP3    H122705   3.072   2.788  11.749  1.4770 -0.1380  0.6975
  430TIP3    H222706   3.123   2.647  11.728 -2.5384 -1.5347 -0.6720
  431TIP3   OH222707   3.068   6.195  13.287  0.0225  0.1773 -0.3827
  431TIP3    H122708   3.107   6.128  13.343 -0.1999  0.7406  0.4690
  431TIP3    H222709   3.139   6.222  13.229  0.4104 -0.0523 -0.0250
  432TIP3   OH222710   5.380   2.413  14.512 -0.4670  0.2478  0.1200
  432TIP3    H122711   5.351   2.498  14.478  0.7091  0.8213  0.5043
  432TIP3    H222712   5.476   2.419  14.514 -0.4191 -0.6253  1.3346
  433TIP3   OH222713   0.014   3.732  15.673  0.0820 -0.4600 -0.5277
  433TIP3    H122714   0.013   3.812  15.725 -0.1315 -0.7233 -0.1264
  433TIP3    H222715   0.005   3.662  15.737 -0.8732 -0.7572 -0.9771
  434TIP3   OH222716   4.704   3.977   0.489  0.2030 -0.2810  0.3658
  434TIP3    H122717   4.700   3.881   0.483  0.2253 -0.2120 -1.5352
  434TIP3    H222718   4.634   4.000   0.549  0.0590 -1.4828  0.6988
  435TIP3   OH222719   4.900   1.892   3.368  0.3125  0.3811  0.0694
  435TIP3    H122720   4.878   1.950   3.295  0.6031  1.6442  0.9447
  435TIP3    H222721   4.948   1.948   3.429  1.9800 -1.1686  0.2595
  436TIP3   OH222722   3.508   1.469   4.586  0.5520 -0.1484  0.3304
  436TIP3    H122723   3.547   1.505   4.666 -0.0065  1.6925 -0.1940
  436TIP3    H222724   3.429   1.424   4.616  2.0394 -2.4399  1.1817
  437TIP3   OH222725   3.705   5.747  14.150  0.1407  0.2306 -0.0828
  437TIP3    H122726   3.734   5.662  14.184 -0.3120  1.2183  3.2104
  437TIP3    H222727   3.619   5.730  14.111  1.0889 -1.1696 -1.6694
  438TIP3   OH222728   4.221   4.071  14.171  0.5979  0.5715 -0.4506
  438TIP3    H122729   4.211   4.085  14.265 -0.4978  0.3488 -0.5252
  438TIP3    H222730   4.314   4.089  14.154  1.0661 -0.4902  0.8452
  439TIP3   OH222731   6.687   0.530   1.279  1.0195  0.0149  0.0393
  439TIP3    H122732   6.758   0.583   1.243  1.8827 -3.0232 -3.4524
  439TIP3    H222733   6.729   0.446   1.300 -1.3914 -2.0298 -2.4996
  440TIP3   OH222734   3.053   1.399  15.055  0.8019 -0.3468 -0.0649
  440TIP3    H122735   2.977   1.407  15.113 -1.0219  0.1730 -2.3539
  440TIP3    H222736   3.070   1.304  15.052  1.7673 -0.3066  2.2076
  441TIP3   OH222737   0.308   6.617  15.169 -0.5693 -0.3247 -0.2537
  441TIP3    H122738   0.362   6.569  15.231  1.3947  0.7797 -1.0214
  441TIP3    H222739   0.356   6.697  15.151 -2.9501  1.2191 -0.2674
  442TIP3   OH222740   0.790   4.161   0.266  0.1298 -0.8050 -0.3039
  442TIP3    H122741   0.785   4.115   0.182  0.9356 -0.2650 -0.6602
  442TIP3    H222742   0.785   4.092   0.332 -2.4391 -1.1145 -0.7059
  443TIP3   OH222743   3.130   5.168  15.885  0.1273 -0.2699  0.2164
  443TIP3    H122744   3.091   5.135  15.966 -1.0312  1.2562  0.3350
  443TIP3    H222745   3.076   5.129  15.816  0.1231 -0.3283  0.2519
  444TIP3   OH222746   4.887   0.764   2.699  0.1297  0.1670  0.3386
  444TIP3    H122747   4.875   0.838   2.640 -0.8463  0.3785  0.7872
  444TIP3    H222748   4.920   0.804   2.780 -2.1704  0.3902  1.2282
  445TIP3   OH222749   2.823   5.064   2.760  0.2046 -0.0376  0.1885
  445TIP3    H122750   2.764   5.126   2.802  0.5607  1.2182 -1.0762
  445TIP3    H222751   2.835   4.994   2.825 -1.7037  0.2603  0.9110
  446TIP3   OH222752   4.781   2.993   4.976 -0.2017 -0.0803  0.0345
  446TIP3    H122753   4.801   3.051   4.902  0.3239 -0.0938  0.1674
  446TIP3    H222754   4.686   2.983   4.972 -0.2318  0.3035 -0.3555
  447TIP3   OH222755   2.230   4.883  12.553  0.1085 -0.1125  0.6876
  447TIP3    H122756   2.230   4.905  12.460 -2.4733  1.5075  0.9771
  447TIP3    H222757   2.211   4.965  12.597 -2.6023 -1.4899  2.3446
  448TIP3   OH222758   1.865   6.402  11.193  0.4870  0.2640 -0.4526
  448TIP3    H122759   1.925   6.387  11.266 -0.0373 -0.2417 -0.1210
  448TIP3    H222760   1.779   6.375  11.226 -0.2114  2.2889 -0.4129
  449TIP3   OH222761   3.454   0.034   1.613 -0.2959  0.2899  0.1657
  449TIP3    H122762   3.426   0.058   1.701  0.4486 -0.0206  0.4988
  449TIP3    H222763   3.374   0.031   1.561 -0.6769  1.0405  0.7001
  450TIP3   OH222764   3.546   2.573  11.818 -0.5098  0.1288 -0.5886
  450TIP3    H122765   3.513   2.661  11.838  0.9638  0.9213 -1.4485
  450TIP3    H222766   3.485   2.539  11.753  0.4795  1.7193 -2.4544
  451TIP3   OH222767   4.801   2.640   1.317  0.4816 -0.0641  0.1875
  451TIP3    H122768   4.855   2.588   1.375 -2.8524 -3.8185  0.3659
  451TIP3    H222769   4.784   2.721   1.365  2.7502 -0.4015  1.6570
  452TIP3   OH222770   1.337   3.595   1.921 -0.3929 -0.3955  0.2652
  452TIP3    H122771   1.324   3.612   1.828 -1.1216 -0.4355  0.3542
  452TIP3    H222772   1.329   3.680   1.963 -0.8286 -0.4821  0.3666
  453TIP3   OH222773   2.078   0.644   3.821  0.1376  0.4027 -0.1792
  453TIP3    H122774   2.049   0.707   3.887 -0.7306 -1.4968  1.3527
  453TIP3    H222775   2.166   0.620   3.848  0.3237  0.6362 -0.5537
  454TIP3   OH222776   2.519   1.623   4.834  0.1451  0.8365  0.6026
  454TIP3    H122777   2.574   1.701   4.824  0.3074  0.4547 -2.5298
  454TIP3    H222778   2.577   1.549   4.815 -0.8978  0.2851 -0.6750
  455TIP3   OH222779   5.734   2.606   1.234 -0.1385  0.5025 -0.3690
  455TIP3    H122780   5.799   2.560   1.180  0.5546  0.1469  0.7291
  455TIP3    H222781   5.657   2.613   1.178 -0.6905 -2.9890 -0.2523
  456TIP3   OH222782   4.505   4.880  15.726 -0.1886 -0.7968 -0.3715
  456TIP3    H122783   4.560   4.802  15.726  0.7149 -0.1818 -0.8096
  456TIP3    H222784   4.560   4.948  15.766 -1.0877 -0.4664  0.3350
  457TIP3   OH222785   0.392   2.480   6.126  0.8715  0.1699 -0.0025
  457TIP3    H122786   0.423   2.405   6.176 -0.5840 -0.6226 -0.2305
  457TIP3    H222787   0.471   2.529   6.104  1.8247 -1.1767  0.3328
  458TIP3   OH222788   4.747   6.520  15.312  0.0231  0.7166  0.4486
  458TIP3    H122789   4.805   6.448  15.338  0.8248  1.7786  1.7329
  458TIP3    H222790   4.723   6.500  15.222  1.2431 -0.4929  0.3522
  459TIP3   OH222791   0.309   5.502   5.247 -0.0480 -0.5815  0.0923
  459TIP3    H122792   0.283   5.472   5.160  2.2482  0.7778 -1.1499
  459TIP3    H222793   0.404   5.494   5.248  0.0784  0.5126  2.0719
  460TIP3   OH222794   3.071   0.398  10.418  0.2714  0.0128  0.5823
  460TIP3    H122795   3.143   0.448  10.455  1.0153 -0.6815  0.0938
  460TIP3    H222796   2.993   0.430  10.464  0.8874  0.7487  1.1277
  461TIP3   OH222797   6.380   4.343  14.599  0.6707  0.4977  0.4613
  461TIP3    H122798   6.399   4.320  14.690 -1.0983  0.3704  0.8308
  461TIP3    H222799   6.343   4.431  14.604 -0.4318  0.0750  0.0093
  462TIP3   OH222800   3.167   3.261   1.889 -0.1208  0.0157  0.0534
  462TIP3    H122801   3.074   3.274   1.907 -0.4191 -1.0310 -0.6068
  462TIP3    H222802   3.212   3.323   1.946 -1.1875 -0.0355  0.9847
  463TIP3   OH222803   4.827   6.794  11.744  0.6366  0.5239  0.2710
  463TIP3    H122804   4.818   6.790  11.649  2.5226  0.5022  0.0610
  463TIP3    H222805   4.869   6.878  11.761 -0.9432  1.1519  1.2232
  464TIP3   OH222806   1.712   3.265  14.630  0.0945  0.0443 -0.0334
  464TIP3    H122807   1.627   3.277  14.672 -0.6069  0.0918 -1.4320
  464TIP3    H222808   1.774   3.256  14.703 -0.9504  1.0287  0.9968
  465TIP3   OH222809   0.306   6.081  12.341  0.2062 -0.2666 -0.0251
  465TIP3    H122810   0.354   6.115  12.417  2.2145 -2.6587 -0.1074
  465TIP3    H222811   0.219   6.060  12.376  0.3616  0.7151  1.0319
  466TIP3   OH222812   5.572   3.230  15.964  0.2622  0.3218  0.8201
  466TIP3    H122813   5.648   3.281  15.937  0.1181 -0.2351 -0.7359
  466TIP3    H222814   5.589   3.142  15.932 -0.3991 -0.1473  1.7107
  467TIP3   OH222815   4.774   5.486  16.698  0.3926  0.0427 -0.3155
  467TIP3    H122816   4.709   5.416  16.692  0.3722 -0.0022  0.4459
  467TIP3    H222817   4.801   5.500  16.607 -0.0689 -0.5117 -0.5470
  468TIP3   OH222818   4.437   2.405  12.345  0.4671  0.2588 -0.0002
  468TIP3    H122819   4.504   2.447  12.398  0.6566  0.5837 -0.4905
  468TIP3    H222820   4.432   2.459  12.266 -0.3129  0.1875 -0.0027
  469TIP3   OH222821   4.622   0.727  12.262 -0.6370  0.0823 -0.3496
  469TIP3    H122822   4.694   0.703  12.320 -0.2231 -0.7747 -1.1999
  469TIP3    H222823   4.573   0.793  12.311  1.6951  2.0222 -0.4433
  470TIP3   OH222824   1.425   2.798   2.074  0.1546  0.1212 -0.5610
  470TIP3    H122825   1.502   2.851   2.093  0.4068 -1.1400  2.6215
  470TIP3    H222826   1.437   2.719   2.128 -1.7060 -1.7305 -2.6671
  471TIP3   OH222827   1.117   3.520   4.426 -0.3463 -0.0639  0.0964
  471TIP3    H122828   1.025   3.537   4.406 -0.6316 -0.1713  1.2454
  471TIP3    H222829   1.162   3.530   4.342 -1.3701  0.2144 -0.4366
  472TIP3   OH222830   4.934   0.549   2.208 -0.4356  0.0348  0.5433
  472TIP3    H122831   4.916   0.643   2.213 -0.6791  0.1129 -1.2471
  472TIP3    H222832   5.019   0.540   2.251 -0.5350  1.0237  0.9951
  473TIP3   OH222833   4.273   4.545   2.177 -0.2272 -0.2314  0.2532
  473TIP3    H122834   4.234   4.582   2.256 -0.1504 -0.7149  0.5184
  473TIP3    H222835   4.351   4.500   2.209  0.2446  0.2490 -0.1993
  474TIP3   OH222836   6.555   5.426  14.373 -0.5753  0.0167  0.0456
  474TIP3    H122837   6.535   5.337  14.400 -0.2067  0.3126  1.3773
  474TIP3    H222838   6.651   5.431  14.375 -0.6026  0.5648  0.4675
  475TIP3   OH222839   3.162   2.657   5.242  0.4042 -0.4216  0.1472
  475TIP3    H122840   3.149   2.625   5.332  1.6507 -1.8178 -0.1302
  475TIP3    H222841   3.249   2.624   5.217  0.3125  0.4140 -1.3755
  476TIP3   OH222842   4.008   0.970  12.781  0.1391  0.3732  0.1803
  476TIP3    H122843   4.012   1.066  12.779 -1.4205  0.4707 -1.5334
  476TIP3    H222844   3.960   0.947  12.702 -1.5058 -1.7243  1.6759
  477TIP3   OH222845   5.568   5.753  13.601 -0.5094  0.4741  0.1325
  477TIP3    H122846   5.548   5.785  13.513  0.1831  1.6007  0.3611
  477TIP3    H222847   5.570   5.658  13.592  3.1512  0.5291 -1.9660
  478TIP3   OH222848   3.482   0.689  10.910 -0.1745  0.0588 -0.0029
  478TIP3    H122849   3.498   0.641  10.991 -0.2803  1.1532  0.6959
  478TIP3    H222850   3.414   0.639  10.865 -0.3320 -0.3977  0.7336
  479TIP3   OH222851   4.429   6.565  15.011 -0.5660  0.6085  0.0699
  479TIP3    H122852   4.396   6.636  15.066  1.6413  0.6322  1.4820
  479TIP3    H222853   4.437   6.490  15.069  0.2925  0.1642 -0.5916
  480TIP3   OH222854   1.422   2.362   2.425 -0.7339 -0.2416  0.4675
  480TIP3    H122855   1.378   2.277   2.415 -1.7371  0.2385  0.6705
  480TIP3    H222856   1.470   2.354   2.508  0.8211 -1.2992 -0.4887
  481TIP3   OH222857   5.628   3.133   1.625  0.1330 -0.5607  0.3012
  481TIP3    H122858   5.691   3.154   1.556  3.1725 -0.8441  2.7760
  481TIP3    H222859   5.642   3.201   1.691 -1.0264 -1.5728  1.6484
  482TIP3   OH222860   3.668   2.921  14.972  0.1515 -0.6499  0.2441
  482TIP3    H122861   3.600   2.947  14.910  1.1454  2.5578  0.3096
  482TIP3    H222862   3.643   2.963  15.054  0.3889 -2.4391  1.3000
  483TIP3   OH222863   2.810   4.725  16.265  0.0204  0.0687 -0.0389
  483TIP3    H122864   2.772   4.783  16.331  0.0721 -0.3188  0.3327
  483TIP3    H222865   2.797   4.636  16.300  0.6280 -0.1056 -0.2459
  484TIP3   OH222866   4.241   6.437  15.660  0.0875  0.1572  0.0928
  484TIP3    H122867   4.185   6.455  15.585 -0.3071 -2.3139 -0.2838
  484TIP3    H222868   4.317   6.393  15.623 -0.9938 -2.9148  1.1967
  485TIP3   OH222869   0.379   3.437  14.217  0.1207  0.1448  0.2579
  485TIP3    H122870   0.457   3.488  14.195 -0.8047  1.1680 -0.7974
  485TIP3    H222871   0.381   3.363  14.157 -0.0666  0.5469 -0.2578
  486TIP3   OH222872   3.560   4.588   2.963  0.1922 -0.2530 -0.4740
  486TIP3    H122873   3.546   4.681   2.984 -1.6712 -0.0068 -2.4683
  486TIP3    H222874   3.559   4.544   3.048  1.5565  1.5626  0.5546
  487TIP3   OH222875   4.183   0.504   3.982  0.0983  0.3460 -0.2934
  487TIP3    H122876   4.274   0.475   3.974  0.2576  0.9960 -0.9053
  487TIP3    H222877   4.135   0.450   3.919 -0.1158 -0.6327  0.6582
  488TIP3   OH222878   4.306   4.335  14.712 -0.2294 -0.1424 -0.0101
  488TIP3    H122879   4.361   4.413  14.712 -1.0271  0.4312  0.3344
  488TIP3    H222880   4.225   4.361  14.757 -0.3945 -1.2491  0.3865
  489TIP3   OH222881   3.024   0.825   4.530  0.4753  0.1255  0.0198
  489TIP3    H122882   3.102   0.840   4.477  0.3177  1.2638  0.1021
  489TIP3    H222883   2.954   0.870   4.482  0.0013 -0.2842  0.3179
  490TIP3   OH222884   2.518   4.159   4.530 -0.1309 -0.0432  0.3817
  490TIP3    H122885   2.472   4.087   4.487  1.9108 -0.7905 -0.7129
  490TIP3    H222886   2.462   4.183   4.603 -2.0269 -1.1343 -0.6379
  491TIP3   OH222887   4.356   6.585  12.751 -0.0961 -0.2960  0.2858
  491TIP3    H122888   4.264   6.567  12.766 -0.1127 -1.2953 -0.9493
  491TIP3    H222889   4.392   6.504  12.715  0.8463  0.6650 -1.0183
  492TIP3   OH222890   3.350   3.064  12.241 -0.8185  0.4842  0.2708
  492TIP3    H122891   3.310   3.064  12.154  1.7039 -0.4135 -0.9978
  492TIP3    H222892   3.365   3.157  12.261 -2.5642  0.7746  0.3794
  493TIP3   OH222893   3.162   1.377  14.176 -0.0400  0.2936  0.1288
  493TIP3    H122894   3.142   1.293  14.217  0.3167 -0.7626 -1.7373
  493TIP3    H222895   3.246   1.363  14.132  0.4556  1.9110  0.4794
  494TIP3   OH222896   0.431   6.439  13.156 -0.6095  0.0797 -0.2824
  494TIP3    H122897   0.429   6.474  13.067  0.0428 -0.5252 -0.5496
  494TIP3    H222898   0.416   6.514  13.213 -0.3487  0.5864 -0.8828
  495TIP3   OH222899   5.247   0.936   2.569  0.4437  0.4134  0.3802
  495TIP3    H122900   5.157   0.939   2.604  0.3345  2.4577  0.0258
  495TIP3    H222901   5.297   0.892   2.638 -0.9076 -1.2960  0.3353
  496TIP3   OH222902   4.273   1.347   0.560  0.6125  0.0042  0.2773
  496TIP3    H122903   4.221   1.350   0.480  0.7263 -1.3192  0.1254
  496TIP3    H222904   4.221   1.295   0.621  1.8623 -1.6239  0.0098
  497TIP3   OH222905   2.839   3.857  14.246 -0.1851  0.0806 -0.0205
  497TIP3    H122906   2.867   3.778  14.292  0.6941  0.9636  1.0280
  497TIP3    H222907   2.770   3.894  14.301  0.7585  1.0568  0.5387
  498TIP3   OH222908   5.695   1.228  13.725  0.1031  0.6265  0.5423
  498TIP3    H122909   5.787   1.200  13.724 -0.4001 -1.2806 -1.9546
  498TIP3    H222910   5.662   1.197  13.809  1.0731 -1.1893  0.3040
  499TIP3   OH222911   4.196   4.705  15.388  0.3701  0.3598 -0.7944
  499TIP3    H122912   4.118   4.746  15.427  1.3241  1.4030  0.1117
  499TIP3    H222913   4.269   4.754  15.426  1.5547 -1.7800 -0.2018
  500TIP3   OH222914   1.487   3.556   2.807  0.1867  0.0011 -0.1634
  500TIP3    H122915   1.468   3.649   2.793  1.3373  0.2728  0.0209
  500TIP3    H222916   1.538   3.554   2.887 -0.3990 -0.8691  0.1958
  501TIP3   OH222917   5.682   1.145   3.582  0.1097  0.1219 -0.1703
  501TIP3    H122918   5.598   1.105   3.604  1.4795 -2.4324  0.8033
  501TIP3    H222919   5.668   1.239   3.596 -2.3496 -0.2972  0.6591
  502TIP3   OH222920   4.779   3.666   1.573 -1.0892 -0.5096 -0.1614
  502TIP3    H122921   4.745   3.688   1.660  0.0888  0.5894  0.0565
  502TIP3    H222922   4.852   3.606   1.591 -1.6063 -1.2467 -0.4841
  503TIP3   OH222923   0.105   5.040   2.216  0.2408  0.0638  0.0594
  503TIP3    H122924   0.069   5.123   2.185 -0.7966 -0.0529  0.8896
  503TIP3    H222925   0.175   5.065   2.277  1.4935  0.2954 -1.4198
  504TIP3   OH222926   3.044   5.266   2.074 -0.2643 -0.7860  0.3098
  504TIP3    H122927   3.101   5.198   2.037 -0.9753 -1.6260  0.7421
  504TIP3    H222928   2.973   5.218   2.116 -1.9115  0.2378 -1.1584
  505TIP3   OH222929   3.557   3.516   2.706  0.7795 -0.0165  0.3906
  505TIP3    H122930   3.592   3.487   2.622  1.5520  0.8285  0.3983
  505TIP3    H222931   3.634   3.520   2.763  0.2995 -0.3691  1.0815
  506TIP3   OH222932   6.661   2.014   6.447  0.5417 -0.0610  0.0364
  506TIP3    H122933   6.673   2.100   6.406  0.3516  0.0538  0.2167
  506TIP3    H222934   6.573   1.987   6.421  0.2506  0.2060  0.7116
  507TIP3   OH222935   1.003   0.976   4.250 -0.0523  0.6679  0.6556
  507TIP3    H122936   0.937   1.030   4.207 -0.8083 -0.3469  0.5343
  507TIP3    H222937   0.980   0.886   4.228  2.9075  0.3046 -1.6704
  508TIP3   OH222938   5.922   0.426  13.773 -0.0309 -0.3437 -0.3256
  508TIP3    H122939   5.860   0.363  13.736 -0.0359  0.1656 -1.2028
  508TIP3    H222940   6.005   0.378  13.776 -0.1184 -0.5200 -0.6210
  509TIP3   OH222941   5.440   5.892  16.234 -0.2681 -0.4282 -0.3427
  509TIP3    H122942   5.481   5.884  16.320  0.6126  1.9633 -0.4742
  509TIP3    H222943   5.349   5.867  16.249  0.2529 -1.8147  0.8485
  510TIP3   OH222944   4.196   0.879  16.879  0.4583 -0.1769  0.3291
  510TIP3    H122945   4.281   0.851  16.914 -0.7303 -1.0502  2.6910
  510TIP3    H222946   4.135   0.812  16.908 -1.3380  1.3217  0.1621
  511TIP3   OH222947   3.164   1.733   2.941  0.5387 -0.1402 -0.2999
  511TIP3    H122948   3.092   1.783   2.979 -0.1848 -0.8707 -0.6650
  511TIP3    H222949   3.238   1.749   3.000 -0.6287 -1.5313  1.7029
  512TIP3   OH222950   2.969   3.544  12.932  0.5141  0.4041  0.0516
  512TIP3    H122951   2.967   3.630  12.973  1.4719  0.2678  0.4222
  512TIP3    H222952   2.970   3.482  13.006 -0.2588  0.0622 -0.2104
  513TIP3   OH222953   1.324   0.977   1.565  0.0346  0.3563  0.5772
  513TIP3    H122954   1.361   1.023   1.489 -1.1814  0.5375  0.0594
  513TIP3    H222955   1.243   1.025   1.584 -0.3070 -0.4478  1.2079
  514TIP3   OH222956   4.678   1.248  12.908 -0.9956  0.0905  0.4032
  514TIP3    H122957   4.653   1.174  12.853 -2.3110  0.7927  0.0115
  514TIP3    H222958   4.678   1.213  12.997 -1.6659 -0.3738  0.2281
  515TIP3   OH222959   1.759   4.850   6.141 -0.5667 -0.5107  0.0517
  515TIP3    H122960   1.808   4.791   6.083 -0.7049 -0.3128 -0.2680
  515TIP3    H222961   1.667   4.835   6.119 -0.5714  0.4422 -0.6402
  516TIP3   OH222962   1.418   1.863  16.938  0.0257  0.2383 -0.0207
  516TIP3    H122963   1.456   1.841  16.853 -0.2237 -2.9915  0.5700
  516TIP3    H222964   1.345   1.921  16.917 -1.1554 -1.8564 -2.3253
  517TIP3   OH222965   2.510   4.785   3.495 -0.5443 -0.0785  0.2369
  517TIP3    H122966   2.508   4.722   3.567 -1.3934 -1.4539 -0.9284
  517TIP3    H222967   2.601   4.784   3.465 -0.0709  0.8637  1.5470
  518TIP3   OH222968   5.428   2.536   4.789  0.2847 -0.2963  0.1567
  518TIP3    H122969   5.432   2.496   4.702 -2.5134 -0.7264  0.1299
  518TIP3    H222970   5.452   2.466   4.849  0.1901 -0.5995 -0.1556
  519TIP3   OH222971   1.288   4.559   0.190 -0.4494 -0.4600  0.0137
  519TIP3    H122972   1.294   4.466   0.170 -0.3779 -0.5807  0.5937
  519TIP3    H222973   1.194   4.578   0.189 -0.4129 -0.0960 -2.0565
  520TIP3   OH222974   3.059   0.522  17.009 -0.7381  0.1516 -0.0550
  520TIP3    H122975   2.989   0.555  17.066 -0.0876  0.3904  0.6321
  520TIP3    H222976   3.052   0.426  17.015 -1.5889  0.1676 -0.7361
  521TIP3   OH222977   1.878   5.135  13.807 -0.2005 -0.6384  0.0605
  521TIP3    H122978   1.877   5.194  13.882  1.6454 -0.2015 -0.2014
  521TIP3    H222979   1.954   5.078  13.822 -0.5074 -1.3390 -0.9002
  522TIP3   OH222980   4.850   0.294   0.490 -0.2999 -0.2302  0.0810
  522TIP3    H122981   4.770   0.321   0.446 -0.2156  0.3101  0.2594
  522TIP3    H222982   4.867   0.206   0.457 -1.2671 -0.5694  0.4417
  523TIP3   OH222983   4.171   3.975  12.886  0.1407  0.4598  0.2953
  523TIP3    H122984   4.242   4.004  12.943  1.4684  2.0930 -1.9924
  523TIP3    H222985   4.199   3.889  12.855  1.0412  0.9718 -0.3725
  524TIP3   OH222986   0.400   1.933   2.864 -0.4320 -0.4399 -0.3790
  524TIP3    H122987   0.421   1.849   2.906 -2.4209 -0.7495  0.0932
  524TIP3    H222988   0.307   1.946   2.882  0.2653  3.0671  1.7425
  525TIP3   OH222989   3.298   3.734  11.571  0.1441 -0.3621 -0.3817
  525TIP3    H122990   3.259   3.776  11.647  0.8798 -2.3240  1.1670
  525TIP3    H222991   3.324   3.806  11.514 -2.1609  1.1097  0.2928
  526TIP3   OH222992   6.597   6.232   1.372  0.1305  0.0841  0.2518
  526TIP3    H122993   6.684   6.267   1.394  0.1177  1.4827 -1.6408
  526TIP3    H222994   6.612   6.138   1.360  0.5385 -0.4240  3.7346
  527TIP3   OH222995   0.955   5.553  15.499 -0.5863  1.1654 -0.1448
  527TIP3    H122996   0.913   5.470  15.518 -0.1414  0.1305 -3.1064
  527TIP3    H222997   0.915   5.615  15.559 -0.5493 -1.2213  2.5473
  528TIP3   OH222998   4.607   4.803   2.319  0.1545  0.1335  0.3473
  528TIP3    H122999   4.682   4.851   2.352 -0.2362 -0.3688  2.0456
  528TIP3    H223000   4.570   4.759   2.396 -0.2001 -1.9265 -0.9173
  529TIP3   OH223001   6.778   4.276  15.289 -0.1890  0.0897 -0.0200
  529TIP3    H123002   6.737   4.258  15.374 -0.9525 -1.0786 -0.6127
  529TIP3    H223003   6.707   4.306  15.234  0.2339  0.4828 -0.3552
  530TIP3   OH223004   0.504   0.298  11.631 -0.0638  0.1309  0.2216
  530TIP3    H123005   0.583   0.305  11.578 -0.2178 -0.8578 -0.1483
  530TIP3    H223006   0.438   0.262  11.572 -0.7906  0.9156  0.5317
  531TIP3   OH223007   3.018   2.951   1.809  0.1545  0.2219 -0.7185
  531TIP3    H123008   3.080   3.007   1.763 -0.2751  0.7188 -0.6975
  531TIP3    H223009   3.005   2.877   1.750 -0.0554  0.6434 -1.2104
  532TIP3   OH223010   3.292   1.533   4.052  0.0139 -0.1312 -0.8223
  532TIP3    H123011   3.284   1.606   3.991 -3.6660 -0.7588 -1.2867
  532TIP3    H223012   3.282   1.455   3.997 -1.1240 -0.7913  0.2771
  533TIP3   OH223013   5.519   4.847  15.994 -0.3696  0.2435  0.1031
  533TIP3    H123014   5.490   4.815  16.079  3.6502 -0.1656  1.5023
  533TIP3    H223015   5.518   4.943  16.003  1.1342  0.1856  1.0675
  534TIP3   OH223016   6.312   6.662  12.790  0.3329 -0.0425  0.0108
  534TIP3    H123017   6.229   6.653  12.838  0.8908 -0.1443  0.9754
  534TIP3    H223018   6.377   6.678  12.858  1.0878  0.1993 -0.7574
  535TIP3   OH223019   2.689   4.034   4.898  0.8160 -0.4993  0.0044
  535TIP3    H123020   2.598   4.020   4.870  1.2801 -2.1667 -0.8537
  535TIP3    H223021   2.737   4.047   4.817  1.2454  1.2203  0.5090
  536TIP3   OH223022   1.970   2.055   1.727 -0.1678 -0.3178 -0.1522
  536TIP3    H123023   1.989   1.985   1.789 -0.2680 -0.1682  0.0465
  536TIP3    H223024   1.992   2.135   1.774 -1.3655 -0.1327  0.1089
  537TIP3   OH223025   6.487   1.041   4.339 -0.4576 -0.2416  0.3796
  537TIP3    H123026   6.405   1.089   4.328  0.1225  0.7634  0.2858
  537TIP3    H223027   6.482   1.003   4.426 -0.5969  0.6766  0.7812
  538TIP3   OH223028   3.174   1.824  14.067  0.5813 -0.1460  0.3936
  538TIP3    H123029   3.262   1.833  14.031  1.5185 -0.1516  2.5466
  538TIP3    H223030   3.128   1.901  14.035  1.2742 -0.2393 -0.9265
  539TIP3   OH223031   1.807   2.140   4.303  0.2285  0.5714  0.0632
  539TIP3    H123032   1.725   2.186   4.284  0.3805  0.5861 -0.5767
  539TIP3    H223033   1.856   2.143   4.221  0.8511  0.5197  0.4250
  540TIP3   OH223034   6.033   0.966   0.194 -0.1108 -0.1702 -0.1865
  540TIP3    H123035   6.120   0.991   0.227  0.0431  0.6749 -1.1865
  540TIP3    H223036   6.046   0.878   0.159  1.2573  1.1149 -3.3263
  541TIP3   OH223037   1.059   6.650  10.736  0.2123 -0.0111  0.4495
  541TIP3    H123038   1.088   6.675  10.648  0.5901  1.9149  1.0922
  541TIP3    H223039   1.125   6.587  10.766  0.6522  0.1181 -0.2284
  542TIP3   OH223040   2.254   4.569   6.473  0.2488  0.1129 -0.6736
  542TIP3    H123041   2.275   4.655   6.509 -0.9354  0.8048 -1.5720
  542TIP3    H223042   2.158   4.567   6.469  0.0435 -2.3923  2.0001
  543TIP3   OH223043   6.088   2.875  16.619  0.3687  0.6608 -0.3404
  543TIP3    H123044   6.010   2.921  16.650  0.3015  1.2052 -1.2779
  543TIP3    H223045   6.057   2.820  16.547  0.8158  0.7304 -0.5885
  544TIP3   OH223046   4.238   2.116   4.352  0.4865 -0.4470 -0.6473
  544TIP3    H123047   4.211   2.133   4.262 -0.7581  0.1088 -0.1821
  544TIP3    H223048   4.311   2.176   4.367 -0.5605  0.8805 -0.6771
  545TIP3   OH223049   4.103   0.922   2.226  0.1488 -0.1471 -0.1842
  545TIP3    H123050   4.159   0.980   2.279  0.9176 -0.9297 -0.1136
  545TIP3    H223051   4.165   0.866   2.180 -0.3948  1.6020 -3.2805
  546TIP3   OH223052   2.080   4.895  11.443 -0.6953 -0.0346 -0.0977
  546TIP3    H123053   2.113   4.940  11.521  1.5871  1.0701 -1.5768
  546TIP3    H223054   1.993   4.932  11.429 -1.5255 -0.8503  2.2982
  547TIP3   OH223055   1.531   4.897   3.361  1.0445 -0.3101  0.7251
  547TIP3    H123056   1.438   4.896   3.383  1.2020 -2.5497  1.5474
  547TIP3    H223057   1.573   4.933   3.439  0.8914  1.0354  0.2225
  548TIP3   OH223058   3.373   6.652  11.580 -0.0107  0.6214 -0.4428
  548TIP3    H123059   3.377   6.557  11.580  0.1399  0.6283 -0.6400
  548TIP3    H223060   3.399   6.678  11.492 -0.7265  0.8206 -0.5988
  549TIP3   OH223061   4.561   3.678  12.483  0.1692 -0.0647  0.2921
  549TIP3    H123062   4.541   3.653  12.574 -0.5186 -0.8168 -0.0540
  549TIP3    H223063   4.624   3.613  12.454 -0.6567 -0.6638 -0.2033
  550TIP3   OH223064   3.325   0.504  11.083 -0.1942  0.2529 -0.0518
  550TIP3    H123065   3.340   0.420  11.040  2.8752  0.5916  0.1591
  550TIP3    H223066   3.259   0.547  11.027  0.8812 -0.8231 -2.3050
  551TIP3   OH223067   6.363   5.213  13.244 -0.8132  0.0056  0.5244
  551TIP3    H123068   6.425   5.279  13.213 -1.5110 -0.0385 -1.0566
  551TIP3    H223069   6.281   5.261  13.256 -1.0082 -0.3316  0.5707
  552TIP3   OH223070   4.437   5.836   0.225  0.1580  0.1789  0.3049
  552TIP3    H123071   4.343   5.827   0.241  0.2054 -1.2922 -0.0897
  552TIP3    H223072   4.443   5.878   0.139 -0.1443 -0.0834  0.1529
  553TIP3   OH223073   3.274   2.608  10.982  0.2877  0.2281  0.2389
  553TIP3    H123074   3.334   2.683  10.977  2.9375 -1.6490  1.1638
  553TIP3    H223075   3.249   2.605  11.074 -1.7436  1.2806 -0.2296
  554TIP3   OH223076   5.301   5.021   2.169 -0.1735 -0.0528 -0.2760
  554TIP3    H123077   5.254   4.943   2.198 -0.1823  0.1732  0.3236
  554TIP3    H223078   5.363   4.988   2.103 -0.2554 -0.5479 -0.1132
  555TIP3   OH223079   2.753   2.070  15.759 -0.7082  0.1121  0.0099
  555TIP3    H123080   2.788   2.153  15.791 -0.6058  0.1858 -0.2917
  555TIP3    H223081   2.786   2.063  15.669 -0.4520 -0.4088  0.1408
  556TIP3   OH223082   4.635   6.628  14.077  0.0738 -0.2403 -0.2626
  556TIP3    H123083   4.614   6.551  14.025 -1.9922  0.5102 -0.6430
  556TIP3    H223084   4.551   6.672  14.089  0.8928  0.9482  1.5777
  557TIP3   OH223085   3.460   5.474   3.627 -0.4500  0.2930  0.0575
  557TIP3    H123086   3.555   5.482   3.623 -0.4086 -0.4185 -0.9744
  557TIP3    H223087   3.427   5.556   3.589 -0.2094 -0.1429 -1.1365
  558TIP3   OH223088   6.062   5.345   2.949  0.1997  0.0099  0.1946
  558TIP3    H123089   6.126   5.348   2.878  0.1877 -1.0707  0.1293
  558TIP3    H223090   6.031   5.435   2.957  2.0049  0.6560  0.4813
  559TIP3   OH223091   1.445   6.631  14.906  0.6959 -0.1048  0.0693
  559TIP3    H123092   1.477   6.573  14.837 -2.5766 -0.7374 -1.0809
  559TIP3    H223093   1.448   6.718  14.866  1.6451 -0.0272  0.2774
  560TIP3   OH223094   1.688   1.928  11.633  0.0198  0.1567 -0.8567
  560TIP3    H123095   1.685   1.902  11.725  1.9352 -0.4103 -0.9217
  560TIP3    H223096   1.675   1.846  11.585 -1.3202  0.5032 -1.1201
  561TIP3   OH223097   2.575   2.796   4.003  0.2903 -0.1884  0.1675
  561TIP3    H123098   2.670   2.810   3.998  0.2301 -0.2260 -2.2310
  561TIP3    H223099   2.538   2.884   3.992  0.0598 -0.4764 -1.6474
  562TIP3   OH223100   3.211   1.313  14.843  0.1920  0.4791 -0.2272
  562TIP3    H123101   3.153   1.378  14.883  0.4503  1.9541 -2.1010
  562TIP3    H223102   3.163   1.231  14.851 -0.9148  1.1901  0.7220
  563TIP3   OH223103   4.057   1.313  13.985  0.6700 -0.6359 -0.7728
  563TIP3    H123104   4.005   1.275  13.914 -0.1838 -0.3738 -0.3063
  563TIP3    H223105   4.094   1.392  13.949  1.0726 -1.0358 -1.2382
  564TIP3   OH223106   5.434   2.741   3.678 -0.0388 -0.2990 -0.0480
  564TIP3    H123107   5.464   2.672   3.619 -0.6415 -0.9925  0.4362
  564TIP3    H223108   5.364   2.784   3.630 -1.3055 -1.5941  0.5719
  565TIP3   OH223109   1.302   0.792  15.992 -0.3564  0.8855  0.1346
  565TIP3    H123110   1.270   0.703  16.005  0.2782  0.6691  0.2463
  565TIP3    H223111   1.360   0.808  16.068  0.5245  0.9290 -0.5294
  566TIP3   OH223112   1.280   5.590  14.861  0.3602 -0.1536  0.0791
  566TIP3    H123113   1.196   5.607  14.818  0.1653  0.3096  0.6246
  566TIP3    H223114   1.271   5.631  14.947  1.6174  1.0476 -0.3322
  567TIP3   OH223115   4.093   5.536  16.521 -0.3725  0.3174 -0.2068
  567TIP3    H123116   4.080   5.628  16.544 -1.0106  0.9345 -2.7815
  567TIP3    H223117   4.069   5.530  16.429  1.4237 -2.0710 -0.6249
  568TIP3   OH223118   0.444   3.425   1.857 -0.1573 -0.5418  0.0869
  568TIP3    H123119   0.441   3.333   1.881  0.8743 -0.3124  1.1690
  568TIP3    H223120   0.369   3.464   1.903  1.0941 -0.3359  2.0950
  569TIP3   OH223121   1.984   0.448  12.437  0.2957  0.4402  0.4048
  569TIP3    H123122   1.937   0.433  12.355  1.2629 -1.4005  0.1371
  569TIP3    H223123   1.928   0.509  12.485 -0.9293  0.5575 -1.0754
  570TIP3   OH223124   2.875   1.065   2.821  0.0378  0.2036  0.7719
  570TIP3    H123125   2.875   1.068   2.725  1.0470  1.0864  0.7883
  570TIP3    H223126   2.811   0.997   2.842  0.2159 -0.4019 -0.5360
  571TIP3   OH223127   1.496   3.289  15.666 -0.1602  0.2213  0.1062
  571TIP3    H123128   1.591   3.302  15.663 -0.2763  1.8519  1.6617
  571TIP3    H223129   1.478   3.271  15.759 -1.3132 -0.7457 -0.2851
  572TIP3   OH223130   1.128   5.274  12.190 -0.0805 -0.0838  0.1614
  572TIP3    H123131   1.130   5.236  12.102  0.8825  1.6575 -0.6188
  572TIP3    H223132   1.220   5.283  12.214 -0.0357  3.9771 -0.7831
  573TIP3   OH223133   4.137   4.131  15.787 -0.3383  0.3238  0.0603
  573TIP3    H123134   4.120   4.214  15.831 -3.6074 -0.2457  0.1534
  573TIP3    H223135   4.106   4.064  15.849 -3.1514 -0.5948 -2.1051
  574TIP3   OH223136   0.945   1.541   2.658  0.4701 -0.0603 -0.0538
  574TIP3    H123137   0.861   1.553   2.615 -0.3451 -0.7789  1.2907
  574TIP3    H223138   0.936   1.459   2.707  1.7532  0.1419  0.5617
  575TIP3   OH223139   1.658   6.358  11.507  0.0756 -0.7352  0.1723
  575TIP3    H123140   1.584   6.300  11.527 -0.8664  0.4438  0.2403
  575TIP3    H223141   1.649   6.378  11.414 -0.3992  0.3237  0.4217
  576TIP3   OH223142   0.674   3.435   4.916  0.3118  0.0431 -0.3248
  576TIP3    H123143   0.722   3.443   4.999  0.1043  0.4219 -0.2386
  576TIP3    H223144   0.627   3.518   4.908  0.1472 -0.0868 -0.7084
  577TIP3   OH223145   4.601   1.336   2.944 -0.6913  0.9351  0.1013
  577TIP3    H123146   4.549   1.260   2.971  0.4295  0.4902  1.0958
  577TIP3    H223147   4.632   1.374   3.026 -1.4001  2.6197 -0.3689
  578TIP3   OH223148   5.434   5.216  14.842  0.3518 -0.3236  0.1261
  578TIP3    H123149   5.381   5.209  14.921  1.2010 -0.1008  0.7357
  578TIP3    H223150   5.371   5.231  14.771 -0.2858  1.4523  1.0275
  579TIP3   OH223151   0.297   5.067  14.966 -1.3045  0.0663 -0.6043
  579TIP3    H123152   0.316   5.153  15.003 -2.1047  0.1592 -0.4052
  579TIP3    H223153   0.358   5.008  15.010  0.5570  0.7818 -2.0579
  580TIP3   OH223154   1.278   4.661  10.681 -0.2204 -0.1014 -0.5028
  580TIP3    H123155   1.236   4.743  10.655 -0.3856 -0.2503 -0.7029
  580TIP3    H223156   1.299   4.617  10.599 -0.0197 -0.2048 -0.3971
  581TIP3   OH223157   5.557   5.000  13.291  0.2074 -0.6106 -0.0139
  581TIP3    H123158   5.520   5.033  13.209  1.3559 -2.3567 -1.3099
  581TIP3    H223159   5.638   4.957  13.265 -0.3265 -2.8965  1.7374
  582TIP3   OH223160   3.305   4.425   0.475 -0.0543 -0.4628 -0.3222
  582TIP3    H123161   3.290   4.397   0.565 -0.4673  0.2028 -0.1824
  582TIP3    H223162   3.287   4.347   0.423  0.2359 -0.8667  0.1735
  583TIP3   OH223163   5.290   1.879  11.350  0.6247 -0.1652  0.3643
  583TIP3    H123164   5.284   1.846  11.261  2.1222  1.9311 -0.6196
  583TIP3    H223165   5.384   1.895  11.363  0.5894 -1.4537  2.7597
  584TIP3   OH223166   4.716   4.121  14.266 -0.2008  0.0694  0.6802
  584TIP3    H123167   4.631   4.161  14.249  0.0724 -0.2648 -2.0310
  584TIP3    H223168   4.779   4.193  14.259 -0.1334  0.0349  0.9398
  585TIP3   OH223169   2.977   6.490  17.032 -0.1387 -0.3156 -0.0272
  585TIP3    H123170   2.901   6.538  17.065 -0.5184 -1.4805  0.9060
  585TIP3    H223171   2.943   6.437  16.960 -0.2009 -0.7340  0.3019
  586TIP3   OH223172   0.535   5.038  11.453  0.0176  0.1723 -0.1424
  586TIP3    H123173   0.565   5.077  11.536 -0.3940 -1.0711  0.6190
  586TIP3    H223174   0.603   4.975  11.430  1.0634  1.7812 -1.7757
  587TIP3   OH223175   2.046   0.553   1.638 -0.1244 -0.2274  0.7588
  587TIP3    H123176   2.045   0.474   1.585 -2.2622 -0.7440  1.4722
  587TIP3    H223177   2.136   0.584   1.633  0.4821 -2.0274 -0.5121
  588TIP3   OH223178   4.405   0.218  14.894 -0.4136 -0.0629  0.5280
  588TIP3    H123179   4.338   0.157  14.926 -1.9202  1.2525 -0.0258
  588TIP3    H223180   4.383   0.232  14.802 -1.1976  2.6413  1.0430
  589TIP3   OH223181   3.222   2.235  13.815  0.6892  0.1051  0.5368
  589TIP3    H123182   3.273   2.310  13.843  1.4279  0.0358 -0.5659
  589TIP3    H223183   3.277   2.159  13.833  1.0855  0.0447 -0.8432
  590TIP3   OH223184   5.402   6.185   3.576 -0.0269  0.0114 -0.3733
  590TIP3    H123185   5.444   6.120   3.520  0.5329 -0.4198  0.5111
  590TIP3    H223186   5.461   6.260   3.574  2.4285 -1.5557  3.0320
  591TIP3   OH223187   6.162   2.971   1.856 -0.2739 -0.4084  1.0549
  591TIP3    H123188   6.155   2.877   1.836  0.2330  0.0812 -2.0008
  591TIP3    H223189   6.252   2.993   1.833 -0.6917  1.0052  0.6636
  592TIP3   OH223190   3.933   4.635  14.704 -0.0627 -0.5982  0.4005
  592TIP3    H123191   3.886   4.580  14.767  1.4024  0.2581  2.3799
  592TIP3    H223192   4.026   4.616  14.722  0.4122 -0.5100 -1.7420
  593TIP3   OH223193   1.128   4.094  12.386 -0.2407  0.4376 -0.3887
  593TIP3    H123194   1.116   4.119  12.294 -1.6025  0.2823 -0.2624
  593TIP3    H223195   1.153   4.002  12.383  0.8649  0.7203 -0.6399
  594TIP3   OH223196   5.462   4.200   0.064 -0.4466  0.1696  0.0607
  594TIP3    H123197   5.495   4.234   0.147  0.3984 -0.7836  0.1286
  594TIP3    H223198   5.436   4.110   0.082 -2.4945  0.6638 -0.1632
  595TIP3   OH223199   6.073   4.293   1.903  0.0851  0.3170 -0.0538
  595TIP3    H123200   6.077   4.387   1.922 -1.7709 -0.0271  2.5272
  595TIP3    H223201   5.993   4.282   1.851  0.4641  0.1842 -0.6174
  596TIP3   OH223202   2.010   5.484  10.045 -0.0028  0.1010 -0.1140
  596TIP3    H123203   2.062   5.467  10.124 -0.9080 -0.9481  0.2837
  596TIP3    H223204   1.990   5.397  10.010 -1.2397  0.4934 -0.4159
  597TIP3   OH223205   6.269   1.588   0.820 -0.3992 -0.4554  0.5986
  597TIP3    H123206   6.325   1.597   0.743  0.2858  1.1513  1.2340
  597TIP3    H223207   6.313   1.524   0.875  0.5694  0.4052  0.8510
  598TIP3   OH223208   2.277   0.737  11.846 -0.1221  0.7414 -0.2862
  598TIP3    H123209   2.351   0.770  11.796  0.9577 -0.4848  0.4576
  598TIP3    H223210   2.231   0.679  11.787 -0.6959  1.7269 -0.8431
  599TIP3   OH223211   0.432   1.255  13.596 -0.2576 -0.1058  1.0384
  599TIP3    H123212   0.348   1.240  13.639 -1.7310 -2.4634 -2.1909
  599TIP3    H223213   0.422   1.341  13.555 -1.5623 -0.7118 -0.0297
  600TIP3   OH223214   2.822   5.991   1.458  0.2961  0.4939 -0.4926
  600TIP3    H123215   2.841   6.021   1.547 -0.5347 -0.5540  0.0724
  600TIP3    H223216   2.743   6.039   1.433 -0.0246  0.0945 -0.2714
  601TIP3   OH223217   5.165   6.500   6.344 -0.4008  0.0673  0.3235
  601TIP3    H123218   5.086   6.448   6.359 -0.4118 -0.2572 -0.8158
  601TIP3    H223219   5.168   6.561   6.418 -1.4855 -0.2044  0.6023
  602TIP3   OH223220   0.391   5.726  13.643 -0.0379  0.0296  0.4799
  602TIP3    H123221   0.478   5.751  13.675 -0.3224  0.7639  0.7040
  602TIP3    H223222   0.401   5.635  13.614  0.9384  0.2771  0.0082
  603TIP3   OH223223   3.532   5.570   4.175  0.3803  0.0547 -0.1530
  603TIP3    H123224   3.548   5.542   4.085  0.7867 -0.2550  0.0128
  603TIP3    H223225   3.586   5.511   4.229  1.5749  1.4060  0.1881
  604TIP3   OH223226   6.044   1.300   1.055 -0.4903  0.0369 -0.0835
  604TIP3    H123227   6.027   1.394   1.048  0.9802  0.2074 -2.4593
  604TIP3    H223228   5.991   1.272   1.130 -2.5288  2.3780 -0.4943
  605TIP3   OH223229   0.668   2.629  10.586 -0.4986  1.0399 -0.8397
  605TIP3    H123230   0.623   2.560  10.537  1.8875 -1.5089  0.3147
  605TIP3    H223231   0.597   2.681  10.625 -2.4275 -1.1912 -1.1579
  606TIP3   OH223232   2.418   3.679  12.970 -0.2710  0.0287  0.4538
  606TIP3    H123233   2.372   3.596  12.979 -1.2172  0.1531 -2.3032
  606TIP3    H223234   2.502   3.657  12.931 -0.1194  0.2650  0.6429
  607TIP3   OH223235   3.283   0.434   4.035  0.1054  0.0623  0.8194
  607TIP3    H123236   3.329   0.353   4.053 -0.3455  0.2266  3.0089
  607TIP3    H223237   3.350   0.502   4.041  0.3146 -0.0517 -0.1162
  608TIP3   OH223238   2.481   2.564  12.686 -0.1144  0.0245 -0.2228
  608TIP3    H123239   2.399   2.575  12.638 -0.9255 -0.4311  1.0112
  608TIP3    H223240   2.505   2.472  12.671 -2.1718 -1.1919  2.8389
  609TIP3   OH223241   0.234   4.507  16.118  0.3247  0.5002  0.4952
  609TIP3    H123242   0.232   4.484  16.211 -0.7898  1.8517  0.8477
  609TIP3    H223243   0.191   4.592  16.114  1.2398  0.9237 -1.1490
  610TIP3   OH223244   6.312   6.666   1.543 -0.1599  0.0816 -0.0341
  610TIP3    H123245   6.279   6.686   1.630  0.3844  0.7758  0.0198
  610TIP3    H223246   6.336   6.574   1.546 -2.4278 -0.5709 -0.1891
  611TIP3   OH223247   6.108   4.555  16.669 -0.0516 -0.4843  0.6894
  611TIP3    H123248   6.185   4.611  16.658  0.8036 -1.2706  2.3055
  611TIP3    H223249   6.058   4.598  16.739  0.3977 -1.4746  1.6478
  612TIP3   OH223250   6.222   4.936   1.203  0.0814 -0.3273  0.2604
  612TIP3    H123251   6.253   4.849   1.226  3.5376  0.8016  0.5839
  612TIP3    H223252   6.211   4.981   1.287 -0.6634 -0.1268  0.0668
  613TIP3   OH223253   6.014   0.690  13.791  0.0355  0.6018 -0.6359
  613TIP3    H123254   5.970   0.606  13.776 -0.1089  0.6845 -0.6799
  613TIP3    H223255   6.073   0.673  13.864  1.6875 -0.1475 -2.0857
  614TIP3   OH223256   2.969   3.683   1.268 -0.2496  0.0897  0.0347
  614TIP3    H123257   3.016   3.632   1.202 -0.8970  1.0330 -1.2192
  614TIP3    H223258   3.006   3.771   1.260 -1.0798  0.4613  0.1614
  615TIP3   OH223259   3.889   5.421  15.747 -0.1714  0.0967  0.2344
  615TIP3    H123260   3.844   5.500  15.717 -1.0223 -0.2171  0.6601
  615TIP3    H223261   3.982   5.446  15.748 -0.4669  1.2709  0.8670
  616TIP3   OH223262   2.200   4.260   0.681  0.0658  1.1676 -0.7582
  616TIP3    H123263   2.134   4.240   0.615  0.8271 -0.7577 -1.0140
  616TIP3    H223264   2.155   4.316   0.744 -1.9916 -0.5080 -0.6257
  617TIP3   OH223265   6.479   1.172  10.680 -0.3444 -0.3883  0.1096
  617TIP3    H123266   6.555   1.206  10.726 -0.6889 -1.2287  1.3592
  617TIP3    H223267   6.509   1.156  10.591  1.0735 -1.1290  0.6967
  618TIP3   OH223268   1.089   3.699  12.581  0.0520 -0.8172 -0.0974
  618TIP3    H123269   1.103   3.647  12.502 -0.3489 -1.6722  0.3781
  618TIP3    H223270   1.099   3.790  12.552  0.2189 -1.1301 -1.0617
  619TIP3   OH223271   3.456   6.316  14.643 -0.1652 -0.0199 -0.6933
  619TIP3    H123272   3.494   6.289  14.559  0.4194 -1.3114 -0.0301
  619TIP3    H223273   3.408   6.240  14.674  0.8498 -0.0741  0.8385
  620TIP3   OH223274   0.181   3.364   3.462 -0.4348  0.4085  0.0563
  620TIP3    H123275   0.163   3.340   3.553  0.6036 -2.0666 -0.3294
  620TIP3    H223276   0.148   3.290   3.410  0.4999  1.0113 -1.4642
  621TIP3   OH223277   0.470   2.371   2.732 -0.9236  0.0304 -0.7607
  621TIP3    H123278   0.561   2.394   2.710 -0.9566  0.3765 -0.5435
  621TIP3    H223279   0.444   2.308   2.665 -0.0682 -1.1209 -0.0541
  622TIP3   OH223280   4.108   3.945   0.575  0.9505 -0.1014  0.1247
  622TIP3    H123281   4.013   3.941   0.569  1.0241  0.2682 -2.0889
  622TIP3    H223282   4.136   3.854   0.568  0.7583 -0.3856  2.3270
  623TIP3   OH223283   0.164   4.046   2.134 -0.0959  0.3156 -0.3100
  623TIP3    H123284   0.244   4.097   2.142  0.8303 -1.0978 -0.1311
  623TIP3    H223285   0.137   4.027   2.224  0.4033 -0.7153 -0.3571
  624TIP3   OH223286   4.886   5.350  16.024  0.2430 -0.1733 -0.3601
  624TIP3    H123287   4.927   5.263  16.028 -0.8879 -0.8343 -1.9948
  624TIP3    H223288   4.924   5.389  15.945  0.3471  0.6190  0.0797
  625TIP3   OH223289   4.789   5.857   1.009  0.1315  0.0165  0.4089
  625TIP3    H123290   4.758   5.833   0.922 -0.1180 -0.3691  0.6039
  625TIP3    H223291   4.728   5.816   1.070  0.4753  0.0360  0.7758
  626TIP3   OH223292   2.167   4.605   1.946  0.2187  0.0120 -0.1505
  626TIP3    H123293   2.139   4.540   1.881 -1.2195  1.7495 -1.3553
  626TIP3    H223294   2.138   4.569   2.030 -0.4916 -0.9319 -0.7831
  627TIP3   OH223295   1.427   6.127   5.772  0.5258 -0.5525  0.0512
  627TIP3    H123296   1.420   6.219   5.745  1.6621 -0.8364 -1.3622
  627TIP3    H223297   1.356   6.115   5.835  1.0094  1.5621  1.1012
  628TIP3   OH223298   0.982   1.244  11.716  0.0292  0.1194  0.5010
  628TIP3    H123299   0.936   1.217  11.796 -0.4356  0.1662  0.2505
  628TIP3    H223300   0.918   1.296  11.668  0.0031 -0.6660 -0.3328
  629TIP3   OH223301   0.217   3.783   3.144 -0.2826 -0.3693 -0.2708
  629TIP3    H123302   0.237   3.728   3.220  1.6710  0.5838 -0.0288
  629TIP3    H223303   0.194   3.721   3.075 -1.3996 -1.2894  0.8859
  630TIP3   OH223304   2.455   0.147   3.012 -0.0370 -0.3662  0.5716
  630TIP3    H123305   2.425   0.237   3.011 -1.7975 -0.9115  0.2761
  630TIP3    H223306   2.412   0.108   3.089  0.2370 -1.0782  0.3756
  631TIP3   OH223307   0.526   0.793   2.421  0.2667 -0.3332  0.1343
  631TIP3    H123308   0.475   0.874   2.425  0.9626  0.2366 -1.7007
  631TIP3    H223309   0.464   0.727   2.389  0.1657 -0.1013 -0.1535
  632TIP3   OH223310   2.723   4.895  10.725  1.4112  0.0843  0.4397
  632TIP3    H123311   2.658   4.834  10.689  1.1357  0.6110  0.0149
  632TIP3    H223312   2.801   4.843  10.738  1.0622 -0.4438  0.4373
  633TIP3   OH223313   3.721   1.465  11.079 -0.5690 -0.0034 -0.3173
  633TIP3    H123314   3.672   1.535  11.037 -0.6137  0.3343  0.2889
  633TIP3    H223315   3.759   1.415  11.006 -1.7367 -0.2246 -0.7855
  634TIP3   OH223316   5.582   2.191   2.128 -0.2078  0.2416 -0.1043
  634TIP3    H123317   5.653   2.250   2.154 -0.5499  0.0047  1.4681
  634TIP3    H223318   5.507   2.249   2.114 -1.2312  0.1296  3.8262
  635TIP3   OH223319   3.888   2.111  14.992 -0.1425 -0.3802 -0.3329
  635TIP3    H123320   3.884   2.018  15.011 -1.0651 -0.7206 -1.9985
  635TIP3    H223321   3.941   2.148  15.062 -0.7595 -1.9680  1.0352
  636TIP3   OH223322   2.555   2.884  13.121  0.4767 -0.7054  0.2922
  636TIP3    H123323   2.590   2.887  13.032 -1.4200  0.0076 -0.4670
  636TIP3    H223324   2.499   2.807  13.123  1.1622 -1.2171  1.1722
  637TIP3   OH223325   4.652   2.947   1.652 -0.0692  0.1421 -0.4016
  637TIP3    H123326   4.677   3.031   1.614 -0.6997  0.7071  0.3853
  637TIP3    H223327   4.709   2.938   1.728 -0.0688 -0.0971 -0.4297
  638TIP3   OH223328   0.797   6.397  16.188  0.5612  0.5700  0.0139
  638TIP3    H123329   0.708   6.374  16.216  0.9578 -0.7440  0.2417
  638TIP3    H223330   0.854   6.350  16.247  1.4397  1.7929  0.1785
  639TIP3   OH223331   2.847   1.767  15.433 -0.0901  0.2751  0.1376
  639TIP3    H123332   2.929   1.730  15.400  0.2893  1.2652 -0.0815
  639TIP3    H223333   2.816   1.704  15.497 -0.2438 -1.1514 -1.2802
  640TIP3   OH223334   5.514   6.664   5.268  0.2358 -0.3220 -0.3266
  640TIP3    H123335   5.591   6.649   5.323  0.1351  1.0407  0.2484
  640TIP3    H223336   5.467   6.735   5.312 -2.0262 -1.9359  0.0170
  641TIP3   OH223337   5.965   1.389  11.364  0.7678  0.3783 -0.0575
  641TIP3    H123338   5.996   1.473  11.398  0.5265  0.6148 -0.4150
  641TIP3    H223339   5.924   1.346  11.439 -0.5235  1.2535 -0.2273
  642TIP3   OH223340   5.045   1.333  10.694 -0.4060  0.1461 -0.5028
  642TIP3    H123341   5.037   1.389  10.617 -1.0313  0.7708  0.0114
  642TIP3    H223342   5.138   1.334  10.715 -0.5264  1.8236  0.0989
  643TIP3   OH223343   0.836   5.903   4.415 -0.0369 -0.2512 -0.0989
  643TIP3    H123344   0.789   5.819   4.415  0.2807 -0.4285 -0.3253
  643TIP3    H223345   0.927   5.880   4.433  0.1790 -0.0256 -0.8783
  644TIP3   OH223346   5.947   1.848  12.921 -0.0615 -0.2702  0.1429
  644TIP3    H123347   5.941   1.899  13.003  0.7784  0.2471 -0.1037
  644TIP3    H223348   6.017   1.891  12.872 -1.3905  0.2016 -1.4047
  645TIP3   OH223349   2.259   2.566  16.207 -0.0577  0.3360  0.8065
  645TIP3    H123350   2.171   2.540  16.182 -0.0709 -0.0883  1.2992
  645TIP3    H223351   2.280   2.513  16.284  1.0064 -0.2903  0.1138
  646TIP3   OH223352   2.239   4.450   2.227 -0.2150  0.2265 -0.4552
  646TIP3    H123353   2.331   4.449   2.251 -1.0355 -0.6308  3.2822
  646TIP3    H223354   2.205   4.531   2.266 -1.4047 -0.5283  0.1464
  647TIP3   OH223355   3.396   4.934  15.086 -0.0857 -0.3091  0.4214
  647TIP3    H123356   3.320   4.958  15.033  0.9313  1.9538 -0.1050
  647TIP3    H223357   3.470   4.977  15.042  1.3313 -1.4307  1.6199
  648TIP3   OH223358   4.073   3.931  15.326  0.2768 -0.7821 -0.3547
  648TIP3    H123359   4.143   3.925  15.391 -1.9248  0.8882  2.3813
  648TIP3    H223360   4.103   4.000  15.266  1.1743 -0.4147  0.4805
  649TIP3   OH223361   0.618   3.001  11.866 -0.9586 -0.2665  0.1095
  649TIP3    H123362   0.621   2.947  11.945  0.0642 -0.1028  0.2020
  649TIP3    H223363   0.637   3.090  11.898 -0.9374 -0.1355 -0.2660
  650TIP3   OH223364   3.553   4.379   0.014  0.2288  0.1485  0.4657
  650TIP3    H123365   3.532   4.333  -0.067  0.8236  1.1289 -0.2748
  650TIP3    H223366   3.469   4.409   0.047  0.0782  0.8490 -0.4989
  651TIP3   OH223367   1.062   6.402  16.899 -0.4812  0.4990  0.5431
  651TIP3    H123368   1.038   6.309  16.906 -0.4273  0.3071 -1.1834
  651TIP3    H223369   1.144   6.401  16.849  0.6840  1.3897  2.3636
  652TIP3   OH223370   6.476   1.869   1.579 -0.5604  0.5302 -0.6957
  652TIP3    H123371   6.437   1.796   1.530  1.3495  0.1116 -1.7145
  652TIP3    H223372   6.546   1.901   1.522  1.5175  0.2946  1.5656
  653TIP3   OH223373   5.407   1.656   5.541 -0.3898 -0.6152  0.6497
  653TIP3    H123374   5.476   1.695   5.488 -2.3582  3.1967  0.5571
  653TIP3    H223375   5.384   1.576   5.494  1.0238  0.2629 -1.7234
  654TIP3   OH223376   6.397   0.584   4.530 -0.1949  0.8120  0.8666
  654TIP3    H123377   6.335   0.530   4.579 -1.8403 -0.2726 -2.1427
  654TIP3    H223378   6.421   0.530   4.455  0.9617  2.9207 -0.3724
  655TIP3   OH223379   6.730   3.007   1.456 -0.0478 -0.2097  0.2910
  655TIP3    H123380   6.679   3.078   1.496  0.2606  0.5390 -0.5968
  655TIP3    H223381   6.803   2.993   1.517  0.1629  0.5900  0.2392
  656TIP3   OH223382   6.534   6.428   5.651  0.2454 -0.1284 -1.4006
  656TIP3    H123383   6.588   6.378   5.712 -2.9706 -1.9808  0.1197
  656TIP3    H223384   6.543   6.519   5.681  2.3534 -0.3437 -1.1751
  657TIP3   OH223385   4.196   6.675  16.689 -0.4611  0.0140 -0.3663
  657TIP3    H123386   4.104   6.682  16.664 -0.4429  2.1711 -0.0069
  657TIP3    H223387   4.223   6.765  16.707  1.1543 -0.7955  1.6144
  658TIP3   OH223388   6.096   3.889   2.866  0.3270 -0.0628 -0.5196
  658TIP3    H123389   6.091   3.794   2.867  0.3739 -0.0616 -0.0410
  658TIP3    H223390   6.018   3.918   2.913  0.2140  0.1404 -0.8302
  659TIP3   OH223391   2.651   6.252   0.938  0.6270 -0.7467  0.5164
  659TIP3    H123392   2.570   6.272   0.891 -0.3877 -0.8300  2.1384
  659TIP3    H223393   2.714   6.317   0.907  0.5803 -1.9033 -2.2426
  660TIP3   OH223394   3.043   2.326  14.728  0.1252  0.0915 -0.1505
  660TIP3    H123395   3.036   2.247  14.675 -1.1003 -0.3405  0.6071
  660TIP3    H223396   3.077   2.296  14.813 -1.1640  0.2080  0.4354
  661TIP3   OH223397   2.664   0.646  15.333  0.1903 -0.4811 -0.1114
  661TIP3    H123398   2.608   0.698  15.391 -0.6504 -1.1924 -0.2758
  661TIP3    H223399   2.620   0.561  15.326  0.3502 -0.4608 -1.6817
  662TIP3   OH223400   2.532   3.092   0.810 -1.1952  0.3095 -0.0526
  662TIP3    H123401   2.561   3.011   0.770 -1.6731  1.1273 -2.2149
  662TIP3    H223402   2.530   3.155   0.738 -1.3596  2.1068  1.4373
  663TIP3   OH223403   6.256   1.528  15.675 -0.4922  0.4698  0.6072
  663TIP3    H123404   6.285   1.568  15.756 -0.8635 -0.5539  1.2599
  663TIP3    H223405   6.318   1.456  15.660  0.4666  1.5291 -0.8117
  664TIP3   OH223406   1.583   3.712   6.088  0.1256  0.6570  0.1291
  664TIP3    H123407   1.627   3.627   6.090 -0.2737  0.3438 -2.0122
  664TIP3    H223408   1.638   3.769   6.141  0.4759 -0.8846  1.5008
  665TIP3   OH223409   0.332   3.652  14.706 -0.2771 -0.3973  0.0003
  665TIP3    H123410   0.276   3.577  14.727 -0.4803 -0.5610 -1.0546
  665TIP3    H223411   0.302   3.681  14.619 -0.0063  0.7243  0.2610
  666TIP3   OH223412   6.714   5.835  14.649 -0.2117  0.3123 -0.2996
  666TIP3    H123413   6.647   5.887  14.606 -1.2317 -1.1080 -0.5010
  666TIP3    H223414   6.679   5.816  14.736  0.9794  1.5126  0.4771
  667TIP3   OH223415   2.279   3.749  13.975 -0.3592  0.0454  0.1556
  667TIP3    H123416   2.317   3.686  14.036 -0.2838 -0.1697 -0.1096
  667TIP3    H223417   2.227   3.808  14.030 -1.5675 -1.0636  0.2584
  668TIP3   OH223418   3.618   6.066  16.798  0.3225  0.1749 -0.2943
  668TIP3    H123419   3.713   6.061  16.807  0.4821  0.7264 -1.4695
  668TIP3    H223420   3.593   6.143  16.849  0.4815 -0.0809  0.1718
  669TIP3   OH223421   4.385   0.578   5.088 -0.3709 -0.0777 -0.5627
  669TIP3    H123422   4.310   0.526   5.059 -0.2555  0.1041 -1.2041
  669TIP3    H223423   4.420   0.618   5.008  0.3764 -0.1111 -0.2671
  670TIP3   OH223424   6.543   1.428  10.795  0.2846 -0.2322  0.0830
  670TIP3    H123425   6.450   1.414  10.813 -0.1779  2.2454  0.0098
  670TIP3    H223426   6.584   1.426  10.881 -0.1229  0.3101  0.2985
  671TIP3   OH223427   3.131   1.347  15.394  0.0691 -0.4816 -0.5812
  671TIP3    H123428   3.060   1.283  15.393 -2.2030  1.7686  1.6306
  671TIP3    H223429   3.175   1.334  15.477  1.2716 -0.8153 -1.2501
  672TIP3   OH223430   3.044   6.309  11.099 -0.0557 -0.4456  0.2101
  672TIP3    H123431   3.038   6.367  11.174 -1.4485  0.0191 -0.2265
  672TIP3    H223432   2.960   6.263  11.097 -0.0991 -0.3633 -1.1027
  673TIP3   OH223433   4.730   4.243  16.094  0.0368 -0.2338 -0.3874
  673TIP3    H123434   4.814   4.266  16.134 -0.3921 -0.2892  0.5727
  673TIP3    H223435   4.753   4.197  16.014  0.9794 -2.9586  1.3325
  674TIP3   OH223436   5.980   0.151  16.030 -0.4684  0.3512 -0.2411
  674TIP3    H123437   5.889   0.176  16.013 -0.4076  0.6473 -0.1263
  674TIP3    H223438   6.027   0.173  15.950  0.1686  3.4023  0.8477
  675TIP3   OH223439   2.483   0.599  13.896 -0.2692 -0.3803  0.4909
  675TIP3    H123440   2.431   0.662  13.846 -2.9410 -2.1488  0.8467
  675TIP3    H223441   2.541   0.653  13.949 -2.9872  1.9077  1.3765
  676TIP3   OH223442   6.556   4.897  15.697 -0.2545  0.3151 -0.2156
  676TIP3    H123443   6.650   4.882  15.693 -0.4059 -0.3980 -2.1094
  676TIP3    H223444   6.529   4.863  15.782  1.1505  0.2729  0.2265
  677TIP3   OH223445   4.894   0.353  16.014  0.1105  0.0188 -0.3666
  677TIP3    H123446   4.872   0.436  15.973 -1.1210  0.0264  0.2565
  677TIP3    H223447   4.949   0.308  15.950 -0.8469  0.4864 -1.5552
  678TIP3   OH223448   0.100   1.792   3.157 -0.2480  0.0020 -0.4468
  678TIP3    H123449   0.019   1.747   3.135 -1.9870  1.6100  2.1187
  678TIP3    H223450   0.111   1.857   3.088 -0.7498 -0.6861 -1.1850
  679TIP3   OH223451   6.820   4.977  15.931 -0.0546  0.0375  0.1139
  679TIP3    H123452   6.820   4.967  15.835  1.4527 -2.0006  0.2554
  679TIP3    H223453   6.753   5.042  15.948 -1.7662 -0.9691 -2.2115
  680TIP3   OH223454   1.521   4.222  12.757 -0.9201 -0.1486 -0.7099
  680TIP3    H123455   1.435   4.262  12.741 -0.1099  1.1254 -2.2380
  680TIP3    H223456   1.505   4.128  12.750 -2.3755  0.0117  0.1219
  681TIP3   OH223457   1.768   1.239  15.597  0.0189 -0.2715  0.3535
  681TIP3    H123458   1.811   1.173  15.544  0.3075 -0.7005  1.1169
  681TIP3    H223459   1.748   1.196  15.680 -0.3724  0.4058  0.6292
  682TIP3   OH223460   4.073   0.014  14.274 -0.5587  0.2949 -0.0272
  682TIP3    H123461   4.107  -0.074  14.254 -0.0998  0.7404 -1.3403
  682TIP3    H223462   4.027   0.004  14.358 -1.7365 -1.5136 -0.8234
  683TIP3   OH223463   3.403   5.673   2.063  0.0274 -0.3145 -0.4661
  683TIP3    H123464   3.343   5.645   1.994 -0.2074  0.9635 -0.8115
  683TIP3    H223465   3.363   5.752   2.099  0.5722 -0.5019  0.5686
  684TIP3   OH223466   3.362   6.409  11.044 -0.0599 -0.0391  0.2864
  684TIP3    H123467   3.446   6.407  10.998 -1.0028 -1.1815 -1.4972
  684TIP3    H223468   3.385   6.397  11.136  1.7439 -0.1565 -0.1451
  685TIP3   OH223469   6.527   2.792   1.627  0.2650 -0.2548  0.0109
  685TIP3    H123470   6.578   2.851   1.683 -1.4438  1.1392  0.2332
  685TIP3    H223471   6.477   2.852   1.571 -0.7840 -1.5411 -0.4587
  686TIP3   OH223472   3.771   2.520   1.727 -0.3340 -0.2546  0.1914
  686TIP3    H123473   3.804   2.587   1.667 -0.5277 -0.6638 -0.3843
  686TIP3    H223474   3.790   2.554   1.814  1.5463 -0.4368 -0.1002
  687TIP3   OH223475   2.348   4.608  10.791 -0.2283  0.1012 -0.0068
  687TIP3    H123476   2.315   4.617  10.702 -0.9455 -0.1498  0.2290
  687TIP3    H223477   2.281   4.558  10.837  0.7018 -0.8491  0.3584
  688TIP3   OH223478   6.832   6.255   0.662  0.0779 -0.0538 -0.1103
  688TIP3    H123479   6.798   6.312   0.731  0.1412  1.8941 -1.5833
  688TIP3    H223480   6.866   6.316   0.596  3.9798 -1.8387 -0.0074
  689TIP3   OH223481   1.295   5.243  16.271  0.1971 -0.6461 -0.2205
  689TIP3    H123482   1.201   5.257  16.277  0.0333 -1.8958  0.6731
  689TIP3    H223483   1.328   5.318  16.223 -1.1098  0.3961  0.4530
  690TIP3   OH223484   3.240   5.722  11.008 -0.7177 -0.5166 -0.6692
  690TIP3    H123485   3.317   5.668  10.993  0.1686  0.8063 -1.0417
  690TIP3    H223486   3.232   5.727  11.103  0.1586 -0.0066 -0.6098
  691TIP3   OH223487   5.024   3.414   2.906  0.3794  0.4238  0.0952
  691TIP3    H123488   5.078   3.365   2.968 -0.1730 -0.5559 -0.1838
  691TIP3    H223489   5.069   3.404   2.822 -0.2852 -0.5272 -0.1697
  692TIP3   OH223490   2.462   2.545   0.085  0.2102  0.4909  0.1688
  692TIP3    H123491   2.372   2.570   0.066  0.1407  1.4290  1.5681
  692TIP3    H223492   2.491   2.607   0.152  1.4237 -0.6727  0.7802
  693TIP3   OH223493   6.710   6.434   0.880  0.2186 -0.4927 -0.2865
  693TIP3    H123494   6.630   6.382   0.894 -0.7663  0.8546 -0.7375
  693TIP3    H223495   6.679   6.523   0.865  1.8365  0.1230 -0.2172
  694TIP3   OH223496   0.461   0.342   0.181 -0.6052  0.0043  0.6902
  694TIP3    H123497   0.445   0.407   0.250 -0.9858  0.4626  0.1788
  694TIP3    H223498   0.551   0.359   0.153 -0.7504  0.4126  0.4598
  695TIP3   OH223499   2.072   3.316  11.645 -0.2773 -0.1531  0.2542
  695TIP3    H123500   2.131   3.296  11.572 -0.3825 -2.5911  0.7639
  695TIP3    H223501   2.116   3.283  11.723 -1.7234 -0.9141  0.8023
  696TIP3   OH223502   1.538   4.362   0.690  0.2070 -0.2205 -0.0826
  696TIP3    H123503   1.443   4.364   0.685  0.2801  0.7084 -1.7186
  696TIP3    H223504   1.557   4.335   0.780 -1.5933 -2.3907 -0.2601
  697TIP3   OH223505   6.271   3.839   4.213 -0.0663  0.0359 -0.3872
  697TIP3    H123506   6.349   3.786   4.195  1.3097  2.0686 -0.8013
  697TIP3    H223507   6.295   3.890   4.291 -1.3561  0.0352  0.0267
  698TIP3   OH223508   1.081   5.539   2.054  0.5786  0.5415  0.5191
  698TIP3    H123509   1.175   5.534   2.042  0.4590  0.7161 -0.6249
  698TIP3    H223510   1.058   5.629   2.029  0.1374  0.5733  1.0148
  699TIP3   OH223511   5.672   4.058  12.684  0.2348 -0.6750 -0.3582
  699TIP3    H123512   5.687   3.963  12.684 -1.6190 -1.0755 -2.7459
  699TIP3    H223513   5.634   4.076  12.598 -2.6313  1.7057  1.2314
  700TIP3   OH223514   4.030   0.513  13.981 -0.0984  0.2579 -0.0162
  700TIP3    H123515   4.035   0.608  13.967 -1.3131  0.3527  0.1281
  700TIP3    H223516   4.029   0.476  13.893 -0.3279  0.4196 -0.0818
  701TIP3   OH223517   1.727   1.594  11.813 -0.1222 -0.1137 -1.1670
  701TIP3    H123518   1.727   1.688  11.830  1.2732  0.0194 -1.7327
  701TIP3    H223519   1.636   1.567  11.824 -0.1517  0.8260  1.4400
  702TIP3   OH223520   3.499   4.519  14.333 -0.0130  0.3168 -0.0774
  702TIP3    H123521   3.538   4.573  14.402 -0.4447  1.3999 -0.6452
  702TIP3    H223522   3.540   4.550  14.252 -1.2656  0.7748 -0.5700
  703TIP3   OH223523   0.733   4.059  17.032 -0.6051 -0.6776  0.3019
  703TIP3    H123524   0.698   4.122  16.969  0.0536  0.4706  1.0544
  703TIP3    H223525   0.743   3.978  16.981 -1.8744 -0.3147 -0.5671
  704TIP3   OH223526   4.536   4.023   3.829  0.2803  0.1918 -0.0276
  704TIP3    H123527   4.585   3.960   3.777  0.2170 -0.0633  0.2165
  704TIP3    H223528   4.495   4.081   3.765  0.9640  0.4571 -0.2292
  705TIP3   OH223529   3.245   1.762   1.334 -0.0409 -0.7050 -0.5197
  705TIP3    H123530   3.161   1.718   1.321 -0.6653  0.8673 -2.4261
  705TIP3    H223531   3.225   1.834   1.393  0.1125 -0.7160 -0.4544
  706TIP3   OH223532   1.722   4.489  11.271 -0.3103 -0.0977 -0.2357
  706TIP3    H123533   1.752   4.574  11.237 -0.1758 -0.3970 -0.8793
  706TIP3    H223534   1.713   4.503  11.365 -0.0628  0.5668 -0.3021
  707TIP3   OH223535   1.338   5.850   3.739  0.4391 -0.2908 -0.3164
  707TIP3    H123536   1.305   5.891   3.659 -0.5817  0.7320  0.5953
  707TIP3    H223537   1.308   5.759   3.734  1.3527 -0.5441 -1.6071
  708TIP3   OH223538   1.460   0.064   2.753 -0.0008  0.0123  0.0820
  708TIP3    H123539   1.503   0.021   2.826 -1.5523 -0.7286  0.6130
  708TIP3    H223540   1.528   0.117   2.711  0.7106  1.3617  2.7318
  709TIP3   OH223541   0.990   1.636   4.850 -0.7250 -0.0893 -0.5133
  709TIP3    H123542   0.985   1.631   4.945  1.0529  0.2811 -0.3662
  709TIP3    H223543   1.084   1.632   4.830 -0.9933  0.8215 -2.1912
  710TIP3   OH223544   2.061   0.985  12.208  0.0520 -0.3281  0.6613
  710TIP3    H123545   2.130   0.969  12.273  1.2034  1.8725  0.1171
  710TIP3    H223546   2.045   1.079  12.214 -1.6355 -0.5035 -0.5063
  711TIP3   OH223547   0.530   5.440  15.361 -0.2731 -0.0613  0.2080
  711TIP3    H123548   0.578   5.367  15.322 -2.0913 -1.8382  1.1403
  711TIP3    H223549   0.547   5.514  15.301  1.0302 -1.3965 -1.1632
  712TIP3   OH223550   1.956   3.141  11.453 -0.0853 -0.2919  0.2738
  712TIP3    H123551   1.867   3.113  11.471 -0.1972 -0.1595 -0.0601
  712TIP3    H223552   1.984   3.187  11.533 -0.1689 -0.6884  0.5316
  713TIP3   OH223553   1.986   0.260   4.699  0.0131  0.2142  0.3252
  713TIP3    H123554   1.926   0.323   4.739  0.5409  0.1331  1.2742
  713TIP3    H223555   1.966   0.264   4.606  0.4493  2.2450  0.2789
  714TIP3   OH223556   4.799   1.527  16.328  0.0112  0.1829 -0.7101
  714TIP3    H123557   4.830   1.471  16.400 -1.2692  0.1655 -0.1449
  714TIP3    H223558   4.864   1.515  16.259 -0.2070 -1.9790 -0.5897
  715TIP3   OH223559   1.528   6.688   0.815  0.3038  0.4351 -0.2738
  715TIP3    H123560   1.516   6.621   0.881 -1.9113 -0.6139 -1.6194
  715TIP3    H223561   1.568   6.642   0.741  0.5313  1.0464 -0.5396
  716TIP3   OH223562   2.627   4.070  13.180  0.0763  0.4973 -0.3074
  716TIP3    H123563   2.709   4.104  13.215 -0.7094  1.1208  1.0051
  716TIP3    H223564   2.614   4.118  13.098  2.0370 -1.1095 -1.6508
  717TIP3   OH223565   1.519   3.734   3.338 -0.8691 -0.0548  0.2097
  717TIP3    H123566   1.526   3.730   3.243 -0.4032 -0.2258  0.2490
  717TIP3    H223567   1.427   3.713   3.356 -1.3688  1.5144 -0.2851
  718TIP3   OH223568   5.940   5.401   3.557 -0.1571  0.1902 -0.2884
  718TIP3    H123569   5.917   5.404   3.465  0.0709  1.2022 -0.3245
  718TIP3    H223570   5.955   5.492   3.581 -0.6697 -0.0104  0.8637
  719TIP3   OH223571   1.978   6.366   1.779  0.5617 -0.2183 -0.6724
  719TIP3    H123572   1.883   6.376   1.786  0.6017  0.8603 -1.4436
  719TIP3    H223573   1.994   6.274   1.799 -0.7001 -0.5452 -1.0730
  720TIP3   OH223574   1.183   0.213   5.309  0.0473 -0.1662  0.1545
  720TIP3    H123575   1.247   0.270   5.265 -1.9081  1.3885 -0.8497
  720TIP3    H223576   1.236   0.147   5.353  2.5162  2.4645  1.4719
  721TIP3   OH223577   1.385   1.417  11.539  0.1133 -0.0752  0.0415
  721TIP3    H123578   1.324   1.386  11.473 -1.0320  0.7718  0.6738
  721TIP3    H223579   1.386   1.347  11.605 -2.5999  1.1674  1.5538
  722TIP3   OH223580   4.890   6.179  13.703 -0.1944 -0.0853 -0.4926
  722TIP3    H123581   4.810   6.136  13.734 -1.6545  1.4649 -1.8917
  722TIP3    H223582   4.890   6.264  13.746  0.9339 -0.2026 -0.2245
  723TIP3   OH223583   2.976   3.257   1.558  0.0792 -0.2712 -0.1350
  723TIP3    H123584   3.063   3.225   1.537 -0.4412 -2.3373  0.6841
  723TIP3    H223585   2.921   3.227   1.486 -0.4854 -1.5982  0.8234
  724TIP3   OH223586   4.008   1.957   4.658 -0.1579  0.3589 -0.2266
  724TIP3    H123587   3.940   2.001   4.607  0.5829  1.3664 -0.3819
  724TIP3    H223588   4.081   2.019   4.658  1.0640 -1.0213 -0.7692
  725TIP3   OH223589   1.220   3.437  13.129  0.1039  0.2402 -0.0780
  725TIP3    H123590   1.233   3.509  13.068  0.3399  0.8819  0.7179
  725TIP3    H223591   1.141   3.460  13.178  0.6522  0.3989  0.7640
  726TIP3   OH223592   2.650   2.326   3.869 -0.5397  0.2729  0.0653
  726TIP3    H123593   2.606   2.245   3.846  0.9192 -0.1108 -1.5469
  726TIP3    H223594   2.623   2.343   3.959 -1.9761 -1.2394 -0.0407
  727TIP3   OH223595   6.592   5.097  16.050  0.6862  0.0705  0.2952
  727TIP3    H123596   6.603   5.098  16.145  0.1329  0.0781  0.3593
  727TIP3    H223597   6.539   5.174  16.031  0.4414 -0.1623  0.0266
  728TIP3   OH223598   2.529   5.252   3.347 -0.6488  0.3227 -0.3658
  728TIP3    H123599   2.488   5.204   3.419 -1.4013  0.6719 -0.5535
  728TIP3    H223600   2.623   5.252   3.369 -0.8370  0.2159  0.4827
  729TIP3   OH223601   0.444   6.102   4.103 -0.4451 -0.0652 -0.4179
  729TIP3    H123602   0.363   6.051   4.105  0.8681 -2.2649  0.6053
  729TIP3    H223603   0.451   6.139   4.191 -1.0162  1.3520 -0.9374
  730TIP3   OH223604   1.901   3.866   3.918  0.1743  0.1362 -0.0210
  730TIP3    H123605   1.952   3.937   3.878 -0.1115  1.0701  1.2247
  730TIP3    H223606   1.817   3.868   3.873  0.1161  0.6880  0.1101
  731TIP3   OH223607   1.253   4.571  14.690  0.0061  0.7467 -0.1810
  731TIP3    H123608   1.198   4.543  14.763 -0.7181  0.5767 -0.7865
  731TIP3    H223609   1.279   4.660  14.714  0.8729  0.2268  0.9085
  732TIP3   OH223610   1.516   2.857   0.756 -0.7256  0.9787  0.1844
  732TIP3    H123611   1.437   2.879   0.706 -1.6496 -2.8537 -0.3418
  732TIP3    H223612   1.579   2.828   0.690  0.0234  1.0318  0.8622
  733TIP3   OH223613   2.256   3.740   5.044  0.4402 -0.5071 -0.5554
  733TIP3    H123614   2.247   3.832   5.068  0.4805 -0.5706 -0.2943
  733TIP3    H223615   2.205   3.692   5.109  0.9362 -0.7136 -0.3093
  734TIP3   OH223616   3.509   0.443  12.543  0.2967  0.5774  0.4977
  734TIP3    H123617   3.492   0.350  12.559 -0.5894  0.4838 -0.8221
  734TIP3    H223618   3.485   0.486  12.624  0.5066 -0.3191  1.0534
  735TIP3   OH223619   0.216   6.680  13.103  0.1706 -0.3976  0.0500
  735TIP3    H123620   0.294   6.698  13.050  0.7657  1.0278  1.3244
  735TIP3    H223621   0.177   6.602  13.063  2.2496 -1.1692 -0.6069
  736TIP3   OH223622   2.519   6.804   4.156 -0.2315  0.1105 -0.0709
  736TIP3    H123623   2.563   6.885   4.181  0.2865  0.1178 -0.9641
  736TIP3    H223624   2.429   6.829   4.140 -0.5873  0.1127  1.7026
  737TIP3   OH223625   2.403   6.438  16.646  0.0705  0.0480  0.4551
  737TIP3    H123626   2.489   6.471  16.672  0.0011  0.4512  0.2008
  737TIP3    H223627   2.357   6.516  16.612  0.3019 -0.5035 -1.2267
  738TIP3   OH223628   3.288   0.943  13.053 -0.1027 -0.4300  0.6120
  738TIP3    H123629   3.237   1.021  13.032  1.4355  0.3508 -0.4951
  738TIP3    H223630   3.245   0.905  13.130 -1.9177  0.5168  0.1275
  739TIP3   OH223631   0.423   5.626   2.715 -0.0443 -0.3090 -0.0200
  739TIP3    H123632   0.380   5.706   2.744  0.2853 -0.5061  1.0608
  739TIP3    H223633   0.517   5.646   2.720  0.1598 -1.5805  2.8859
  740TIP3   OH223634   3.074   2.679  14.164  0.3286  0.4381 -0.2571
  740TIP3    H123635   3.112   2.694  14.077  0.7461 -0.1469 -0.1746
  740TIP3    H223636   3.136   2.720  14.225  0.2832  0.4177 -0.1969
  741TIP3   OH223637   0.366   2.630  12.648  0.3853  0.2139 -0.0917
  741TIP3    H123638   0.394   2.668  12.731  1.1354 -1.3964  0.4323
  741TIP3    H223639   0.376   2.701  12.584 -1.7144  1.9998  1.3990
  742TIP3   OH223640   4.157   0.796  13.308  0.0784  0.0292 -0.4707
  742TIP3    H123641   4.086   0.839  13.260 -0.0098  1.9240  1.2231
  742TIP3    H223642   4.234   0.850  13.290 -0.0794  1.1473  1.8913
  743TIP3   OH223643   6.608   4.327  13.554 -0.3300  0.4342  0.1293
  743TIP3    H123644   6.665   4.325  13.477  1.2276 -1.2649  1.2357
  743TIP3    H223645   6.529   4.372  13.525  0.3898  0.2251 -2.3276
  744TIP3   OH223646   3.911   1.223   3.200  0.3399 -0.2989 -0.2523
  744TIP3    H123647   4.002   1.229   3.227  0.5571 -2.0567 -0.4858
  744TIP3    H223648   3.861   1.252   3.276  1.0616 -0.6057  0.3465
  745TIP3   OH223649   3.497   5.561  12.796  0.3955 -0.0996  0.3397
  745TIP3    H123650   3.524   5.496  12.860  1.5932 -0.5739 -0.6110
  745TIP3    H223651   3.457   5.509  12.726 -0.1132  0.3365  0.3013
  746TIP3   OH223652   0.505   2.957  16.418 -0.0868 -0.2048  0.4400
  746TIP3    H123653   0.543   3.022  16.478 -0.6014 -0.1676  0.7338
  746TIP3    H223654   0.537   2.873  16.450 -0.9861 -0.2591  1.2752
  747TIP3   OH223655   1.394   4.571   5.021 -0.4843  0.3487  0.0819
  747TIP3    H123656   1.441   4.587   4.940  0.6129  1.3618  0.8903
  747TIP3    H223657   1.354   4.655   5.043 -0.1257  0.2981  0.9731
  748TIP3   OH223658   1.273   4.980  16.410  0.2526 -0.4713  0.2388
  748TIP3    H123659   1.279   5.020  16.323  2.1508  0.4510  0.7519
  748TIP3    H223660   1.214   5.036  16.459  1.0605  0.4100  0.2396
  749TIP3   OH223661   6.353   3.431  13.207 -0.6303  0.2690 -0.0382
  749TIP3    H123662   6.364   3.336  13.211  0.4047  0.3204 -1.0086
  749TIP3    H223663   6.405   3.458  13.131 -0.2132  1.7036  0.7119
  750TIP3   OH223664   0.344   3.483   5.965 -0.2418 -0.3736 -0.3236
  750TIP3    H123665   0.350   3.493   6.060  2.3119 -0.9479 -0.3768
  750TIP3    H223666   0.370   3.393   5.948 -0.3748 -0.1958 -1.6008
  751TIP3   OH223667   3.630   5.430  11.183  0.3618  0.3490 -0.0772
  751TIP3    H123668   3.712   5.466  11.217 -0.8980  2.4283  1.0580
  751TIP3    H223669   3.651   5.401  11.094  2.0249  2.0762 -0.3186
  752TIP3   OH223670   5.355   0.645   5.593  0.1968 -0.0930 -0.3000
  752TIP3    H123671   5.411   0.601   5.656  1.0244  1.6160  0.2097
  752TIP3    H223672   5.321   0.721   5.639 -2.2250 -0.7921 -0.7408
  753TIP3   OH223673   1.624   2.248  15.696  0.2347  0.1046 -0.6803
  753TIP3    H123674   1.677   2.324  15.672 -0.9550  0.5638 -1.9544
  753TIP3    H223675   1.687   2.186  15.734  1.1178  1.9755  1.1107
  754TIP3   OH223676   1.964   4.370  11.060  0.3657  0.4216 -0.0515
  754TIP3    H123677   1.945   4.282  11.093 -1.2362  0.2623 -1.2935
  754TIP3    H223678   1.888   4.423  11.087  0.1305  0.8218 -1.4256
  755TIP3   OH223679   3.699   6.486  11.793 -0.1878 -0.2302 -0.2220
  755TIP3    H123680   3.736   6.489  11.705 -1.0404  0.3147 -0.5745
  755TIP3    H223681   3.666   6.396  11.802 -0.2001 -0.2552 -0.5059
  756TIP3   OH223682   3.238   6.196   0.662  0.4551 -0.4050 -0.4083
  756TIP3    H123683   3.209   6.195   0.571  2.1675 -2.2298 -0.9976
  756TIP3    H223684   3.333   6.182   0.658  0.4804 -1.2586  1.6666
  757TIP3   OH223685   5.321   0.873   3.213 -0.3278  0.6108  0.2282
  757TIP3    H123686   5.401   0.925   3.205  0.4900 -0.8530 -1.7721
  757TIP3    H223687   5.350   0.789   3.248 -1.2493  0.5870  0.9757
  758TIP3   OH223688   1.549   1.940  15.795 -0.2020  0.0162 -0.2645
  758TIP3    H123689   1.586   1.860  15.832  0.8745  0.7793  0.3638
  758TIP3    H223690   1.558   2.005  15.865 -3.0185  0.1965  0.0418
  759TIP3   OH223691   2.129   0.828  14.695 -0.0422 -0.4856 -0.6489
  759TIP3    H123692   2.051   0.842  14.641 -0.7342 -0.6431  0.2619
  759TIP3    H223693   2.116   0.740  14.731  0.7166 -0.6318 -0.7268
  760TIP3   OH223694   2.951   6.571   3.851  0.2593  0.1993 -0.2384
  760TIP3    H123695   3.006   6.495   3.833  0.3667  0.3172 -0.4176
  760TIP3    H223696   3.007   6.646   3.831  0.5635  0.3575  1.1163
  761TIP3   OH223697   2.972   1.499  16.186 -0.1922  0.4773 -0.1522
  761TIP3    H123698   2.911   1.442  16.232  0.6073 -0.3778 -0.1375
  761TIP3    H223699   2.918   1.572  16.156 -1.3621 -0.6063 -0.7623
  762TIP3   OH223700   1.276   2.065  15.342 -0.2129 -0.4420 -0.1691
  762TIP3    H123701   1.340   2.090  15.409  1.2290  0.3198 -1.7614
  762TIP3    H223702   1.310   1.983  15.306  0.0990  0.1554 -1.2747
  763TIP3   OH223703   2.748   4.144   4.312 -0.0097  0.1825  0.2008
  763TIP3    H123704   2.684   4.199   4.357 -0.1256  0.0663  0.1804
  763TIP3    H223705   2.704   4.059   4.302  0.1738  0.0791  0.2521
  764TIP3   OH223706   0.926   2.382   6.099  0.0775 -0.5904 -0.1148
  764TIP3    H123707   0.847   2.327   6.100  0.2214 -0.8697  2.4168
  764TIP3    H223708   0.894   2.470   6.078 -0.5134 -1.1292 -1.6232
  765TIP3   OH223709   1.828   1.702   5.962  0.5303  0.1597 -0.3453
  765TIP3    H123710   1.905   1.751   5.989  1.6937 -2.3544  1.1579
  765TIP3    H223711   1.862   1.632   5.906 -0.8388 -0.2060 -0.7676
  766TIP3   OH223712   1.874   3.285   5.528 -0.7224  0.0541  0.0182
  766TIP3    H123713   1.887   3.305   5.621 -3.5445 -1.5958  0.8969
  766TIP3    H223714   1.888   3.190   5.522 -0.0867  0.2046 -1.3983
  767TIP3   OH223715   1.003   0.370   3.175  0.6483 -0.8127  0.5054
  767TIP3    H123716   1.011   0.275   3.180  1.9156 -0.9523 -2.3603
  767TIP3    H223717   0.998   0.389   3.081  0.6655  1.9737  0.9819
  768TIP3   OH223718   3.585   3.245  14.923 -0.1490  0.0493  0.1407
  768TIP3    H123719   3.661   3.208  14.968  0.7127  2.9017  1.2564
  768TIP3    H223720   3.622   3.310  14.863 -1.5569 -0.9012 -1.8847
  769TIP3   OH223721   0.213   2.592  14.778 -0.6111  0.1205 -0.0452
  769TIP3    H123722   0.132   2.573  14.823 -0.8919 -2.5086 -1.5010
  769TIP3    H223723   0.282   2.572  14.842 -1.0065  1.8131  0.9920
  770TIP3   OH223724   6.640   0.042  16.370  0.4092  0.1334  0.2752
  770TIP3    H123725   6.594  -0.019  16.428  1.6919 -0.6178  0.5363
  770TIP3    H223726   6.674  -0.014  16.300  0.1394  0.8197 -0.4219
  771TIP3   OH223727   5.767   1.682   0.800  0.1471  0.5457  0.3591
  771TIP3    H123728   5.855   1.652   0.820  0.3520  1.2853  0.5942
  771TIP3    H223729   5.778   1.773   0.773 -0.4849  0.4882 -0.1302
  772TIP3   OH223730   3.872   1.264  11.301 -0.0346 -0.5287 -0.1169
  772TIP3    H123731   3.912   1.228  11.381 -0.3755 -0.7986 -0.0642
  772TIP3    H223732   3.890   1.358  11.305 -1.7167 -0.2104  1.2743
  773TIP3   OH223733   1.046   0.864   2.745 -0.4275  0.6338 -0.0942
  773TIP3    H123734   1.104   0.912   2.687  0.8895  1.0752  1.4936
  773TIP3    H223735   1.077   0.886   2.833 -2.4418  0.1407  0.7920
  774TIP3   OH223736   5.162   0.484   4.244  0.2482  0.1885 -0.5292
  774TIP3    H123737   5.197   0.570   4.220  1.9999 -0.2150  0.4060
  774TIP3    H223738   5.211   0.459   4.323 -2.3403 -0.3425  1.0546
  775TIP3   OH223739   2.041   6.144  16.205  0.3104 -0.1067  0.3351
  775TIP3    H123740   2.095   6.222  16.192  0.8353  0.1122  3.1838
  775TIP3    H223741   2.103   6.075  16.226 -0.3593 -0.3267  1.7094
  776TIP3   OH223742   2.456   1.802   4.055  0.7753 -0.0099  0.6966
  776TIP3    H123743   2.444   1.715   4.016 -1.4651  0.3548  0.3902
  776TIP3    H223744   2.413   1.862   3.993  1.4605  1.1975  1.3516
  777TIP3   OH223745   2.395   4.321  11.637  0.2503 -0.1300 -0.3468
  777TIP3    H123746   2.466   4.346  11.697 -0.5341  1.1106  0.1000
  777TIP3    H223747   2.336   4.268  11.691  0.4162 -0.4792 -0.5024
  778TIP3   OH223748   0.437   3.523   4.341 -0.0583 -0.2936 -0.2710
  778TIP3    H123749   0.446   3.545   4.248  2.1249  0.1096 -0.0066
  778TIP3    H223750   0.426   3.607   4.385  3.4124  0.0187  0.2343
  779TIP3   OH223751   0.574   4.279   4.439 -0.1290 -0.7433  0.6727
  779TIP3    H123752   0.611   4.366   4.430 -1.8759  0.0007  0.3326
  779TIP3    H223753   0.491   4.293   4.485 -0.4898 -2.2192  0.5206
  780TIP3   OH223754   2.523   2.531  14.175  0.8346 -0.0562 -0.1432
  780TIP3    H123755   2.605   2.581  14.175  2.0082 -1.8573  0.4506
  780TIP3    H223756   2.507   2.511  14.268  0.6349 -1.1000 -0.3860
  781TIP3   OH223757   0.579   1.832   1.814 -0.7558  0.3395  0.5861
  781TIP3    H123758   0.615   1.833   1.725 -0.6872  0.8371  0.6117
  781TIP3    H223759   0.491   1.796   1.804 -0.7711  0.4484  0.3028
  782TIP3   OH223760   0.332   1.678   4.386 -0.0150 -0.1461 -0.7993
  782TIP3    H123761   0.326   1.591   4.347 -0.9704 -0.2091 -0.5367
  782TIP3    H223762   0.424   1.687   4.410  0.1594 -0.9524 -1.1211
  783TIP3   OH223763   6.194   6.622  10.604  0.0680 -0.5374  0.2514
  783TIP3    H123764   6.125   6.640  10.540  1.1408 -0.6268 -0.9637
  783TIP3    H223765   6.256   6.695  10.594 -0.0530 -0.2219  1.6415
  784TIP3   OH223766   6.429   2.434   4.379 -0.3554 -0.1510  0.4381
  784TIP3    H123767   6.450   2.525   4.400  3.0148 -0.8769  0.7638
  784TIP3    H223768   6.447   2.385   4.459 -2.2925 -1.1403  0.3273
  785TIP3   OH223769   4.089   0.151   3.343 -0.9347  0.0955  0.6109
  785TIP3    H123770   4.045   0.072   3.310 -2.0676  0.8848  0.1714
  785TIP3    H223771   4.097   0.136   3.438 -3.6146  0.5720  0.9768
  786TIP3   OH223772   5.426   1.020   3.627 -0.4217  0.2426 -0.5012
  786TIP3    H123773   5.408   1.082   3.698 -0.4598 -2.3221  1.9346
  786TIP3    H223774   5.340   0.999   3.590 -0.3496  2.0107 -1.7795
  787TIP3   OH223775   4.878   6.266  11.398 -0.0363 -0.2341 -0.2628
  787TIP3    H123776   4.852   6.226  11.481  1.1883 -1.1100 -0.2775
  787TIP3    H223777   4.900   6.357  11.421 -0.1865 -0.3318  0.2781
  788TIP3   OH223778   6.427   6.211   2.219 -0.6378  0.5137  0.2590
  788TIP3    H123779   6.353   6.262   2.252 -0.4369  0.8428  0.2054
  788TIP3    H223780   6.491   6.277   2.191 -0.3341  0.2321  0.2868
  789TIP3   OH223781   5.939   2.256  11.846 -0.1180 -0.6823 -0.2231
  789TIP3    H123782   5.938   2.213  11.760 -0.5040 -0.2647 -0.4288
  789TIP3    H223783   5.870   2.211  11.896 -2.0861  1.0956 -1.1509
  790TIP3   OH223784   1.627   5.763  12.556 -0.0048 -0.2213 -0.2019
  790TIP3    H123785   1.693   5.788  12.620 -0.7195 -1.4695  1.0717
  790TIP3    H223786   1.676   5.731  12.480  0.8927  2.6154 -0.9560
  791TIP3   OH223787   6.324   1.372   3.042 -0.5965  0.7099  0.9018
  791TIP3    H123788   6.240   1.349   3.081 -0.5312 -1.8312 -0.3041
  791TIP3    H223789   6.302   1.410   2.957 -0.5540  0.5903  0.8367
  792TIP3   OH223790   5.981   0.061  13.429  0.1423  0.0052 -0.5129
  792TIP3    H123791   5.932   0.140  13.450  2.4373  1.9951 -2.1232
  792TIP3    H223792   5.965   0.002  13.503 -1.6314  1.9348  0.7443
  793TIP3   OH223793   5.221   5.536   0.186 -0.2438 -0.6185  0.3437
  793TIP3    H123794   5.233   5.465   0.122  2.1431  0.9850 -1.1667
  793TIP3    H223795   5.184   5.608   0.135 -0.3771  0.0018  1.2934
  794TIP3   OH223796   0.782   2.077  13.513  0.3200 -0.1640 -0.0589
  794TIP3    H123797   0.802   2.033  13.431 -1.6889  0.6172 -1.0284
  794TIP3    H223798   0.793   2.170  13.494 -0.4456  0.0407  0.4704
  795TIP3   OH223799   4.425   2.904   4.545  0.1595 -0.0199  0.2690
  795TIP3    H123800   4.481   2.849   4.490 -0.7343  0.1308 -0.8331
  795TIP3    H223801   4.374   2.841   4.597 -0.0976 -0.2119 -0.2077
  796TIP3   OH223802   2.927   5.829   5.838 -0.3886 -0.5310  0.4983
  796TIP3    H123803   2.981   5.751   5.847  0.0619 -0.3447 -0.3996
  796TIP3    H223804   2.840   5.796   5.815  0.0436 -0.7674 -0.9189
  797TIP3   OH223805   4.169   5.824   0.686  0.2525 -0.4397  0.6110
  797TIP3    H123806   4.138   5.738   0.713 -0.5666 -0.5261 -0.5199
  797TIP3    H223807   4.261   5.811   0.664 -0.4571 -1.6685 -2.0164
  798TIP3   OH223808   2.482   2.723  13.475  0.4940 -0.5760  0.5013
  798TIP3    H123809   2.554   2.710  13.537  2.1780 -0.7525 -1.3931
  798TIP3    H223810   2.507   2.800  13.425 -2.2964  1.4245  1.8887
  799TIP3   OH223811   5.506   2.611   0.527 -0.3988 -0.1947 -0.3613
  799TIP3    H123812   5.499   2.632   0.434 -0.2365  1.6576  0.0019
  799TIP3    H223813   5.419   2.630   0.562 -0.1732  0.1206  0.0339
  800TIP3   OH223814   2.579   1.291  14.519 -0.5863  0.1764  1.1227
  800TIP3    H123815   2.630   1.353  14.467  1.0655 -1.3800  0.8088
  800TIP3    H223816   2.625   1.286  14.603  0.6944 -2.2517  0.3786
  801TIP3   OH223817   3.871   5.316  14.995  0.0543  0.0167  0.1927
  801TIP3    H123818   3.929   5.242  15.012  0.0259  0.2786  1.5446
  801TIP3    H223819   3.845   5.346  15.082 -1.2009  0.6192 -0.3719
  802TIP3   OH223820   6.249   0.300  16.836 -0.0164 -0.4139 -0.7918
  802TIP3    H123821   6.305   0.295  16.913 -0.1921  0.4101 -0.5970
  802TIP3    H223822   6.196   0.221  16.839  2.6483 -2.4114 -2.2167
  803TIP3   OH223823   6.344   5.116   3.718 -0.5500  0.1166 -0.0386
  803TIP3    H123824   6.303   5.068   3.646 -1.3045 -0.9548  1.0562
  803TIP3    H223825   6.282   5.184   3.741 -1.5154 -1.1247  1.2167
  804TIP3   OH223826   1.934   0.331  16.149  0.0655 -0.7527 -0.6760
  804TIP3    H123827   1.925   0.386  16.071 -4.9679  1.9834  1.3763
  804TIP3    H223828   1.969   0.390  16.216  1.1465 -2.1379  0.0343
  805TIP3   OH223829   6.336   1.616  14.147  0.0349 -0.8017  0.1428
  805TIP3    H123830   6.304   1.694  14.102  1.3975 -1.1240 -1.4602
  805TIP3    H223831   6.403   1.580  14.089  1.7619 -1.3665  2.3143
  806TIP3   OH223832   4.092   1.313  11.989  0.1118  0.4383  0.2517
  806TIP3    H123833   4.077   1.397  11.947 -1.3203 -0.2966 -0.8214
  806TIP3    H223834   4.090   1.250  11.916  0.0387 -0.6228  1.1495
  807TIP3   OH223835   3.597   0.209   1.092 -0.4741 -0.0884 -0.2441
  807TIP3    H123836   3.545   0.253   1.025 -0.4901 -0.4143 -0.4498
  807TIP3    H223837   3.537   0.194   1.164 -0.8383 -1.0064 -0.7152
  808TIP3   OH223838   6.697   3.292  13.697  0.0402  0.2060  0.0080
  808TIP3    H123839   6.720   3.200  13.694 -1.3371 -0.1842  0.5895
  808TIP3    H223840   6.761   3.331  13.756 -0.2707 -0.6754  0.9429
  809TIP3   OH223841   2.292   1.822  15.876 -0.0944 -0.2579 -0.0256
  809TIP3    H123842   2.225   1.763  15.910 -0.1856  0.2726  0.7234
  809TIP3    H223843   2.275   1.824  15.781 -0.8135 -0.5268  0.0900
  810TIP3   OH223844   6.216   1.409   3.402  0.5615  0.2983  0.4488
  810TIP3    H123845   6.291   1.355   3.375  1.0245  0.9441  0.4203
  810TIP3    H223846   6.255   1.493   3.426 -0.4178  1.7378 -2.5290
  811TIP3   OH223847   4.841   0.815  16.528 -0.0212  0.1266  0.0254
  811TIP3    H123848   4.886   0.866  16.595 -0.7729  0.5216  0.2406
  811TIP3    H223849   4.749   0.814  16.556 -0.1977 -0.4297 -0.5496
  812TIP3   OH223850   6.685   3.032  11.237 -0.4724 -0.1479 -0.6046
  812TIP3    H123851   6.674   3.086  11.316 -1.0899 -1.5034  0.2846
  812TIP3    H223852   6.780   3.026  11.226 -0.3706  0.0005  0.1057
  813TIP3   OH223853   6.832   6.588  16.637 -0.0621  0.8656  0.6145
  813TIP3    H123854   6.865   6.544  16.715 -0.4572  1.2002  0.9770
  813TIP3    H223855   6.908   6.635  16.602  1.0963 -2.2232 -1.3498
  814TIP3   OH223856   5.651   6.203   5.341 -0.1072 -0.3357  0.1440
  814TIP3    H123857   5.653   6.207   5.245 -0.3228  0.9590  0.1751
  814TIP3    H223858   5.615   6.116   5.360 -1.2282 -0.1598 -0.9782
  815TIP3   OH223859   3.868   0.519  11.391  0.0812 -0.2171  0.1882
  815TIP3    H123860   3.925   0.465  11.445  0.2455  0.0362  0.2670
  815TIP3    H223861   3.798   0.460  11.364 -0.5197 -0.1038  1.4525
  816TIP3   OH223862   3.014   1.524  16.871 -0.2671  0.1285 -0.0253
  816TIP3    H123863   2.935   1.575  16.889 -0.7638 -0.9106  0.7922
  816TIP3    H223864   2.988   1.461  16.803  0.1313  0.4149 -0.4569
  817TIP3   OH223865   3.143   5.638   5.856 -0.0556 -0.4862 -0.3182
  817TIP3    H123866   3.129   5.558   5.906 -1.7012 -0.9218 -1.3796
  817TIP3    H223867   3.165   5.607   5.768  1.2779  0.2514 -0.2600
  818TIP3   OH223868   4.398   4.351  16.891 -1.3561  0.0556 -0.0484
  818TIP3    H123869   4.374   4.433  16.847 -3.0574 -0.8686 -0.9332
  818TIP3    H223870   4.392   4.372  16.984 -0.4910  1.2636 -0.2319
  819TIP3   OH223871   6.355   5.577  12.672  0.4497  0.0536 -0.6391
  819TIP3    H123872   6.411   5.608  12.743 -1.3835  0.4776  0.6829
  819TIP3    H223873   6.345   5.483  12.689 -2.6922  0.7047  1.7341
  820TIP3   OH223874   2.872   6.316  13.789 -0.2449 -0.5513  0.1387
  820TIP3    H123875   2.874   6.257  13.714 -1.8691 -0.1930 -0.2234
  820TIP3    H223876   2.945   6.376  13.773 -1.4737  0.4974 -2.0232
  821TIP3   OH223877   6.463   6.357   3.188 -0.3586  0.0990 -0.5205
  821TIP3    H123878   6.404   6.427   3.216 -2.4499 -2.1710  1.2111
  821TIP3    H223879   6.425   6.326   3.106 -0.5510 -0.2233 -0.3104
  822TIP3   OH223880   6.395   1.518   4.501  0.7697 -0.1293  0.3000
  822TIP3    H123881   6.357   1.605   4.495  0.2996 -0.1247  2.4513
  822TIP3    H223882   6.389   1.496   4.594  0.9940 -2.4120 -0.1739
  823TIP3   OH223883   4.581   3.305  15.767 -0.1194  0.0229  0.0317
  823TIP3    H123884   4.622   3.252  15.698  0.7746  0.9588 -0.1894
  823TIP3    H223885   4.505   3.344  15.725  0.0527  0.0784 -0.2304
  824TIP3   OH223886   6.618   3.624   1.420  0.1681 -0.0922 -0.3488
  824TIP3    H123887   6.540   3.630   1.475  0.7191 -0.9442  0.5678
  824TIP3    H223888   6.678   3.567   1.469  1.3378  0.4704 -1.0671
  825TIP3   OH223889   1.713   1.046  10.095 -0.0513 -0.2284 -0.2147
  825TIP3    H123890   1.775   1.053  10.024 -1.1840 -1.3978 -1.3672
  825TIP3    H223891   1.677   1.135  10.105  1.3751  0.3387  0.1358
  826TIP3   OH223892   3.582   6.619   1.777 -0.1696 -0.0734 -0.3777
  826TIP3    H123893   3.500   6.609   1.825  0.0046 -1.9731 -0.4253
  826TIP3    H223894   3.555   6.630   1.686 -0.3789 -1.9648 -0.5767
  827TIP3   OH223895   2.560   0.777   4.958  0.7068 -0.0034  0.3067
  827TIP3    H123896   2.503   0.853   4.958  0.1228 -0.3449  2.9988
  827TIP3    H223897   2.502   0.703   4.971  1.4099 -0.8325 -0.9549
  828TIP3   OH223898   0.064   2.799   5.459 -1.0473  0.5274 -0.0968
  828TIP3    H123899   0.134   2.810   5.395 -1.0437  1.8978  0.1153
  828TIP3    H223900   0.028   2.713   5.440  0.7681 -0.2870 -0.1309
  829TIP3   OH223901   3.996   4.794  15.122  0.5212  0.3208  0.4435
  829TIP3    H123902   4.020   4.857  15.191 -0.5436  2.0800 -0.7141
  829TIP3    H223903   3.918   4.751  15.156  1.6991 -1.0491  1.5891
  830TIP3   OH223904   0.204   1.709  16.382  0.0990  0.2930  0.7153
  830TIP3    H123905   0.156   1.639  16.337  2.0323 -0.6885  0.0764
  830TIP3    H223906   0.146   1.735  16.454 -1.5423 -0.5299 -0.2526
  831TIP3   OH223907   6.815   1.769  15.503 -0.2298 -0.0683 -0.3115
  831TIP3    H123908   6.741   1.721  15.467  0.2524  0.0580 -1.5363
  831TIP3    H223909   6.825   1.845  15.445  1.1834 -0.3706 -0.4963
  832TIP3   OH223910   3.907   1.724  12.814 -0.1602  0.8879 -0.3694
  832TIP3    H123911   3.948   1.662  12.754 -2.7562 -0.5178 -0.8469
  832TIP3    H223912   3.874   1.794  12.757  0.9833  1.7186 -0.0529
  833TIP3   OH223913   6.327   2.892  11.803  0.1417 -0.6461 -0.4034
  833TIP3    H123914   6.308   2.872  11.895 -0.8000  0.5165 -0.3250
  833TIP3    H223915   6.244   2.921  11.767  0.9996  1.2822 -0.9572
  834TIP3   OH223916   4.745   2.306  16.248 -0.2323  0.0174  0.1436
  834TIP3    H123917   4.771   2.367  16.317 -0.0260  1.3731 -1.0945
  834TIP3    H223918   4.653   2.286  16.267 -0.3151  0.7475  0.5464
  835TIP3   OH223919   2.771   0.561   2.625  0.3895 -0.0267 -0.4050
  835TIP3    H123920   2.824   0.500   2.676  0.5839 -0.2021 -0.8104
  835TIP3    H223921   2.682   0.549   2.658  0.8225  1.5446  1.5370
  836TIP3   OH223922   0.147   1.850   5.312  0.3863 -0.4945 -0.0326
  836TIP3    H123923   0.235   1.822   5.337  0.7340  0.6987  0.1026
  836TIP3    H223924   0.157   1.889   5.225 -0.2681 -1.6503 -0.6564
  837TIP3   OH223925   5.956   0.178  10.788  0.3729 -0.0339 -0.4924
  837TIP3    H123926   6.025   0.238  10.815  1.1366 -0.7021 -0.9270
  837TIP3    H223927   5.912   0.222  10.715  0.8147  0.0701 -0.6944
  838TIP3   OH223928   2.816   2.748  12.232  0.0683  0.1607  0.0828
  838TIP3    H123929   2.869   2.821  12.198  1.0883 -1.0628 -1.0984
  838TIP3    H223930   2.746   2.738  12.167 -0.1042  0.1407  0.2735
  839TIP3   OH223931   0.969   1.846  15.585  0.2540 -0.2656  0.1007
  839TIP3    H123932   0.987   1.905  15.657 -0.6034 -0.2026  0.2747
  839TIP3    H223933   0.901   1.787  15.619  0.8232 -1.1084 -0.1916
  840TIP3   OH223934   3.607   5.952   5.924  0.4090  0.0974  0.1897
  840TIP3    H123935   3.625   6.031   5.976  1.8943  0.0222 -0.1920
  840TIP3    H223936   3.665   5.885   5.960 -1.5974 -1.2059  1.2396
  841TIP3   OH223937   4.059   4.681  11.146  0.3758  0.0692 -0.2629
  841TIP3    H123938   3.994   4.744  11.114  0.7282 -0.6550 -2.5989
  841TIP3    H223939   4.011   4.628  11.209 -0.6023  1.0957 -0.1038
  842TIP3   OH223940   4.034   5.109   3.978  0.7680 -0.0589  0.5089
  842TIP3    H123941   4.072   5.022   3.989  0.2760 -0.1539  1.6851
  842TIP3    H223942   4.039   5.148   4.066  1.3507  1.2568 -0.0914
  843TIP3   OH223943   4.259   1.304  11.413  0.3145  0.6095  0.5602
  843TIP3    H123944   4.351   1.320  11.433  0.7037 -1.9701  1.2027
  843TIP3    H223945   4.246   1.339  11.325  2.3544 -0.3913 -0.1907
  844TIP3   OH223946   3.077   3.023  16.164  0.0758  0.0725 -0.6206
  844TIP3    H123947   3.039   2.950  16.213  0.8054  0.6170  0.8213
  844TIP3    H223948   3.165   2.992  16.140  0.6580  0.7040  0.6133
  845TIP3   OH223949   1.485   1.529  15.641 -0.0740 -0.1369 -0.1245
  845TIP3    H123950   1.422   1.599  15.623 -1.5198 -0.5435  2.8505
  845TIP3    H223951   1.431   1.455  15.667  1.5482 -1.5990 -0.7721
  846TIP3   OH223952   3.713   6.021   5.649 -0.2195 -0.2060 -0.0803
  846TIP3    H123953   3.752   5.948   5.601 -0.9126 -0.2702 -0.5725
  846TIP3    H223954   3.680   5.982   5.730  0.3954 -0.2192  0.1682
  847TIP3   OH223955   5.030   6.738   3.415 -0.6544  0.4248 -0.4756
  847TIP3    H123956   5.052   6.801   3.483 -1.0609 -0.7176  0.7477
  847TIP3    H223957   4.988   6.666   3.461  1.9474 -1.8953 -1.4168
  848TIP3   OH223958   0.109   5.206   4.645 -0.1174 -0.8850 -0.0566
  848TIP3    H123959   0.091   5.167   4.730  0.0957 -0.6124  0.1174
  848TIP3    H223960   0.084   5.139   4.581  0.7311 -1.5058  0.2480
  849TIP3   OH223961   5.568   3.078   4.961  0.0290  0.3935 -0.0944
  849TIP3    H123962   5.599   2.989   4.977  0.7032  0.9779  2.2789
  849TIP3    H223963   5.530   3.075   4.873  0.9366 -1.9680 -0.4817
  850TIP3   OH223964   3.783   4.539  10.943 -0.2705 -0.1428  0.2452
  850TIP3    H123965   3.814   4.546  10.853  1.8914 -0.7538  0.8858
  850TIP3    H223966   3.816   4.454  10.974 -1.0511  0.0023  1.5709
  851TIP3   OH223967   6.073   6.133  12.265  0.0120  0.1528  0.6080
  851TIP3    H123968   6.071   6.041  12.238 -0.9901  0.3819 -0.1965
  851TIP3    H223969   6.119   6.177  12.193 -0.7250  0.4657  0.3222
  852TIP3   OH223970   1.504   5.908  15.164  0.3471 -0.3975 -0.3729
  852TIP3    H123971   1.597   5.927  15.167  0.6761 -1.7378 -1.2680
  852TIP3    H223972   1.468   5.971  15.102  0.7043 -0.0945 -0.2751
  853TIP3   OH223973   5.951   5.906  11.635 -0.0498  0.4773 -0.6012
  853TIP3    H123974   6.046   5.902  11.650 -0.2866 -1.4112  0.6468
  853TIP3    H223975   5.913   5.901  11.723 -1.3426 -1.4327 -1.2266
  854TIP3   OH223976   4.219   0.356   3.490  0.3045 -0.1154  0.5541
  854TIP3    H123977   4.158   0.287   3.516 -0.2708 -0.6659 -1.9544
  854TIP3    H223978   4.163   0.427   3.458  0.9530  0.4480  0.6494
  855TIP3   OH223979   5.429   4.396   4.679 -0.4683 -0.3241 -0.0255
  855TIP3    H123980   5.411   4.447   4.599 -3.1465 -3.1032 -1.4143
  855TIP3    H223981   5.476   4.319   4.648 -0.7933 -1.0535  1.2368
  856TIP3   OH223982   3.605   3.656  11.010 -0.0294 -0.0503 -0.2970
  856TIP3    H123983   3.698   3.641  10.994 -0.0134  0.2954 -0.5316
  856TIP3    H223984   3.599   3.747  11.037 -0.4215  0.2387 -1.3147
  857TIP3   OH223985   6.458   3.542  11.886  0.4846 -0.4165 -0.5103
  857TIP3    H123986   6.453   3.590  11.803  0.0164 -0.2778 -0.4006
  857TIP3    H223987   6.501   3.459  11.863  0.0267 -0.5333 -0.9548
  858TIP3   OH223988   1.477   0.471   5.844  0.1260  0.4660  0.2096
  858TIP3    H123989   1.432   0.396   5.882  2.2072 -0.9190  0.0968
  858TIP3    H223990   1.454   0.544   5.902 -0.6860 -0.5809  1.2608
  859TIP3   OH223991   4.217   6.431   1.930  0.3600 -0.5333 -0.4800
  859TIP3    H123992   4.208   6.522   1.958  1.7219 -0.3882 -0.4496
  859TIP3    H223993   4.127   6.401   1.916 -0.1183  0.7235 -0.2142
  860TIP3   OH223994   3.581   1.314  15.852 -0.4084 -0.2224  0.5857
  860TIP3    H123995   3.555   1.241  15.796  0.4563  1.1949 -1.7959
  860TIP3    H223996   3.499   1.349  15.885 -0.9468 -1.1254  0.2536
  861TIP3   OH223997   5.996   1.008  15.415 -0.1046  0.3888  0.2762
  861TIP3    H123998   6.036   1.071  15.474  1.3113 -1.2700  1.1918
  861TIP3    H223999   5.935   0.959  15.470 -0.2054  0.0941 -0.0917
  862TIP3   OH224000   3.923   1.131  14.560  0.0610 -0.2846 -0.0745
  862TIP3    H124001   3.985   1.110  14.629  0.7929  1.2052 -0.2200
  862TIP3    H224002   3.969   1.195  14.506 -1.7235  1.1896  0.0402
  863TIP3   OH224003   5.951   6.624   3.374 -0.1183 -0.2311 -0.0191
  863TIP3    H124004   6.031   6.579   3.346  0.5623  0.6055  0.5402
  863TIP3    H224005   5.898   6.629   3.295  0.1280 -1.3103 -0.2672
  864TIP3   OH224006   2.828   2.771   0.331 -0.2696 -0.6177  0.1185
  864TIP3    H124007   2.871   2.838   0.384 -0.4567 -1.0013  0.7635
  864TIP3    H224008   2.735   2.792   0.336 -0.2276 -0.1308 -0.8040
  865TIP3   OH224009   2.422   5.790   0.821 -0.0864 -0.1432  0.2849
  865TIP3    H124010   2.422   5.774   0.727 -0.1139 -0.4245  0.3336
  865TIP3    H224011   2.402   5.883   0.829 -0.2826 -0.1628  0.0203
  866TIP3   OH224012   0.062   6.642  10.306 -0.2178 -0.1113 -0.3675
  866TIP3    H124013   0.000   6.632  10.233 -0.1722 -2.7314 -0.1609
  866TIP3    H224014   0.133   6.582  10.285 -0.3316 -1.1553  1.9132
  867TIP3   OH224015   1.885   4.656  12.466 -0.0020  0.3505  0.4124
  867TIP3    H124016   1.839   4.575  12.443 -0.1169  0.5772 -0.1810
  867TIP3    H224017   1.916   4.641  12.555 -2.5927  0.7781  1.4784
  868TIP3   OH224018   1.464   0.239   5.516  0.3879 -0.6394 -0.4076
  868TIP3    H124019   1.490   0.331   5.517  0.2490 -0.5647  1.9424
  868TIP3    H224020   1.476   0.212   5.425  2.0593  1.2338 -0.8253
  869TIP3   OH224021   2.993   5.512  11.372 -0.1965  0.1315 -0.3455
  869TIP3    H124022   2.995   5.484  11.281 -0.0398  2.3787 -1.1016
  869TIP3    H224023   2.916   5.569  11.378 -0.4937 -0.3666  1.0682
  870TIP3   OH224024   2.733   0.713  12.888 -0.0433 -0.1562 -0.6697
  870TIP3    H124025   2.671   0.645  12.914  1.0140 -1.5204 -1.5761
  870TIP3    H224026   2.680   0.777  12.841 -0.8633 -0.9916 -0.9099
  871TIP3   OH224027   2.737   0.870   1.992 -0.2144 -0.5018  0.0234
  871TIP3    H124028   2.736   0.804   2.062  2.8784 -1.1941 -0.4543
  871TIP3    H224029   2.750   0.819   1.912  2.3715  0.5962 -0.3457
  872TIP3   OH224030   2.177   4.391  12.829 -0.2162  0.4118  0.3998
  872TIP3    H124031   2.101   4.448  12.840 -0.1544  0.4257  0.7539
  872TIP3    H224032   2.247   4.449  12.802  0.5601  0.9738  3.3147
  873TIP3   OH224033   0.085   4.800  13.810  0.1374 -0.3320  0.0786
  873TIP3    H124034   0.125   4.797  13.723 -0.9941 -0.7511 -0.4584
  873TIP3    H224035   0.076   4.708  13.836 -1.2508 -0.3187 -0.2282
  874TIP3   OH224036   1.820   1.350   2.625  0.0826  0.6624 -0.5218
  874TIP3    H124037   1.793   1.433   2.586 -0.6588  1.0469  0.7393
  874TIP3    H224038   1.738   1.311   2.656  0.7355  1.0344  1.8585
  875TIP3   OH224039   5.617   1.764   4.471  0.1664  0.3057  0.1845
  875TIP3    H124040   5.589   1.753   4.562 -0.4929  1.2115  0.1023
  875TIP3    H224041   5.560   1.832   4.436  1.5918  1.2473 -0.4004
  876TIP3   OH224042   6.552   4.087  11.269 -0.0178  0.6347 -0.1360
  876TIP3    H124043   6.555   4.087  11.365  0.2147  0.3505 -0.1421
  876TIP3    H224044   6.477   4.031  11.248 -0.1595  0.8171 -0.1176
  877TIP3   OH224045   4.482   4.898   0.263 -0.3041  0.3606 -0.3762
  877TIP3    H124046   4.468   4.829   0.198  0.2494  1.5787 -1.8635
  877TIP3    H224047   4.470   4.980   0.214  3.0470  1.3880  0.2426
  878TIP3   OH224048   2.229   5.671   5.263 -0.2471 -0.0138 -0.0242
  878TIP3    H124049   2.214   5.608   5.332 -0.8421  2.1280  1.9286
  878TIP3    H224050   2.203   5.755   5.301 -0.3404  1.3114 -2.7648
  879TIP3   OH224051   3.414   2.177   6.067 -0.5670  0.6325 -0.2501
  879TIP3    H124052   3.450   2.246   6.011  1.3046 -0.2639 -0.2480
  879TIP3    H224053   3.486   2.155   6.127 -0.7948 -1.8611 -0.7870
  880TIP3   OH224054   5.961   4.469   1.280 -0.2849 -0.0209  0.6679
  880TIP3    H124055   5.866   4.462   1.271 -0.4313  0.3606  1.7073
  880TIP3    H224056   5.997   4.406   1.217 -1.2087  0.2257 -0.1257
  881TIP3   OH224057   1.048   4.271   0.323 -0.1183  0.4437  0.2140
  881TIP3    H124058   0.988   4.212   0.278  0.6411 -1.3107  1.3896
  881TIP3    H224059   1.107   4.303   0.254 -2.2284  2.1110 -0.9331
  882TIP3   OH224060   2.074   1.237  16.151 -0.4158 -0.0461 -0.1195
  882TIP3    H124061   2.043   1.155  16.113 -0.9081  0.0861 -0.0033
  882TIP3    H224062   2.153   1.259  16.100 -1.2024  0.2597 -1.2358
  883TIP3   OH224063   4.981   2.786  16.654 -0.4732  0.1919  0.0027
  883TIP3    H124064   5.072   2.761  16.669 -0.6279 -0.0054  0.6640
  883TIP3    H224065   4.956   2.741  16.574  0.5410  1.6676 -1.1967
  884TIP3   OH224066   6.368   5.960   2.850  0.7435  0.3026 -0.1364
  884TIP3    H124067   6.290   6.013   2.832  0.5616  1.3263  3.0868
  884TIP3    H224068   6.441   6.021   2.836  0.6224  0.9709  1.8303
  885TIP3   OH224069   1.929   1.188   1.008  0.3230  0.0344 -0.5775
  885TIP3    H124070   1.966   1.110   0.967  1.0981  0.4379 -0.6752
  885TIP3    H224071   1.984   1.260   0.976  1.3935  0.2958  1.6827
  886TIP3   OH224072   2.762   4.445  13.201 -0.2410 -0.0329  0.2255
  886TIP3    H124073   2.856   4.457  13.189 -0.2517  0.6448  0.7541
  886TIP3    H224074   2.753   4.413  13.291 -0.4513 -1.1083 -0.1550
  887TIP3   OH224075   3.778   3.915  15.338 -0.4563  0.4659  0.0896
  887TIP3    H124076   3.784   3.829  15.296 -1.7097 -0.5732  1.9016
  887TIP3    H224077   3.864   3.930  15.376 -0.3053 -0.0999 -0.0206
  888TIP3   OH224078   4.363   5.468  11.966  0.2325 -0.1488  0.2275
  888TIP3    H124079   4.297   5.457  11.898 -0.1826  0.5645  0.5109
  888TIP3    H224080   4.438   5.417  11.935 -0.3114 -0.6572 -0.2732
  889TIP3   OH224081   5.179   3.388  16.974 -0.6904 -0.1199 -0.4631
  889TIP3    H124082   5.251   3.432  16.929 -0.6795  0.2639 -0.0711
  889TIP3    H224083   5.104   3.399  16.915 -0.2625 -1.2076 -1.2484
  890TIP3   OH224084   0.332   5.712   5.906 -0.2935  0.2168  0.3439
  890TIP3    H124085   0.399   5.745   5.846  1.6174 -1.7891  1.2444
  890TIP3    H224086   0.308   5.627   5.870 -1.4997  0.3981  0.6885
  891TIP3   OH224087   4.932   1.795  14.914 -0.3567 -0.5691 -0.4366
  891TIP3    H124088   4.854   1.769  14.964  0.7532  3.0946  3.8156
  891TIP3    H224089   4.988   1.718  14.917 -1.1918 -1.2271  2.5202
  892TIP3   OH224090   2.909   1.982   4.213 -0.0848 -0.0044 -0.4683
  892TIP3    H124091   2.846   2.003   4.282  0.3557  1.6118 -0.5097
  892TIP3    H224092   2.880   2.035   4.138 -0.8450 -2.0789 -1.7348
  893TIP3   OH224093   6.000   0.903  16.888  0.4766  0.0516 -0.1421
  893TIP3    H124094   5.990   0.808  16.899 -0.0922 -0.0385 -1.2973
  893TIP3    H224095   5.983   0.939  16.975  0.5341 -0.8985  0.2720
  894TIP3   OH224096   3.965   0.237  16.693 -0.0072  0.6314  0.0914
  894TIP3    H124097   3.920   0.197  16.619  1.3882  0.1053 -0.5241
  894TIP3    H224098   3.896   0.261  16.755 -1.1145  0.1461 -0.9342
  895TIP3   OH224099   4.343   2.124  15.949 -0.4813 -0.7836 -0.1868
  895TIP3    H124100   4.360   2.142  15.856 -1.4826 -1.1523 -0.4544
  895TIP3    H224101   4.339   2.210  15.990 -0.6843 -0.5834 -0.6154
  896TIP3   OH224102   0.932   1.332   5.013  0.5142  0.2310 -0.1692
  896TIP3    H124103   0.863   1.398   5.009  0.4916  0.2277  0.1393
  896TIP3    H224104   0.926   1.286   4.929 -0.7887 -0.6984  0.3975
  897TIP3   OH224105   1.856   2.145   2.110  0.5114 -0.0998 -0.3099
  897TIP3    H124106   1.893   2.221   2.155  0.3691 -1.3448  2.0904
  897TIP3    H224107   1.928   2.083   2.104  0.1996 -0.4352 -0.6450
  898TIP3   OH224108   5.965   1.558  13.147  0.0390  0.0740 -0.3305
  898TIP3    H124109   5.944   1.510  13.066  1.5183  1.2589 -1.4788
  898TIP3    H224110   5.891   1.619  13.157 -0.4781 -0.5257 -0.4140
  899TIP3   OH224111   1.868   2.657   4.087  0.1307  0.0584  0.3472
  899TIP3    H124112   1.937   2.681   4.149  0.1079  1.8309 -0.2529
  899TIP3    H224113   1.793   2.634   4.142  0.9506 -1.1700  0.9935
  900TIP3   OH224114   3.270   3.204   5.202 -0.0800  0.4610 -0.2909
  900TIP3    H124115   3.342   3.229   5.260 -0.8639 -0.8636  1.3624
  900TIP3    H224116   3.269   3.108   5.205 -0.8454  0.4050 -1.6504
  901TIP3   OH224117   5.291   4.922   1.150 -0.6880  0.0436  0.1087
  901TIP3    H124118   5.296   5.015   1.127 -2.6724  0.0629 -0.4048
  901TIP3    H224119   5.202   4.911   1.183 -0.0820 -1.4394  1.3562
  902TIP3   OH224120   4.047   3.936   2.871  0.1512  0.1686  0.4961
  902TIP3    H124121   4.055   3.927   2.966 -0.0298  0.5583  0.5469
  902TIP3    H224122   4.100   4.012   2.849 -0.0805  0.2829  0.3266
  903TIP3   OH224123   5.962   4.950  15.909  0.4674  0.2613  0.9783
  903TIP3    H124124   5.933   4.866  15.945  1.7560 -0.3413  0.6445
  903TIP3    H224125   5.895   4.973  15.844  0.7597 -1.1246  0.1738
  904TIP3   OH224126   0.535   1.475  15.230 -0.1827  0.0945  0.3672
  904TIP3    H124127   0.545   1.419  15.307  0.6560  0.4296  0.5086
  904TIP3    H224128   0.615   1.528  15.227 -0.4412  0.4667 -0.4281
  905TIP3   OH224129   0.073   1.317  11.348  0.0491 -0.1172 -0.1408
  905TIP3    H124130   0.085   1.411  11.338  1.4138 -0.3393 -0.7299
  905TIP3    H224131   0.161   1.281  11.349 -0.4653 -1.4512 -0.4306
  906TIP3   OH224132   0.215   5.413   4.522 -0.3207  0.7133  0.2038
  906TIP3    H124133   0.192   5.328   4.560 -0.4934 -0.2882 -1.9530
  906TIP3    H224134   0.308   5.424   4.543 -0.1844 -0.2359  0.1510
  907TIP3   OH224135   6.304   1.630  13.279  0.3545  0.0615  0.0515
  907TIP3    H124136   6.263   1.596  13.359 -0.2723 -0.1075 -0.3354
  907TIP3    H224137   6.332   1.719  13.302 -0.2580  0.1879  0.3172
  908TIP3   OH224138   3.451   1.837   3.112  0.3809 -0.3095  0.1537
  908TIP3    H124139   3.414   1.754   3.142  1.3624 -0.2929  1.5135
  908TIP3    H224140   3.541   1.816   3.087  0.3582  0.1852 -0.3729
  909TIP3   OH224141   0.843   1.508   3.900 -0.3773 -0.4324  0.0835
  909TIP3    H124142   0.810   1.593   3.870 -0.7099 -1.2957 -2.2582
  909TIP3    H224143   0.769   1.449   3.889  0.1459 -1.2216  0.7261
  910TIP3   OH224144   0.554   3.032   4.679  0.0144 -0.3862 -0.4487
  910TIP3    H124145   0.611   3.085   4.624 -0.2961 -0.8955 -1.2803
  910TIP3    H224146   0.552   3.078   4.763  0.0896  0.6859 -1.0171
  911TIP3   OH224147   1.766   1.662  15.316 -0.5736  0.2054 -0.2983
  911TIP3    H124148   1.698   1.674  15.250  1.8287  2.2396 -2.6357
  911TIP3    H224149   1.760   1.740  15.372 -0.9183 -0.2077  0.2468
  912TIP3   OH224150   5.308   0.101   1.935  0.1520  0.3419  0.0797
  912TIP3    H124151   5.356   0.182   1.919  1.2638 -0.5689 -1.4841
  912TIP3    H224152   5.236   0.102   1.872  0.5288 -0.1508 -0.3669
  913TIP3   OH224153   1.401   3.988  10.960 -0.2390 -0.5244  0.2122
  913TIP3    H124154   1.480   3.937  10.942  0.9594  0.9699  1.0005
  913TIP3    H224155   1.346   3.929  11.011  0.3509 -1.5953 -0.3429
  914TIP3   OH224156   0.052   5.049  15.389  0.1595  0.4882 -0.4115
  914TIP3    H124157   0.077   5.118  15.327 -0.1909  0.0100 -1.0992
  914TIP3    H224158   0.136   5.012  15.418  0.3479  1.1307 -0.1030
  915TIP3   OH224159   2.109   4.576  12.314 -0.3564  0.3766 -0.0424
  915TIP3    H124160   2.059   4.597  12.392 -1.0844 -1.0941 -0.0905
  915TIP3    H224161   2.179   4.519  12.344  0.2662  1.0170 -0.2465
  916TIP3   OH224162   4.750   0.150  10.808  0.0052  0.3025 -0.5281
  916TIP3    H124163   4.705   0.098  10.874 -0.5120  1.6292  0.2108
  916TIP3    H224164   4.695   0.143  10.730 -1.1528  1.3318  0.1577
  917TIP3   OH224165   5.782   5.363   0.424  0.3095 -0.4064 -0.5720
  917TIP3    H124166   5.697   5.399   0.398  1.9053  3.5382 -1.0198
  917TIP3    H224167   5.792   5.284   0.371 -2.3687 -0.0801 -1.6945
  918TIP3   OH224168   2.505   5.269  13.165  0.4165  0.2912  0.1806
  918TIP3    H124169   2.499   5.219  13.246 -0.6902 -0.6272 -0.4363
  918TIP3    H224170   2.598   5.264  13.141  0.6457  0.0885  1.0879
  919TIP3   OH224171   4.919   0.546   4.379  0.2901  0.3165 -0.3294
  919TIP3    H124172   4.988   0.488   4.346  0.2693 -0.6009  1.1419
  919TIP3    H224173   4.928   0.626   4.327  1.5582 -0.3006 -1.1100
  920TIP3   OH224174   1.878   3.645   0.793 -0.5679  0.7090 -0.2166
  920TIP3    H124175   1.877   3.588   0.869  0.9637  0.4514 -0.3637
  920TIP3    H224176   1.948   3.611   0.737 -0.0470  2.3147 -0.6179
  921TIP3   OH224177   0.663   4.876   4.313  0.2364  0.1194  0.3780
  921TIP3    H124178   0.631   4.885   4.403 -1.0972  1.3832 -0.1859
  921TIP3    H224179   0.607   4.809   4.274  0.5205 -0.1036  0.3441
  922TIP3   OH224180   0.885   0.938   5.234 -0.5260  0.0526 -0.1757
  922TIP3    H124181   0.887   1.034   5.235 -0.2458  0.0477 -0.1894
  922TIP3    H224182   0.852   0.915   5.147  0.3995  0.1222 -0.5516
  923TIP3   OH224183   3.756   1.023   2.577  0.0425  0.3587  0.0415
  923TIP3    H124184   3.754   1.099   2.636  1.5412  0.9364 -0.5991
  923TIP3    H224185   3.830   0.970   2.608 -0.6456 -0.5697  0.1360
  924TIP3   OH224186   2.495   3.575  11.706 -0.0502  0.0439  0.0237
  924TIP3    H124187   2.483   3.585  11.612 -1.4185 -0.1936  0.1508
  924TIP3    H224188   2.480   3.663  11.742 -0.3582 -0.0288  0.0813
  925TIP3   OH224189   4.909   1.110  14.684 -0.5116 -0.3547  0.2166
  925TIP3    H124190   4.836   1.092  14.743 -0.5156 -1.2824 -0.0477
  925TIP3    H224191   4.888   1.194  14.644 -0.6957  0.1044  1.2432
  926TIP3   OH224192   4.832   5.013  14.925 -0.1411 -0.2467  0.4738
  926TIP3    H124193   4.894   5.080  14.953 -0.1962  0.6453 -1.3924
  926TIP3    H224194   4.754   5.027  14.980 -1.0408  2.7784 -1.3656
  927TIP3   OH224195   1.917   2.987   2.482 -0.1913 -0.0586 -0.4155
  927TIP3    H124196   1.863   3.067   2.485  0.7387  0.5617  1.0437
  927TIP3    H224197   2.007   3.020   2.476  0.1663 -1.0037 -0.3059
  928TIP3   OH224198   0.350   4.646   4.005  0.5342 -0.4183 -0.1952
  928TIP3    H124199   0.272   4.592   4.021 -0.1407  0.6745  0.2839
  928TIP3    H224200   0.401   4.595   3.941 -0.3773 -1.3267 -0.2316
  929TIP3   OH224201   5.202   3.336   5.059  0.1567  0.4208 -0.0472
  929TIP3    H124202   5.157   3.337   5.143  2.3859  0.0120  1.2218
  929TIP3    H224203   5.160   3.406   5.008 -2.1626 -0.2390  0.8352
  930TIP3   OH224204   1.071   2.962  12.584  0.4154  0.4792  0.4411
  930TIP3    H124205   1.096   2.919  12.666  1.4648  1.5064  0.6867
  930TIP3    H224206   0.975   2.958  12.582  0.4492 -1.7132  0.5132
  931TIP3   OH224207   3.194   0.069  15.459  0.7379 -0.3767  0.1592
  931TIP3    H124208   3.193  -0.009  15.403 -1.3068 -0.8203  0.7489
  931TIP3    H224209   3.141   0.133  15.411  0.9757  0.0668  0.4860
  932TIP3   OH224210   5.388   5.037  11.850 -0.1149 -0.1195 -0.2206
  932TIP3    H124211   5.457   5.070  11.793 -1.5462  0.2176 -1.8225
  932TIP3    H224212   5.334   4.981  11.794 -1.2980 -0.1844  0.9242
  933TIP3   OH224213   3.670   6.285  10.687  1.0336 -0.4266 -0.3132
  933TIP3    H124214   3.592   6.252  10.642 -0.3114 -0.0692  1.6194
  933TIP3    H224215   3.675   6.377  10.661  0.1604 -0.1730  0.3980
  934TIP3   OH224216   5.618   6.043  14.346  0.5445  0.4430  0.1490
  934TIP3    H124217   5.617   5.987  14.268 -0.1638 -0.4179  0.7573
  934TIP3    H224218   5.579   5.989  14.415  2.3769  0.7007  1.4612
  935TIP3   OH224219   5.763   6.345  14.965 -0.1581 -0.1307 -0.5296
  935TIP3    H124220   5.720   6.283  15.024 -2.5775 -0.2471 -2.2835
  935TIP3    H224221   5.759   6.428  15.012 -3.2612  0.0727 -0.9048
  936TIP3   OH224222   4.080   2.908  12.286 -0.2966 -0.1055  0.5274
  936TIP3    H124223   4.133   2.968  12.234 -1.5075 -1.8906 -3.1446
  936TIP3    H224224   4.142   2.867  12.346  1.6230  0.8500 -0.6948
  937TIP3   OH224225   1.161   0.192   4.292  0.6330 -0.3741  0.2468
  937TIP3    H124226   1.151   0.286   4.303  0.7570 -0.1338 -1.4891
  937TIP3    H224227   1.193   0.161   4.377 -2.1525  0.6987  1.7925
  938TIP3   OH224228   6.090   4.489   4.118  0.2965  0.1318  0.3852
  938TIP3    H124229   6.074   4.580   4.143  1.4865  0.0432  1.6063
  938TIP3    H224230   6.109   4.492   4.024  1.0565  1.2480  0.5626
  939TIP3   OH224231   0.072   1.479   4.500 -0.1648  0.0471  0.1020
  939TIP3    H124232   0.053   1.422   4.425 -0.1995  0.1548  0.0271
  939TIP3    H224233   0.089   1.565   4.460  0.1708  0.0246  0.1929
  940TIP3   OH224234   2.776   3.922  16.652 -0.0046 -0.1120 -0.5131
  940TIP3    H124235   2.828   3.863  16.707 -0.6056 -0.5817 -0.4448
  940TIP3    H224236   2.718   3.967  16.713 -0.3276 -0.2730 -0.6992
  941TIP3   OH224237   1.995   6.399   0.960 -0.0276  0.6184 -0.7630
  941TIP3    H124238   1.954   6.354   1.034  0.8741  0.8350 -0.1166
  941TIP3    H224239   2.021   6.330   0.900  2.7607  0.0399  0.9193
  942TIP3   OH224240   0.260   1.064  14.256  0.3851  0.1907 -0.9970
  942TIP3    H124241   0.341   1.076  14.207  1.8389 -1.6818  0.7585
  942TIP3    H224242   0.282   1.000  14.323 -2.9998 -1.6728 -1.4407
  943TIP3   OH224243   4.065   0.247   1.078  0.2236  0.3882  0.0550
  943TIP3    H124244   3.975   0.272   1.101 -0.5098 -0.9399 -1.1957
  943TIP3    H224245   4.085   0.174   1.136 -1.2038 -2.2105 -2.5035
  944TIP3   OH224246   3.033   6.440  16.472 -0.0912 -0.5122  0.5896
  944TIP3    H124247   3.098   6.503  16.503 -1.1469 -0.0404  1.9884
  944TIP3    H224248   2.996   6.481  16.394  1.3233 -0.8331 -0.2876
  945TIP3   OH224249   5.885   1.509   4.680  0.3478  0.0264  0.2343
  945TIP3    H124250   5.938   1.482   4.755 -0.6725  0.3808  1.0995
  945TIP3    H224251   5.946   1.506   4.606  1.2623 -0.7582  0.9882
  946TIP3   OH224252   5.246   2.801   1.694  0.1814 -0.0326 -0.0719
  946TIP3    H124253   5.324   2.844   1.659  2.6930 -3.1694  1.1513
  946TIP3    H224254   5.266   2.707   1.690 -4.2862 -1.2105 -1.2867
  947TIP3   OH224255   6.002   4.743   1.315 -0.3217 -0.3812 -0.0322
  947TIP3    H124256   5.974   4.657   1.285  0.0803 -0.3050 -0.6614
  947TIP3    H224257   6.097   4.743   1.301  0.1457 -0.8826  2.6439
  948TIP3   OH224258   3.414   0.875   3.641  0.1539 -0.2164 -0.6350
  948TIP3    H124259   3.473   0.940   3.679 -0.0546 -0.2245 -0.2883
  948TIP3    H224260   3.407   0.899   3.549 -2.0375  1.8996 -0.0238
  949TIP3   OH224261   2.000   5.529  14.173 -0.5257 -0.4053 -0.1789
  949TIP3    H124262   1.957   5.598  14.122 -1.1493 -0.7590 -0.1394
  949TIP3    H224263   2.094   5.546  14.160 -0.6654 -0.3098 -1.2159
  950TIP3   OH224264   4.547   2.902  16.922 -0.0771  0.1394  0.0423
  950TIP3    H124265   4.538   2.809  16.902  1.2518  0.3138 -1.5891
  950TIP3    H224266   4.632   2.927  16.885 -0.9768  2.2939 -0.7556
  951TIP3   OH224267   0.564   3.678  16.508  0.4440  0.5051  0.4848
  951TIP3    H124268   0.508   3.729  16.566 -0.6855 -1.1154  0.8989
  951TIP3    H224269   0.514   3.670  16.427  1.9695  2.6666 -0.7745
  952TIP3   OH224270   1.705   0.313   5.810 -0.6495  0.1331  0.2916
  952TIP3    H124271   1.746   0.373   5.747  1.5052 -0.9326  0.5826
  952TIP3    H224272   1.627   0.359   5.839  0.2083  2.2251 -0.4988
  953TIP3   OH224273   6.718   0.908   1.593  0.0881 -0.1443 -0.3452
  953TIP3    H124274   6.744   0.978   1.532 -0.2353 -0.2158 -0.5686
  953TIP3    H224275   6.636   0.875   1.557 -0.4016  0.1922  0.4407
  954TIP3   OH224276   1.678   1.861   4.258  0.4346  0.5936 -0.4046
  954TIP3    H124277   1.597   1.890   4.215 -1.0097 -1.7878  0.5244
  954TIP3    H224278   1.728   1.819   4.188 -0.5599 -0.6377 -0.4031
  955TIP3   OH224279   6.437   2.554   3.784  0.3257 -0.1274  0.5592
  955TIP3    H124280   6.350   2.568   3.746  0.6199  1.9650  0.5403
  955TIP3    H224281   6.437   2.462   3.810 -1.5921 -0.3899 -0.1821
  956TIP3   OH224282   1.766   3.013   4.415  0.2780  0.0516  0.0529
  956TIP3    H124283   1.717   2.967   4.483 -1.1283 -1.7969 -2.0532
  956TIP3    H224284   1.704   3.077   4.379 -0.7687 -2.2624 -2.5926
  957TIP3   OH224285   3.989   2.988   4.198 -0.3319  0.1589  0.3631
  957TIP3    H124286   4.021   2.954   4.281 -0.5716 -0.3441  0.2495
  957TIP3    H224287   3.950   2.913   4.154  0.8614  0.1320 -0.7256
  958TIP3   OH224288   6.365   2.197  13.584 -0.3124  0.6315 -0.2196
  958TIP3    H124289   6.440   2.200  13.524 -1.0984  1.1311 -1.2101
  958TIP3    H224290   6.341   2.104  13.587 -0.0030  0.5441 -0.3302
  959TIP3   OH224291   3.841   2.538   2.004  0.2962  0.3892  0.7565
  959TIP3    H124292   3.756   2.543   2.047  0.4585  1.3048  0.9984
  959TIP3    H224293   3.864   2.630   1.985  0.3469  0.0364 -1.0474
  960TIP3   OH224294   0.449   2.583   5.878  0.4528 -0.1907  0.3521
  960TIP3    H124295   0.387   2.579   5.951 -0.2333 -0.0343 -0.2108
  960TIP3    H224296   0.535   2.587   5.919 -0.0116  3.2790  1.2608
  961TIP3   OH224297   6.824   0.432  16.626 -0.0482 -0.1180  0.8889
  961TIP3    H124298   6.875   0.364  16.670 -0.0360  0.7144  2.2089
  961TIP3    H224299   6.884   0.505  16.618 -0.9882  0.9027  2.5271
  962TIP3   OH224300   5.608   2.775  14.392 -0.3250  0.0347 -0.0829
  962TIP3    H124301   5.608   2.727  14.310 -1.4405 -1.6381  0.8393
  962TIP3    H224302   5.560   2.856  14.373 -0.7292 -0.4190 -1.0230
  963TIP3   OH224303   0.064   2.370  14.939  0.1497 -0.5805 -0.0609
  963TIP3    H124304   0.007   2.322  14.878  1.5137  0.6792 -2.4865
  963TIP3    H224305   0.147   2.323  14.935  0.0654 -0.9034  1.4680
  964TIP3   OH224306   0.222   0.865  10.610  0.7281  0.2594 -0.0916
  964TIP3    H124307   0.286   0.909  10.666  1.3067 -0.1407 -0.4300
  964TIP3    H224308   0.268   0.788  10.577  0.0518 -0.0590 -0.3014
  965TIP3   OH224309   6.155   3.652  12.121 -0.0957  0.1347  0.3181
  965TIP3    H124310   6.185   3.736  12.157 -0.4211  1.7453 -2.8113
  965TIP3    H224311   6.236   3.608  12.094 -0.0071  0.2702  0.3600
  966TIP3   OH224312   2.148   1.660   5.755 -0.3180  0.1329  0.1346
  966TIP3    H124313   2.183   1.696   5.837 -1.0135  0.4600  0.3037
  966TIP3    H224314   2.208   1.691   5.687 -0.6356  1.2544  0.3335
  967TIP3   OH224315   6.027   3.086   2.561  0.0449 -0.1482  0.1026
  967TIP3    H124316   5.973   3.129   2.494 -0.5432  0.8026  1.1588
  967TIP3    H224317   6.048   3.000   2.523 -0.4605  0.2762 -1.1996
  968TIP3   OH224318   0.569   3.181  11.133 -0.4453 -0.4314  0.3170
  968TIP3    H124319   0.547   3.091  11.112 -0.2101 -0.5739  0.6654
  968TIP3    H224320   0.636   3.205  11.069  0.2568 -0.8559  0.8714
  969TIP3   OH224321   3.188   0.163   5.238  0.3064 -0.0215  0.6504
  969TIP3    H124322   3.127   0.132   5.305 -0.6286 -1.4204 -0.7545
  969TIP3    H224323   3.219   0.083   5.195  0.2610  0.8268 -1.0711
  970TIP3   OH224324   4.188   1.854   3.187  0.6149  0.2656  0.3487
  970TIP3    H124325   4.259   1.902   3.229 -0.1954  0.3354  1.7242
  970TIP3    H224326   4.147   1.805   3.258 -2.1517  2.0082  0.1204
  971TIP3   OH224327   0.030   5.549   2.272  0.0025 -0.3914  0.0131
  971TIP3    H124328   0.073   5.621   2.226 -0.9378 -0.1596 -0.5452
  971TIP3    H224329  -0.063   5.569   2.264 -0.1944 -0.5555  1.7054
  972TIP3   OH224330   2.841   3.960  10.565 -0.3808 -0.4286  0.1574
  972TIP3    H124331   2.798   3.876  10.544 -0.5040 -0.6317  1.1542
  972TIP3    H224332   2.934   3.940  10.563 -0.4168 -0.6900  0.7320
  973TIP3   OH224333   1.216   2.744   5.491 -0.2631 -0.4598  0.5835
  973TIP3    H124334   1.182   2.663   5.451 -1.1023  0.0161  0.3151
  973TIP3    H224335   1.276   2.779   5.425 -2.4283  0.8799 -0.8065
  974TIP3   OH224336   2.695   1.081   3.772  0.2675  0.0035 -0.5463
  974TIP3    H124337   2.617   1.031   3.745  0.9132 -1.9799  1.0129
  974TIP3    H224338   2.766   1.045   3.719  0.7734 -0.9446  0.7153
  975TIP3   OH224339   3.966   4.940  11.733  0.0796  0.1860 -0.1053
  975TIP3    H124340   3.944   4.862  11.785 -0.1064 -1.6319 -2.7284
  975TIP3    H224341   3.883   4.984  11.719 -0.2770 -0.7254 -0.9500
  976TIP3   OH224342   1.611   6.161   4.333  0.0666 -0.5912  0.1600
  976TIP3    H124343   1.696   6.176   4.292  0.5883 -0.4003  1.2794
  976TIP3    H224344   1.574   6.087   4.284 -0.1552  0.7613 -1.8475
  977TIP3   OH224345   6.692   3.631   3.347 -0.4008  0.1177 -0.3901
  977TIP3    H124346   6.763   3.689   3.370  0.9899 -1.2825 -0.9701
  977TIP3    H224347   6.707   3.552   3.401 -1.6624 -0.1046 -0.3292
  978TIP3   OH224348   2.118   1.658  12.987 -0.5991  0.1573 -0.3510
  978TIP3    H124349   2.170   1.577  12.986 -1.2489 -0.2599 -1.0204
  978TIP3    H224350   2.181   1.726  13.011 -0.3662 -0.7631  1.9117
  979TIP3   OH224351   4.592   5.316  11.630 -0.3226 -0.1490 -0.1201
  979TIP3    H124352   4.542   5.286  11.706 -0.0288  1.0575  0.5840
  979TIP3    H224353   4.683   5.293  11.651 -0.4124 -1.2728 -0.8639
  980TIP3   OH224354   1.676   6.069   5.110  0.1696 -0.4910  0.6464
  980TIP3    H124355   1.613   6.139   5.126  0.8478 -0.0011  1.2915
  980TIP3    H224356   1.623   5.993   5.089 -0.5755  0.3525 -0.6936
  981TIP3   OH224357   2.380   3.837   0.441 -1.1342 -0.7508  0.3252
  981TIP3    H124358   2.386   3.746   0.410 -0.0303 -0.4132 -0.5397
  981TIP3    H224359   2.368   3.829   0.535  0.6014 -1.8261  0.5179
  982TIP3   OH224360   2.429   4.850  14.382  0.0730  0.1267 -0.3160
  982TIP3    H124361   2.351   4.797  14.365  0.5981 -0.4089 -1.1395
  982TIP3    H224362   2.474   4.855  14.298  1.2156 -0.0539  0.2595
  983TIP3   OH224363   0.149   0.154  16.001 -0.0632  0.1276  0.0183
  983TIP3    H124364   0.131   0.244  16.028 -1.3723 -0.1625  0.2025
  983TIP3    H224365   0.211   0.163  15.928 -2.2290  1.4027 -1.8216
  984TIP3   OH224366   4.527   3.785  14.733  1.0956 -0.2006  0.5633
  984TIP3    H124367   4.449   3.732  14.747 -0.6499  2.3959  1.4262
  984TIP3    H224368   4.533   3.795  14.638  0.3554 -0.4055  0.4920
  985TIP3   OH224369   2.378   6.366  16.355 -0.0378  0.3770 -0.1469
  985TIP3    H124370   2.309   6.414  16.309 -0.3150 -0.1894 -0.3246
  985TIP3    H224371   2.349   6.365  16.447 -1.6830 -2.1830 -0.5784
  986TIP3   OH224372   4.174   6.568  14.486 -0.1153 -0.7125  0.1426
  986TIP3    H124373   4.147   6.488  14.439 -0.2834 -0.8584  0.4808
  986TIP3    H224374   4.123   6.566  14.567 -1.1693  0.4469 -0.4549
  987TIP3   OH224375   2.644   4.229   5.445  0.0215 -0.1779  0.3605
  987TIP3    H124376   2.560   4.248   5.487 -0.4754 -0.7033 -0.3520
  987TIP3    H224377   2.663   4.138   5.470 -1.1016 -1.0894 -1.7793
  988TIP3   OH224378   4.624   2.032   5.379  0.2168 -0.2372  0.4194
  988TIP3    H124379   4.702   2.085   5.397  1.6727 -2.1453  0.0926
  988TIP3    H224380   4.615   2.033   5.284 -1.1975  1.3007  0.5227
  989TIP3   OH224381   6.076   2.651   4.839  0.0033  0.3306  0.1993
  989TIP3    H124382   6.088   2.620   4.750 -0.6631  1.5705 -0.3580
  989TIP3    H224383   6.035   2.578   4.885  0.9230 -0.5353 -0.3330
  990TIP3   OH224384   3.255   1.054   4.521 -0.3357 -0.1469 -0.0983
  990TIP3    H124385   3.313   0.978   4.527  0.0900  0.0947 -0.8910
  990TIP3    H224386   3.199   1.035   4.445  0.4943  0.7812 -0.9827
  991TIP3   OH224387   0.510   1.671  10.623 -0.1842 -0.2291 -0.1107
  991TIP3    H124388   0.578   1.728  10.585 -0.2642  0.0580  0.1729
  991TIP3    H224389   0.543   1.648  10.709 -0.4712 -0.0405  0.0517
  992TIP3   OH224390   4.625   5.682  12.087 -0.0128  0.1601  0.6101
  992TIP3    H124391   4.674   5.641  12.159 -1.2219 -0.6832  0.9924
  992TIP3    H224392   4.636   5.621  12.014  3.2324  2.1656 -0.7796
  993TIP3   OH224393   4.360   2.930   5.738 -0.3917 -0.5536 -0.0797
  993TIP3    H124394   4.449   2.917   5.706 -1.2756 -3.1775 -1.7420
  993TIP3    H224395   4.358   2.885   5.823 -0.2300 -0.7813 -0.1978
  994TIP3   OH224396   4.244   2.804  12.479  0.0419 -0.7439  0.1716
  994TIP3    H124397   4.208   2.731  12.528  0.6732 -1.4126 -0.3411
  994TIP3    H224398   4.324   2.770  12.440 -1.3104 -0.8761 -2.8634
  995TIP3   OH224399   3.428   4.347   2.078  0.0711 -0.7126 -0.3459
  995TIP3    H124400   3.405   4.257   2.053  1.8244 -1.0575 -0.8298
  995TIP3    H224401   3.521   4.343   2.100  0.7854  1.3936 -2.5443
  996TIP3   OH224402   4.636   0.382   2.845  0.0202 -0.5913  0.7072
  996TIP3    H124403   4.703   0.371   2.913  0.9660 -1.9528 -0.4006
  996TIP3    H224404   4.686   0.405   2.766 -0.9081 -0.7938  0.0537
  997TIP3   OH224405   0.622   1.325   3.601  0.3120 -0.4310 -0.0941
  997TIP3    H124406   0.656   1.264   3.535  0.2246  0.5530 -1.0854
  997TIP3    H224407   0.680   1.401   3.595 -1.5261  0.9513 -1.2535
  998TIP3   OH224408   6.632   3.342  11.814  0.6319  0.2534  0.5541
  998TIP3    H124409   6.660   3.345  11.722 -0.3292  0.2874  0.2518
  998TIP3    H224410   6.611   3.250  11.830  1.0814  0.1944  0.8386
  999TIP3   OH224411   3.036   5.472   5.058  0.0061 -0.3789 -0.6020
  999TIP3    H124412   2.944   5.488   5.036  0.1323 -0.1763 -1.0009
  999TIP3    H224413   3.040   5.378   5.077 -0.4464 -0.2415  0.2608
 1000TIP3   OH224414   2.588   5.576   1.550 -0.3639  0.0970 -0.3923
 1000TIP3    H124415   2.656   5.636   1.521  1.3940 -1.2987  0.6354
 1000TIP3    H224416   2.619   5.544   1.635 -1.0830 -2.4444 -1.0051
 1001TIP3   OH224417   5.278   4.528  12.841 -0.1442  0.0771  0.1311
 1001TIP3    H124418   5.370   4.519  12.863 -0.3563  0.0734  1.0638
 1001TIP3    H224419   5.232   4.474  12.905 -0.8081  0.2638 -0.1717
 1002TIP3   OH224420   1.846   6.223  12.068 -0.1710  0.3295 -0.2813
 1002TIP3    H124421   1.915   6.186  12.123 -1.7617 -1.8457  0.3848
 1002TIP3    H224422   1.877   6.311  12.047  3.3229 -0.9080 -1.0010
 1003TIP3   OH224423   3.626   6.120  11.165  0.4514 -0.4381 -0.5190
 1003TIP3    H124424   3.644   6.036  11.207  0.5283  0.8606  2.2776
 1003TIP3    H224425   3.708   6.142  11.119  0.9074 -1.2526 -0.1202
 1004TIP3   OH224426   1.258   0.390  13.701 -0.1445  0.1567 -0.4963
 1004TIP3    H124427   1.169   0.419  13.719  0.8382  2.4978  1.0342
 1004TIP3    H224428   1.294   0.367  13.787  0.8339 -0.5334 -1.0626
 1005TIP3   OH224429   5.510   2.614  16.866  0.3170  0.2101 -0.4620
 1005TIP3    H124430   5.497   2.648  16.777  2.2438 -0.7828 -1.1881
 1005TIP3    H224431   5.488   2.521  16.859  1.1191 -0.0104 -0.0677
 1006TIP3   OH224432   1.138   5.416  14.518 -0.3057 -0.5970  0.1394
 1006TIP3    H124433   1.137   5.509  14.537 -0.1575 -0.4248 -0.6648
 1006TIP3    H224434   1.051   5.385  14.545 -1.2059  0.2100 -1.6373
 1007TIP3   OH224435   5.380   2.574  14.780 -0.6400  0.3847  0.0291
 1007TIP3    H124436   5.449   2.617  14.831 -1.0748  1.1682 -0.0325
 1007TIP3    H224437   5.359   2.636  14.711 -1.3740  0.1321  0.0197
 1008TIP3   OH224438   4.245   2.075   3.371 -0.3527 -0.0809 -0.2853
 1008TIP3    H124439   4.168   2.105   3.323 -0.2925 -2.1939 -1.8576
 1008TIP3    H224440   4.211   2.015   3.437 -0.2055  0.7033  0.5210
 1009TIP3   OH224441   1.316   6.229  16.877 -0.1215  0.3965  0.5181
 1009TIP3    H124442   1.346   6.301  16.933 -1.9440  0.3724  1.5996
 1009TIP3    H224443   1.281   6.273  16.799 -0.2870  0.6295  0.7198
 1010TIP3   OH224444   6.247   0.270  13.222  0.5172 -0.3438 -0.4442
 1010TIP3    H124445   6.166   0.301  13.264  0.3545 -2.2947  0.8507
 1010TIP3    H224446   6.301   0.347  13.213  0.0282  0.4224  2.2700
 1011TIP3   OH224447   2.758   5.325  11.899  0.0803 -0.2938  0.0368
 1011TIP3    H124448   2.673   5.368  11.887 -0.7139 -1.7609  0.2309
 1011TIP3    H224449   2.745   5.236  11.869  1.1221 -0.9710  1.4521
 1012TIP3   OH224450   2.928   2.450  12.618 -0.5344  0.2924 -0.3020
 1012TIP3    H124451   2.874   2.522  12.650 -3.4029 -1.0290 -1.7551
 1012TIP3    H224452   2.909   2.377  12.677 -1.5441 -0.5951 -1.6661
 1013TIP3   OH224453   3.449   2.090   5.269  0.6950 -0.5546 -0.7668
 1013TIP3    H124454   3.397   2.107   5.348  1.7321  0.7126 -0.3246
 1013TIP3    H224455   3.500   2.012   5.291  2.1375  0.6901  0.4424
 1014TIP3   OH224456   2.024   6.088   2.311 -0.2224  0.1185 -0.2341
 1014TIP3    H124457   2.050   6.015   2.255 -1.4167 -1.0675  0.6912
 1014TIP3    H224458   1.930   6.077   2.323 -0.3267  1.4843  0.4129
 1015TIP3   OH224459   4.506   5.619   3.595  0.2083  0.1334  0.4720
 1015TIP3    H124460   4.451   5.542   3.586  0.6363 -0.2102  0.7193
 1015TIP3    H224461   4.458   5.689   3.550 -0.9074  0.0932  1.5438
 1016TIP3   OH224462   6.708   2.834  10.709  0.0356  0.1526  0.3058
 1016TIP3    H124463   6.639   2.832  10.775  0.5645  1.9247  0.9828
 1016TIP3    H224464   6.788   2.849  10.760  0.5942  0.4552 -0.6443
 1017TIP3   OH224465   3.633   3.106  15.622  0.0440 -0.2831  0.0148
 1017TIP3    H124466   3.553   3.156  15.640  0.9218  1.8032 -1.3958
 1017TIP3    H224467   3.670   3.148  15.544  1.3429 -2.6493 -0.7306
 1018TIP3   OH224468   3.292   5.651  14.228 -0.3011 -0.4537 -0.5988
 1018TIP3    H124469   3.260   5.737  14.258  0.8719 -0.3552  0.4710
 1018TIP3    H224470   3.329   5.668  14.142  0.9652  0.3768  0.0891
 1019TIP3   OH224471   1.329   6.086   4.984 -0.6682 -0.4463  0.1374
 1019TIP3    H124472   1.375   6.022   4.930  1.4821  0.4860  0.7883
 1019TIP3    H224473   1.303   6.037   5.063 -0.4807 -0.8914 -0.0761
 1020TIP3   OH224474   2.749   6.533  13.508 -0.2240 -0.0625 -0.0247
 1020TIP3    H124475   2.781   6.570  13.590 -2.2130  3.4287 -0.6274
 1020TIP3    H224476   2.828   6.512  13.459  1.0216 -1.9124  2.5214
 1021TIP3   OH224477   3.532   3.340  14.501  0.0998  0.2687  0.2998
 1021TIP3    H124478   3.496   3.251  14.500 -0.3548  0.4525  0.0528
 1021TIP3    H224479   3.597   3.340  14.432  0.3792  0.0173  0.5574
 1022TIP3   OH224480   2.970   3.743   3.121 -0.1931 -0.3081  0.2900
 1022TIP3    H124481   2.983   3.733   3.027 -1.4584 -1.4965  0.1949
 1022TIP3    H224482   2.913   3.819   3.130 -0.5964 -0.5749  0.0336
 1023TIP3   OH224483   5.498   2.208   0.433 -0.2681 -0.1822  0.5542
 1023TIP3    H124484   5.512   2.114   0.439  0.1592 -0.0738  1.3720
 1023TIP3    H224485   5.404   2.220   0.441 -0.4624 -0.6241 -0.8304
 1024TIP3   OH224486   3.785   4.872   3.193 -0.1992 -0.0225  0.2956
 1024TIP3    H124487   3.871   4.896   3.160 -0.0302 -1.1559 -0.1313
 1024TIP3    H224488   3.724   4.918   3.135  0.1075 -1.2394 -1.0451
 1025TIP3   OH224489   6.480   4.365   2.619  0.3190  0.1422  0.1215
 1025TIP3    H124490   6.487   4.366   2.524 -0.2357  2.1043  0.0688
 1025TIP3    H224491   6.551   4.307   2.647  1.8447  1.1747 -1.4016
 1026TIP3   OH224492   3.362   0.628   0.247  1.2467 -0.0347  0.1937
 1026TIP3    H124493   3.400   0.624   0.334  1.9138  1.7788  0.0205
 1026TIP3    H224494   3.408   0.700   0.204 -2.6788  2.7535  0.1669
 1027TIP3   OH224495   1.574   5.435   3.302  0.3555  0.2723 -0.1262
 1027TIP3    H124496   1.597   5.347   3.334  0.3301  0.3449  0.0874
 1027TIP3    H224497   1.652   5.464   3.254  0.7399  0.5457  0.6543
 1028TIP3   OH224498   6.062   2.962  11.685 -0.7737 -0.7239  0.7589
 1028TIP3    H124499   5.999   2.960  11.613  0.2895 -1.0989 -0.1769
 1028TIP3    H224500   6.043   3.043  11.731 -0.8770 -0.0157 -0.4953
 1029TIP3   OH224501   0.179   5.687   2.029  0.1948  0.0286  0.3284
 1029TIP3    H124502   0.097   5.692   1.980 -0.2659  1.5002  1.2134
 1029TIP3    H224503   0.202   5.778   2.048  2.8010 -0.2081 -1.0999
 1030TIP3   OH224504   5.921   2.471   3.413  0.4168 -0.1113 -0.7695
 1030TIP3    H124505   5.933   2.378   3.395 -0.3742 -0.2158 -0.8189
 1030TIP3    H224506   5.987   2.515   3.360  0.5925 -0.6320 -0.9852
 1031TIP3   OH224507   0.420   5.438  13.769  0.1949 -0.0992 -0.2148
 1031TIP3    H124508   0.351   5.381  13.803 -0.7189 -0.0741 -1.9293
 1031TIP3    H224509   0.395   5.526  13.800 -0.2040 -0.1798 -0.2965
 1032TIP3   OH224510   1.147   1.037  14.375 -0.5248  0.7658  0.0018
 1032TIP3    H124511   1.127   1.001  14.461  0.6504 -0.8272 -0.3463
 1032TIP3    H224512   1.098   0.982  14.314  1.8418 -0.8489 -0.5830
 1033TIP3   OH224513   0.225   5.996  17.000  0.1064  0.2097 -0.2459
 1033TIP3    H124514   0.311   5.981  17.038 -0.3364 -1.5700  0.1412
 1033TIP3    H224515   0.219   5.933  16.928  0.3974  2.5918 -2.4681
 1034TIP3   OH224516   1.100   6.678  10.452  0.2399  0.1342  0.6550
 1034TIP3    H124517   1.013   6.642  10.435  0.8048 -1.0488  0.2011
 1034TIP3    H224518   1.154   6.648  10.379  1.2496  0.0867  1.3991
 1035TIP3   OH224519   0.401   6.157   6.153  0.1451  0.0487 -0.9457
 1035TIP3    H124520   0.466   6.154   6.223 -1.0146  0.4654  0.1908
 1035TIP3    H224521   0.351   6.076   6.163 -3.7612  2.4793  2.5583
 1036TIP3   OH224522   4.614   6.811  13.258 -0.7116  0.4248  0.1020
 1036TIP3    H124523   4.642   6.896  13.291  1.7235  0.4598 -1.7275
 1036TIP3    H224524   4.693   6.756  13.266 -1.4918 -0.9188 -1.0395
 1037TIP3   OH224525   2.277   3.039  15.563  0.1434 -0.2258 -0.3823
 1037TIP3    H124526   2.193   3.082  15.549  0.7372  1.1001 -0.0250
 1037TIP3    H224527   2.332   3.106  15.604  0.7230 -1.6890  1.4018
 1038TIP3   OH224528   3.448   6.292  14.134  0.1469  0.1161 -0.8283
 1038TIP3    H124529   3.518   6.230  14.112 -0.5486 -0.7329 -0.7071
 1038TIP3    H224530   3.438   6.346  14.056 -0.3850 -1.0468 -1.5920
 1039TIP3   OH224531   3.365   2.252  16.741  0.3329  0.1494  0.5961
 1039TIP3    H124532   3.374   2.330  16.685  0.1830  1.0246  1.7497
 1039TIP3    H224533   3.407   2.182  16.692 -2.2764  0.1739 -1.9583
 1040TIP3   OH224534   6.319   6.242  15.348  0.4575 -0.2551 -0.2256
 1040TIP3    H124535   6.302   6.229  15.441  1.3186  0.6503  0.0741
 1040TIP3    H224536   6.408   6.275  15.344  0.5482 -0.5943 -1.4092
 1041TIP3   OH224537   3.022   1.690   2.387 -0.6092 -0.1581  0.0799
 1041TIP3    H124538   3.013   1.696   2.292  1.2341  0.0209 -0.1198
 1041TIP3    H224539   3.077   1.613   2.401 -1.4482 -0.5997  1.0658
 1042TIP3   OH224540   3.972   2.981  15.425  0.0629 -0.4555  0.2016
 1042TIP3    H124541   3.938   3.070  15.426 -2.5719 -1.3095 -1.2166
 1042TIP3    H224542   4.064   2.990  15.401  0.7804  1.9933  3.2860
 1043TIP3   OH224543   1.882   4.047  15.261 -0.3670  0.4154  0.0397
 1043TIP3    H124544   1.807   3.989  15.246 -1.0445  1.3970 -0.5282
 1043TIP3    H224545   1.845   4.135  15.253  1.0278  0.9293 -1.2043
 1044TIP3   OH224546   0.867   6.056  13.439 -0.0191 -0.4643  0.0103
 1044TIP3    H124547   0.834   6.078  13.526  1.4193 -2.0152  1.0065
 1044TIP3    H224548   0.865   5.960  13.436  2.8135 -0.5826 -0.4461
 1045TIP3   OH224549   3.030   1.140  15.011 -0.0601  0.2506 -0.0648
 1045TIP3    H124550   2.937   1.129  14.996 -0.0197  0.6046 -0.5876
 1045TIP3    H224551   3.072   1.075  14.954  0.0535  0.9136 -0.7547
 1046TIP3   OH224552   0.120   2.040   0.445 -0.0448 -0.1682  0.0552
 1046TIP3    H124553   0.168   2.013   0.367 -0.0851  0.3771 -0.1593
 1046TIP3    H224554   0.065   1.964   0.466  0.7648 -0.7266  0.1996
 1047TIP3   OH224555   4.210   6.108  16.678  0.0572  0.0472  0.0146
 1047TIP3    H124556   4.136   6.162  16.704  0.6167  0.1102  1.5692
 1047TIP3    H224557   4.196   6.092  16.584 -0.3685  2.4878 -0.4178
 1048TIP3   OH224558   4.981   1.507  16.106 -0.6615  0.4225 -0.5371
 1048TIP3    H124559   4.955   1.553  16.026 -1.9911 -0.7345 -0.8056
 1048TIP3    H224560   5.005   1.419  16.076  2.1208  0.9350 -0.0808
 1049TIP3   OH224561   5.748   2.190  15.547  0.2378 -0.6009 -0.5604
 1049TIP3    H124562   5.801   2.135  15.606  3.3762  0.9855 -1.6540
 1049TIP3    H224563   5.723   2.265  15.600  0.0097 -0.8479 -0.3166
 1050TIP3   OH224564   3.802   0.511  15.770  0.7359 -0.0656  0.0360
 1050TIP3    H124565   3.860   0.507  15.846 -0.2709  1.6928  0.9435
 1050TIP3    H224566   3.726   0.457  15.795  0.4010  0.5193  0.3157
 1051TIP3   OH224567   2.814   5.568  16.166 -0.5374 -0.4065  0.4356
 1051TIP3    H124568   2.880   5.504  16.139  0.0517  0.4363 -0.2074
 1051TIP3    H224569   2.777   5.600  16.083  0.8018  1.7299  0.5888
 1052TIP3   OH224570   6.478   5.027  15.108  0.3476 -0.0763 -0.0589
 1052TIP3    H124571   6.434   5.066  15.032  1.2237  1.7541  0.3116
 1052TIP3    H224572   6.420   5.044  15.181  0.2314 -0.4204 -0.0738
 1053TIP3   OH224573   6.280   4.266  11.377  0.6247  0.8812  0.3097
 1053TIP3    H124574   6.341   4.215  11.323 -1.1085 -0.6362 -0.3477
 1053TIP3    H224575   6.277   4.219  11.460 -2.2671 -1.3427 -0.8525
 1054TIP3   OH224576   3.918   0.427   2.353 -0.2761 -0.0544 -0.3857
 1054TIP3    H124577   3.975   0.498   2.381 -1.0429  1.0726 -1.5940
 1054TIP3    H224578   3.978   0.358   2.323  0.4645  0.5910 -0.4229
 1055TIP3   OH224579   2.210   5.476  14.465  0.0292  0.1295 -0.4605
 1055TIP3    H124580   2.245   5.529  14.393  0.2626  0.6202  0.0114
 1055TIP3    H224581   2.187   5.393  14.423  0.1319  0.4171 -1.1108
 1056TIP3   OH224582   2.625   6.091  15.924  0.2054 -0.2746 -0.2943
 1056TIP3    H124583   2.621   6.050  15.837  0.3308 -0.1328 -0.3669
 1056TIP3    H224584   2.705   6.143  15.923 -0.2122  0.3841 -0.3881
 1057TIP3   OH224585   5.981   3.650  12.942 -0.0867  0.3390 -0.0713
 1057TIP3    H124586   5.900   3.609  12.910 -1.8190  3.0856  0.4769
 1057TIP3    H224587   5.985   3.626  13.035  1.2144 -1.9382 -0.6536
 1058TIP3   OH224588   0.808   1.765  11.042  0.0551  0.2815  0.0749
 1058TIP3    H124589   0.855   1.682  11.051 -0.4855 -0.3015 -1.8863
 1058TIP3    H224590   0.720   1.740  11.015 -0.0941  1.4787 -0.6396
 1059TIP3   OH224591   5.173   3.269   0.685  0.4242 -0.8648  0.4066
 1059TIP3    H124592   5.251   3.220   0.713  0.0110 -0.2500  2.9063
 1059TIP3    H224593   5.201   3.315   0.606  2.3389 -1.3357  0.7468
 1060TIP3   OH224594   0.932   5.514  14.177 -0.2501  0.2848  0.1564
 1060TIP3    H124595   0.872   5.546  14.244  0.0972 -0.3804  0.8090
 1060TIP3    H224596   1.017   5.550  14.201 -0.5550  2.2501 -1.4686
 1061TIP3   OH224597   0.106   3.981  16.219 -0.0279  0.1656 -0.3840
 1061TIP3    H124598   0.027   4.033  16.203 -0.5588 -0.4744  0.1134
 1061TIP3    H224599   0.129   4.000  16.310  1.6199  1.9635 -1.0967
 1062TIP3   OH224600   0.787   5.294  11.196  0.3577 -0.4311 -0.1208
 1062TIP3    H124601   0.841   5.303  11.274  0.4456 -0.7589 -0.1424
 1062TIP3    H224602   0.762   5.384  11.173  0.4739 -0.3214  0.1821
 1063TIP3   OH224603   6.175   5.629  14.844  0.4864  0.3956 -0.1067
 1063TIP3    H124604   6.148   5.702  14.900  0.2964  0.3572 -0.1448
 1063TIP3    H224605   6.215   5.566  14.903  0.0044  0.2172  0.0347
 1064TIP3   OH224606   6.838   3.661  10.893  0.0926  0.4573 -0.2364
 1064TIP3    H124607   6.858   3.571  10.868  2.0632  1.1418 -1.2912
 1064TIP3    H224608   6.892   3.676  10.971 -2.1990 -0.0385  1.5618
 1065TIP3   OH224609   0.240   3.960  12.547 -0.0097 -0.4818 -0.0273
 1065TIP3    H124610   0.223   3.876  12.504  2.7131 -1.1959  0.0943
 1065TIP3    H224611   0.181   3.961  12.623 -1.0591 -1.6260 -0.7887
 1066TIP3   OH224612   2.336   5.704   1.475  0.2975  0.4618  0.3702
 1066TIP3    H124613   2.421   5.686   1.515  0.8110  1.0005 -0.4528
 1066TIP3    H224614   2.354   5.774   1.412 -1.0610  1.7283  1.3325
 1067TIP3   OH224615   6.215   4.830   1.802  0.2419 -0.3447  0.4553
 1067TIP3    H124616   6.292   4.822   1.858 -0.5494 -0.2056  1.5922
 1067TIP3    H224617   6.187   4.921   1.812 -0.5599 -0.6136  0.7270
 1068TIP3   OH224618   2.335   5.406   1.751 -0.7596 -0.0781 -0.1469
 1068TIP3    H124619   2.323   5.368   1.664 -1.0725  1.5815 -0.8595
 1068TIP3    H224620   2.429   5.427   1.754 -0.9218  0.7197 -0.4638
 1069TIP3   OH224621   1.052   3.181   3.925 -0.2228 -0.0683 -0.1351
 1069TIP3    H124622   1.099   3.153   3.846  0.1448 -0.4308  0.2080
 1069TIP3    H224623   1.112   3.160   3.997  0.2080  1.9062  0.1170
 1070TIP3   OH224624   4.024   0.511  10.622 -0.3756 -0.0269 -0.7101
 1070TIP3    H124625   4.048   0.425  10.657 -1.4534 -0.5414 -1.1989
 1070TIP3    H224626   3.996   0.561  10.698 -0.5827 -0.3953 -0.5410
 1071TIP3   OH224627   5.501   1.895  13.721 -0.0849 -0.5011 -0.2297
 1071TIP3    H124628   5.551   1.947  13.659 -2.9123  0.5608 -1.8032
 1071TIP3    H224629   5.564   1.873  13.790  2.2173  1.5934 -1.4969
 1072TIP3   OH224630   6.216   2.142  16.182  0.3491  0.1469  0.5896
 1072TIP3    H124631   6.183   2.085  16.112  0.4709  1.1764 -0.3210
 1072TIP3    H224632   6.298   2.178  16.148  0.4313  0.6384  1.2842
 1073TIP3   OH224633   3.873   6.168   4.739  0.4571  0.4818  0.1296
 1073TIP3    H124634   3.826   6.173   4.656 -0.0517  2.4897  0.4863
 1073TIP3    H224635   3.945   6.107   4.722 -0.0262  0.3347 -1.5704
 1074TIP3   OH224636   6.268   0.052   5.730 -0.2802 -0.0387  0.3303
 1074TIP3    H124637   6.251  -0.019   5.792 -1.2983 -0.2190 -0.1296
 1074TIP3    H224638   6.361   0.044   5.709 -0.0745 -0.3724  1.3395
 1075TIP3   OH224639   1.074   2.667  16.206 -0.3182  0.2833  0.6679
 1075TIP3    H124640   1.093   2.615  16.285 -0.0170  0.4665  0.7169
 1075TIP3    H224641   1.125   2.625  16.137  0.9399  1.2815  0.9725
 1076TIP3   OH224642   5.615   5.593   3.476 -0.3234  0.4995 -0.5580
 1076TIP3    H124643   5.654   5.655   3.538 -1.1495  1.0145 -0.5273
 1076TIP3    H224644   5.542   5.642   3.437 -1.3286 -0.6133 -0.1520
 1077TIP3   OH224645   2.991   5.733  12.137  0.6112  1.0409 -0.2064
 1077TIP3    H124646   2.997   5.652  12.086 -0.4893  0.5674  0.3888
 1077TIP3    H224647   3.082   5.765  12.141  1.4629 -1.2552  1.2385
 1078TIP3   OH224648   4.331   6.201   3.291  0.3615 -0.8486  0.3233
 1078TIP3    H124649   4.357   6.113   3.263  4.1815 -0.2123  1.3808
 1078TIP3    H224650   4.339   6.255   3.212  3.7546 -0.4757  0.7850
 1079TIP3   OH224651   0.953   0.520  10.723 -0.1475  0.3203 -0.4122
 1079TIP3    H124652   0.908   0.484  10.799  0.9080  1.2558  0.7111
 1079TIP3    H224653   0.894   0.586  10.688  0.2942  1.5614  1.0656
 1080TIP3   OH224654   0.631   3.503   2.638 -0.0409 -0.3720  0.0293
 1080TIP3    H124655   0.699   3.437   2.645  1.1655  0.8391  0.0995
 1080TIP3    H224656   0.593   3.508   2.726 -0.8181 -1.6261 -0.2050
 1081TIP3   OH224657   3.146   1.823  11.134 -0.3274 -0.0641 -0.3021
 1081TIP3    H124658   3.063   1.777  11.123 -0.0686 -1.1119  1.5662
 1081TIP3    H224659   3.145   1.892  11.068 -4.1156  2.0368  1.5942
 1082TIP3   OH224660   4.020   1.537  12.625  0.4714  0.0565 -0.2947
 1082TIP3    H124661   4.100   1.509  12.669  0.4768 -1.3052 -1.1162
 1082TIP3    H224662   4.051   1.573  12.541  0.2078 -1.3323 -1.0257
 1083TIP3   OH224663   1.160   0.554  16.052 -0.4148 -0.7405  0.2103
 1083TIP3    H124664   1.074   0.548  16.010  0.8803  0.6109 -3.0235
 1083TIP3    H224665   1.201   0.470  16.033 -1.2729 -1.7854  2.6394
 1084TIP3   OH224666   4.636   4.990  11.669  0.4937  0.5409  0.2859
 1084TIP3    H124667   4.720   5.000  11.624  0.8210  0.1609  0.7996
 1084TIP3    H224668   4.574   4.970  11.599  0.9757  0.0502 -0.0082
 1085TIP3   OH224669   3.486   1.260  14.721  0.6043 -0.3420  0.4338
 1085TIP3    H124670   3.517   1.344  14.688 -0.7636 -0.3073 -0.8685
 1085TIP3    H224671   3.420   1.282  14.787 -1.1087 -0.3101 -1.2057
 1086TIP3   OH224672   4.942   3.344   4.390  0.5431 -0.7863 -0.0363
 1086TIP3    H124673   4.891   3.266   4.410 -0.0204 -0.5420 -0.4751
 1086TIP3    H224674   4.917   3.367   4.300  0.3227  0.1771  0.2524
 1087TIP3   OH224675   4.905   5.615  15.392  0.3228 -0.0842 -0.0210
 1087TIP3    H124676   4.965   5.649  15.326  0.0703  0.2262 -0.0907
 1087TIP3    H224677   4.862   5.541  15.350 -1.0614  1.1133 -0.8149
 1088TIP3   OH224678   1.611   1.598   3.231 -0.2887 -0.2662  0.0400
 1088TIP3    H124679   1.559   1.659   3.179  0.3182 -1.5140 -2.1213
 1088TIP3    H224680   1.689   1.647   3.255 -1.5764  1.0473  1.7999
 1089TIP3   OH224681   3.183   1.734   2.673 -0.3332  0.4411  0.1552
 1089TIP3    H124682   3.191   1.744   2.768  1.0081 -0.9549  0.2197
 1089TIP3    H224683   3.089   1.739   2.656 -0.6615 -0.2202  1.6642
 1090TIP3   OH224684   0.008   2.114   1.957  0.3294 -0.0164 -0.0452
 1090TIP3    H124685   0.076   2.161   2.005  0.4148  1.4979 -1.5439
 1090TIP3    H224686   0.004   2.158   1.873 -1.3192 -1.1989 -0.6326
 1091TIP3   OH224687   1.215   0.811   0.057 -0.5115 -0.2248  0.0209
 1091TIP3    H124688   1.278   0.855   0.115  1.9136  0.4908 -2.8828
 1091TIP3    H224689   1.240   0.719   0.059  0.4123 -0.0019 -0.8233
 1092TIP3   OH224690   4.454   1.106   1.102 -0.4242 -0.7402 -0.1178
 1092TIP3    H124691   4.386   1.040   1.109 -1.7675  0.5340 -0.6187
 1092TIP3    H224692   4.536   1.058   1.115 -1.3740 -2.3887  0.0300
 1093TIP3   OH224693   6.487   0.915  12.125 -0.3533  0.5448  0.0157
 1093TIP3    H124694   6.462   0.954  12.041 -0.7589 -1.1761 -0.7058
 1093TIP3    H224695   6.515   0.990  12.178 -2.0534  1.9525 -0.9167
 1094TIP3   OH224696   6.676   6.650  11.972  0.0855 -0.0772  0.6908
 1094TIP3    H124697   6.652   6.615  11.886 -2.2855  2.2236  0.2734
 1094TIP3    H224698   6.772   6.645  11.974  0.0670 -2.6525 -0.9312
 1095TIP3   OH224699   6.199   4.639  14.041 -0.1025  0.2432 -0.0603
 1095TIP3    H124700   6.232   4.589  14.116 -0.8099  0.8634  0.6780
 1095TIP3    H224701   6.114   4.598  14.021  0.3138 -0.2603 -0.8785
 1096TIP3   OH224702   4.616   6.733   4.032  0.4335  0.0999  0.2797
 1096TIP3    H124703   4.643   6.661   3.975  0.8365 -1.0139  1.8012
 1096TIP3    H224704   4.526   6.711   4.058  0.2900  0.5383  0.1677
 1097TIP3   OH224705   6.046   3.147  13.397 -0.7121 -0.3000  0.2071
 1097TIP3    H124706   5.982   3.100  13.450 -1.3549 -0.7778 -0.9718
 1097TIP3    H224707   6.044   3.237  13.431 -0.0456 -0.9088  1.9473
 1098TIP3   OH224708   4.430   0.261  13.826 -0.6070 -0.1942  0.1627
 1098TIP3    H124709   4.357   0.200  13.811  0.2779 -0.8916 -1.5677
 1098TIP3    H224710   4.475   0.225  13.903 -0.3194 -1.5336 -0.5972
 1099TIP3   OH224711   1.405   2.102  12.835 -0.2752 -0.3030  0.1066
 1099TIP3    H124712   1.484   2.094  12.781 -0.3881  2.3017 -0.5945
 1099TIP3    H224713   1.334   2.112  12.771 -0.6554  0.9682  0.6822
 1100TIP3   OH224714   1.899   0.890  16.389  0.0465  0.1417 -0.4960
 1100TIP3    H124715   1.854   0.937  16.460  0.1997 -1.9016  1.0303
 1100TIP3    H224716   1.831   0.875  16.323 -0.2319  1.5829 -0.5725
 1101TIP3   OH224717   4.873   1.392   3.091 -0.0837 -0.9273  0.3979
 1101TIP3    H124718   4.923   1.391   3.172  1.1886 -0.8246 -0.3425
 1101TIP3    H224719   4.831   1.478   3.090 -1.0996 -1.3866  1.4896
 1102TIP3   OH224720   5.764   4.363  13.329 -0.3382  0.0563  0.5175
 1102TIP3    H124721   5.759   4.451  13.368 -4.0473  0.1027  0.2825
 1102TIP3    H224722   5.680   4.323  13.351  1.3098 -3.6135  0.8354
 1103TIP3   OH224723   3.458   2.601  16.479  0.0528  0.1098  0.2469
 1103TIP3    H124724   3.385   2.630  16.424  0.4916  0.9292  0.0722
 1103TIP3    H224725   3.527   2.578  16.416  0.1694 -0.0290  0.4257
 1104TIP3   OH224726   5.164   3.731  11.467  0.0046  0.4002 -0.0020
 1104TIP3    H124727   5.252   3.739  11.504 -0.2769  3.0625  0.3367
 1104TIP3    H224728   5.133   3.822  11.462 -2.7567 -0.4686 -0.0379
 1105TIP3   OH224729   4.168   0.523  13.472  0.3193 -0.1744 -0.1035
 1105TIP3    H124730   4.160   0.440  13.425  0.7756  0.0850 -0.6528
 1105TIP3    H224731   4.151   0.501  13.564 -1.6763 -0.5012 -0.5024
 1106TIP3   OH224732   2.572   4.339  15.644 -0.5638 -0.4562 -0.0130
 1106TIP3    H124733   2.623   4.391  15.581  1.3230  0.0933  1.8646
 1106TIP3    H224734   2.481   4.361  15.625  0.1012  2.3771 -0.3072
 1107TIP3   OH224735   4.181   4.760  14.381 -0.2512  0.2949  0.2334
 1107TIP3    H124736   4.203   4.728  14.468  0.1646 -1.1145 -0.3613
 1107TIP3    H224737   4.090   4.731  14.367 -0.1919  0.1950  0.0546
 1108TIP3   OH224738   3.191   1.014   3.709 -0.4086 -0.1783 -0.2599
 1108TIP3    H124739   3.170   1.028   3.801  0.5355 -2.0607  0.2979
 1108TIP3    H224740   3.262   0.950   3.710  1.8127  2.0614 -2.2117
 1109TIP3   OH224741   0.015   0.627   3.734  0.0949  0.2055 -0.3170
 1109TIP3    H124742   0.011   0.653   3.826 -2.6229  1.0571 -0.5763
 1109TIP3    H224743   0.046   0.705   3.688 -0.8354  0.5874 -0.3245
 1110TIP3   OH224744   6.510   6.797  14.890  0.0352  0.2808 -0.4441
 1110TIP3    H124745   6.501   6.718  14.838  1.5724  0.3244 -0.8486
 1110TIP3    H224746   6.536   6.864  14.827 -0.8321  1.0154 -0.0422
 1111TIP3   OH224747   6.691   5.739   0.186  1.0222  0.0527  0.2804
 1111TIP3    H124748   6.739   5.657   0.180  0.1513 -0.4996  0.7001
 1111TIP3    H224749   6.678   5.767   0.096  1.1466 -0.3796  0.1296
 1112TIP3   OH224750   4.683   0.422  16.323  0.0493  0.3507  0.0725
 1112TIP3    H124751   4.733   0.487  16.371  2.5140 -0.1321 -1.6648
 1112TIP3    H224752   4.729   0.340  16.338  0.0792 -0.0460 -1.9357
 1113TIP3   OH224753   4.350   3.280   5.873  0.2909  0.6032 -0.3232
 1113TIP3    H124754   4.368   3.250   5.784 -2.5081  1.1969 -1.1749
 1113TIP3    H224755   4.397   3.363   5.880  4.4585 -1.5340  0.5441
 1114TIP3   OH224756   1.076   0.761  10.948  0.2863 -0.1683  0.4170
 1114TIP3    H124757   1.143   0.746  10.881  0.9563 -0.8765  1.2169
 1114TIP3    H224758   1.007   0.809  10.903  1.9264  1.8134 -0.1216
 1115TIP3   OH224759   4.670   0.301  15.479  0.1518  0.0663  0.3181
 1115TIP3    H124760   4.691   0.230  15.419  2.4971  0.5104  0.4934
 1115TIP3    H224761   4.632   0.369  15.424  0.4990 -0.2612 -0.3388
 1116TIP3   OH224762   6.111   3.376  13.561  0.3177 -0.3203 -0.2400
 1116TIP3    H124763   6.186   3.348  13.613  0.7044  1.8808  0.4887
 1116TIP3    H224764   6.035   3.357  13.615  0.7133  1.9155  1.2172
 1117TIP3   OH224765   4.505   6.094  16.594 -0.2660 -0.4525  0.2173
 1117TIP3    H124766   4.416   6.127  16.605  0.5532  3.2515 -2.4618
 1117TIP3    H224767   4.494   6.012  16.546 -2.1886 -1.0499  1.5141
 1118TIP3   OH224768   1.546   0.158  12.179 -0.7739 -0.4147 -0.1812
 1118TIP3    H124769   1.480   0.116  12.123 -1.5275  1.0184 -0.4203
 1118TIP3    H224770   1.535   0.116  12.264 -1.5521 -0.6487 -0.3843
 1119TIP3   OH224771   2.039   2.377  12.828  0.2054  1.4703 -0.6363
 1119TIP3    H124772   2.071   2.432  12.900  2.1785  3.6211 -2.9666
 1119TIP3    H224773   1.945   2.395  12.824  0.4240  2.9436  0.1205
 1120TIP3   OH224774   1.797   3.684   4.803  0.0234  0.0532  0.2295
 1120TIP3    H124775   1.880   3.692   4.757 -0.6492 -2.4688 -1.6857
 1120TIP3    H224776   1.820   3.679   4.896  2.1948 -2.0015 -0.3211
 1121TIP3   OH224777   0.599   1.684  10.071  0.1530 -0.4425 -0.1141
 1121TIP3    H124778   0.556   1.736  10.004 -0.6721  0.5446  1.1267
 1121TIP3    H224779   0.685   1.726  10.083 -0.4128  0.5280  0.7082
 1122TIP3   OH224780   4.988   6.810  10.742 -0.2991 -0.3610 -0.2453
 1122TIP3    H124781   5.031   6.852  10.667  0.1925 -1.3637 -0.5373
 1122TIP3    H224782   4.951   6.883  10.792  1.7133  0.5768  0.0133
 1123TIP3   OH224783   2.837   2.693  15.370 -0.4582 -0.0518  0.1638
 1123TIP3    H124784   2.826   2.763  15.435 -0.0476  2.0159 -1.8439
 1123TIP3    H224785   2.930   2.696  15.346 -0.3769 -1.4952  0.2080
 1124TIP3   OH224786   5.423   3.309   3.221 -0.9610  0.0272 -0.1799
 1124TIP3    H124787   5.435   3.225   3.265  0.9615  0.5927  0.5027
 1124TIP3    H224788   5.334   3.335   3.242 -1.2372 -1.3469  0.4658
 1125TIP3   OH224789   1.922   5.791  15.039  0.0060  0.0023  0.0666
 1125TIP3    H124790   1.930   5.813  14.946 -1.6177  1.1452  0.1591
 1125TIP3    H224791   1.845   5.734  15.043 -0.6394  0.9013  0.8251
 1126TIP3   OH224792   5.652   1.544   5.660  0.5551 -0.2478 -0.0482
 1126TIP3    H124793   5.576   1.592   5.627  0.6467 -0.7684 -1.0202
 1126TIP3    H224794   5.633   1.531   5.753  1.0480  2.7021  0.5717
 1127TIP3   OH224795   5.480   5.777  10.634  0.3403 -0.5737 -0.1823
 1127TIP3    H124796   5.478   5.784  10.539  1.4544 -0.3237 -0.2090
 1127TIP3    H224797   5.573   5.785  10.656 -0.0182  0.5535  1.0100
 1128TIP3   OH224798   4.396   1.036  13.919  0.1931  0.2550  0.6409
 1128TIP3    H124799   4.393   0.974  13.846 -2.2360  0.0746  0.8343
 1128TIP3    H224800   4.454   1.106  13.888 -1.6830  0.7998 -2.0072
 1129TIP3   OH224801   5.511   5.714  14.815 -0.5930  0.2705  0.0420
 1129TIP3    H124802   5.455   5.674  14.748 -2.6576 -2.8306  3.1942
 1129TIP3    H224803   5.582   5.652  14.828 -0.2321  0.7971  0.6946
 1130TIP3   OH224804   3.382   5.295   4.352 -0.3643 -0.5203  0.3765
 1130TIP3    H124805   3.440   5.220   4.366 -0.5445 -1.5207 -3.1941
 1130TIP3    H224806   3.297   5.256   4.330 -0.5942  0.6894 -1.0359
 1131TIP3   OH224807   4.144   4.341   5.179  0.5431  0.0269 -0.0885
 1131TIP3    H124808   4.206   4.302   5.242 -0.0573 -1.2853 -0.2788
 1131TIP3    H224809   4.199   4.369   5.106  1.0345 -0.1898  0.1939
 1132TIP3   OH224810   2.170   5.712  14.590 -0.3983  0.0739 -0.2641
 1132TIP3    H124811   2.076   5.713  14.569 -0.5005  1.0543  0.1728
 1132TIP3    H224812   2.199   5.625  14.564 -1.2560  0.0421 -1.1939
 1133TIP3   OH224813   0.026   1.014   4.446 -0.5834 -0.0234 -0.3811
 1133TIP3    H124814  -0.052   1.031   4.392 -1.4630  0.8687  1.0918
 1133TIP3    H224815   0.005   0.933   4.492 -0.8964  0.4966  0.4154
 1134TIP3   OH224816   5.701   0.035  17.021  0.3357 -0.1903 -0.4154
 1134TIP3    H124817   5.781  -0.014  17.038  0.2315 -0.4660 -0.7165
 1134TIP3    H224818   5.723   0.126  17.042  0.7938 -0.2308 -0.7288
 1135TIP3   OH224819   4.440   1.663   1.468  0.1553  0.0472 -0.3531
 1135TIP3    H124820   4.413   1.716   1.393  1.5232  0.4933 -0.5465
 1135TIP3    H224821   4.423   1.573   1.440 -0.3008  0.2593 -0.7895
 1136TIP3   OH224822   1.489   5.888   5.627  0.1107 -0.6546 -0.7195
 1136TIP3    H124823   1.454   5.861   5.712 -1.5251 -1.6073 -1.6444
 1136TIP3    H224824   1.511   5.981   5.638 -0.2012 -0.7299  0.7013
 1137TIP3   OH224825   6.313   0.046  15.620 -0.2530 -0.1321  0.6513
 1137TIP3    H124826   6.344  -0.031  15.572  1.5995  0.9157  0.0586
 1137TIP3    H224827   6.236   0.015  15.668  0.2487 -2.2666  0.1894
 1138TIP3   OH224828   1.898   4.724  13.664 -0.8904 -0.4134 -0.1629
 1138TIP3    H124829   1.954   4.702  13.739  1.0757  1.3945 -0.9859
 1138TIP3    H224830   1.813   4.742  13.703 -0.2834 -0.8969  1.4728
 1139TIP3   OH224831   3.526   2.021   1.845 -0.5175 -0.3015 -0.6629
 1139TIP3    H124832   3.434   2.021   1.872 -0.1149 -0.3520  0.7684
 1139TIP3    H224833   3.546   1.929   1.829 -0.8351 -0.2421 -1.4734
 1140TIP3   OH224834   5.667   6.683   2.834 -0.0232  0.4855  0.0186
 1140TIP3    H124835   5.638   6.773   2.839  0.3010  0.6687 -1.0663
 1140TIP3    H224836   5.602   6.639   2.779 -0.6920 -0.1788  1.2989
 1141TIP3   OH224837   5.722   6.231   2.010  0.8346  0.0670  0.2970
 1141TIP3    H124838   5.697   6.245   1.919 -0.2654  0.8403  0.6853
 1141TIP3    H224839   5.797   6.288   2.024  0.5494  0.4969  0.0733
 1142TIP3   OH224840   1.717   1.136   3.028 -0.2032  0.4816 -0.4550
 1142TIP3    H124841   1.737   1.153   3.120  4.2755 -3.7316 -0.1920
 1142TIP3    H224842   1.776   1.193   2.980 -0.9410  1.0989 -0.6378
 1143TIP3   OH224843   0.417   3.195   3.408  0.4862  0.4719 -0.0863
 1143TIP3    H124844   0.359   3.192   3.332  1.9321 -0.0547 -1.2294
 1143TIP3    H224845   0.500   3.160   3.376  0.9040 -0.5810  1.9725
 1144TIP3   OH224846   6.490   0.621   3.164 -0.0862 -0.0442 -0.0996
 1144TIP3    H124847   6.468   0.654   3.077 -1.3502 -0.2603  0.1221
 1144TIP3    H224848   6.546   0.545   3.147  0.6666  0.6243 -0.6749
 1145TIP3   OH224849   3.753   0.591  10.758  0.3268  0.1034 -0.2708
 1145TIP3    H124850   3.674   0.546  10.729  1.3335  0.6124 -4.3925
 1145TIP3    H224851   3.725   0.681  10.774 -0.0691  0.1295 -1.0701
 1146TIP3   OH224852   3.516   6.506  10.294  0.2862  0.3339  0.0897
 1146TIP3    H124853   3.582   6.573  10.277  1.2975 -0.3191  1.2820
 1146TIP3    H224854   3.463   6.541  10.366 -0.2533  0.5489 -0.3969
 1147TIP3   OH224855   3.710   1.165   1.457  0.0735 -0.1889  0.1672
 1147TIP3    H124856   3.677   1.145   1.545  1.4721 -0.8981  0.5452
 1147TIP3    H224857   3.720   1.260   1.457 -0.8927 -0.0757  0.4211
 1148TIP3   OH224858   4.000   5.829   3.026 -0.2727 -0.1129  0.5778
 1148TIP3    H124859   3.936   5.900   3.028  1.0143  1.4261 -3.6082
 1148TIP3    H224860   3.963   5.765   2.966  1.6187  0.4147 -1.2357
 1149TIP3   OH224861   3.371   5.693   0.863 -0.1295  0.4380  0.2068
 1149TIP3    H124862   3.369   5.606   0.824 -0.3902  0.0492  1.0559
 1149TIP3    H224863   3.305   5.690   0.932 -1.1367  1.7487 -0.6436
 1150TIP3   OH224864   3.046   3.233   5.650  0.3453  0.1277  0.2163
 1150TIP3    H124865   3.019   3.173   5.580 -0.4695 -0.3380  0.9096
 1150TIP3    H224866   3.138   3.211   5.667  0.1513 -0.7057  0.2274
 1151TIP3   OH224867   0.570   5.079   4.079 -0.0940  0.7297 -0.1303
 1151TIP3    H124868   0.587   5.173   4.073  1.9840  0.5150  1.1530
 1151TIP3    H224869   0.560   5.063   4.173 -2.7199 -0.0383 -0.4782
 1152TIP3   OH224870   3.061   1.092  11.457  0.4623  0.0073 -0.1651
 1152TIP3    H124871   3.103   1.120  11.538 -0.0414 -0.7838  0.3882
 1152TIP3    H224872   3.096   1.005  11.440  2.1597  0.9810 -1.9693
 1153TIP3   OH224873   6.754   4.311  11.402  0.3234 -0.3207  0.9143
 1153TIP3    H124874   6.772   4.218  11.420 -0.2951 -0.4294  0.9791
 1153TIP3    H224875   6.659   4.317  11.397  0.3789  0.1916  0.2464
 1154TIP3   OH224876   0.933   4.347   2.334  0.7428 -0.1531 -0.0279
 1154TIP3    H124877   0.917   4.393   2.416  1.8809 -1.1312  0.7765
 1154TIP3    H224878   0.999   4.281   2.355  0.5368 -0.9141 -1.5658
 1155TIP3   OH224879   2.967   4.011   2.982  0.0156 -0.4929  0.2022
 1155TIP3    H124880   2.929   3.966   2.907 -1.8902 -1.7524  1.8107
 1155TIP3    H224881   2.897   4.065   3.017  0.9456  0.2953  0.9165
 1156TIP3   OH224882   1.215   3.203  12.991  0.3059  0.1511 -0.0583
 1156TIP3    H124883   1.292   3.187  12.936 -1.1284 -0.5456 -1.9875
 1156TIP3    H224884   1.213   3.298  13.002  1.0128  0.2473 -0.6342
 1157TIP3   OH224885   1.579   2.171  12.594  0.1158 -0.1018  0.3144
 1157TIP3    H124886   1.558   2.120  12.517  1.8399 -0.4375  0.0328
 1157TIP3    H224887   1.650   2.229  12.566  1.3381 -0.7965  1.8200
 1158TIP3   OH224888   2.235   2.850  13.474 -0.2704 -0.1154 -0.0930
 1158TIP3    H124889   2.167   2.804  13.523 -0.2189  1.6431  1.7366
 1158TIP3    H224890   2.302   2.783  13.459 -1.6792 -1.4967 -0.6456
 1159TIP3   OH224891   4.868   2.805   4.750 -0.4671 -0.0865  0.4269
 1159TIP3    H124892   4.844   2.894   4.724 -2.0709 -1.2326 -2.4518
 1159TIP3    H224893   4.789   2.753   4.734  0.7311 -2.2152  1.0034
 1160TIP3   OH224894   6.564   1.868   0.580 -0.4168  0.7919  0.1878
 1160TIP3    H124895   6.481   1.855   0.626  0.7670  0.6080  2.3747
 1160TIP3    H224896   6.549   1.826   0.495 -2.4723  0.5275  0.6072
 1161TIP3   OH224897   6.485   6.535   0.602  0.4855  0.8416  0.0897
 1161TIP3    H124898   6.501   6.575   0.687 -0.5435 -0.7687  1.0841
 1161TIP3    H224899   6.510   6.443   0.614 -0.3289  0.4441 -1.1428
 1162TIP3   OH224900   1.159   4.334   1.645 -0.2482 -0.5526  0.2622
 1162TIP3    H124901   1.093   4.391   1.604 -0.4394 -0.4883  0.6568
 1162TIP3    H224902   1.130   4.246   1.624 -0.2579 -0.5176  0.1244
 1163TIP3   OH224903   0.798   4.302  13.711  0.1458  0.3893 -0.4804
 1163TIP3    H124904   0.721   4.246  13.722  0.7032 -0.0653  1.7024
 1163TIP3    H224905   0.855   4.254  13.650  0.0408 -0.8084  0.3394
 1164TIP3   OH224906   5.304   3.266  13.318  0.2015  0.0660 -0.0693
 1164TIP3    H124907   5.320   3.338  13.379 -1.5885  1.8684 -1.5817
 1164TIP3    H224908   5.221   3.227  13.346  1.3837 -1.8519  1.0331
 1165TIP3   OH224909   2.976   2.810   1.136 -0.7617  0.0738 -0.1105
 1165TIP3    H124910   2.921   2.806   1.214 -1.5857 -1.0579 -0.7108
 1165TIP3    H224911   3.023   2.727   1.136  0.8952  0.9821  0.3329
 1166TIP3   OH224912   5.435   6.063  12.892  0.4375 -0.0523  0.2823
 1166TIP3    H124913   5.506   6.018  12.847  1.4755 -0.3053  2.0656
 1166TIP3    H224914   5.369   6.077  12.825  1.6751 -0.8644 -1.1686
 1167TIP3   OH224915   5.726   5.396   1.759 -0.1682  0.2081 -0.6574
 1167TIP3    H124916   5.706   5.303   1.774 -1.0084  0.2137 -1.6511
 1167TIP3    H224917   5.810   5.396   1.714  0.0014 -0.0501 -0.3467
 1168TIP3   OH224918   6.348   6.282   5.501  0.0301 -0.2112  0.7992
 1168TIP3    H124919   6.400   6.354   5.538 -0.3690  0.6479 -0.2862
 1168TIP3    H224920   6.296   6.322   5.432  2.2230 -2.0453 -2.2069
 1169TIP3   OH224921   2.283   3.906   0.173  0.0425 -0.1485 -0.9181
 1169TIP3    H124922   2.193   3.905   0.205  0.5240 -0.6446  0.5171
 1169TIP3    H224923   2.335   3.879   0.249  1.3475 -0.4295 -1.8832
 1170TIP3   OH224924   4.764   3.610   4.774  0.0432  0.4716  0.0171
 1170TIP3    H124925   4.847   3.644   4.808  0.2984  0.2403 -0.3677
 1170TIP3    H224926   4.701   3.625   4.845  0.7400 -0.7984  0.9385
 1171TIP3   OH224927   0.967   4.732  16.166 -0.1334 -0.3659  0.4073
 1171TIP3    H124928   1.001   4.822  16.172 -0.5581 -0.0867 -1.0398
 1171TIP3    H224929   0.903   4.726  16.237  0.0120  0.4192  0.6190
 1172TIP3   OH224930   6.340   5.820  10.338  0.5256 -0.2998 -0.3641
 1172TIP3    H124931   6.419   5.836  10.285 -0.0411 -0.7484 -1.3813
 1172TIP3    H224932   6.271   5.804  10.273 -0.7210  1.4208  0.4569
 1173TIP3   OH224933   2.850   1.588   2.747 -0.0625  0.0509 -0.1019
 1173TIP3    H124934   2.796   1.562   2.822  1.7200 -1.2615  0.8243
 1173TIP3    H224935   2.894   1.668   2.776  0.4159 -0.3041  0.1734
 1174TIP3   OH224936   0.015   3.602   1.173 -0.5062 -0.4035 -0.0458
 1174TIP3    H124937  -0.068   3.648   1.185 -0.9323 -0.3522 -2.5731
 1174TIP3    H224938   0.006   3.558   1.088  1.0141 -2.7514  0.9021
 1175TIP3   OH224939   6.047   4.131  13.736  0.1321  0.1139  0.4209
 1175TIP3    H124940   6.099   4.186  13.793 -0.5094  1.1884 -0.0023
 1175TIP3    H224941   5.956   4.153  13.757 -0.1326 -0.4974 -0.0252
 1176TIP3   OH224942   4.477   3.619  11.680 -0.7096  0.6339 -0.6027
 1176TIP3    H124943   4.516   3.661  11.603 -0.5229 -0.4031 -1.0826
 1176TIP3    H224944   4.401   3.572  11.646  0.7374 -1.8399 -0.6065
 1177TIP3   OH224945   5.562   0.427   2.480 -0.3800  0.2218  0.5811
 1177TIP3    H124946   5.611   0.346   2.494 -0.0353  0.0891 -1.1642
 1177TIP3    H224947   5.502   0.433   2.555  0.7739 -0.7470  1.6113
 1178TIP3   OH224948   4.238   6.057  16.393  0.2862 -0.9191  0.7224
 1178TIP3    H124949   4.181   5.985  16.367 -1.8716  0.9178 -0.0243
 1178TIP3    H224950   4.270   6.093  16.310  1.3764 -1.0195  1.0871
 1179TIP3   OH224951   3.564   5.952  10.142 -0.1853  0.2803  0.5167
 1179TIP3    H124952   3.480   5.923  10.107 -1.5133  1.8836  2.1779
 1179TIP3    H224953   3.557   6.047  10.145  1.1980  0.3708  1.8877
 1180TIP3   OH224954   1.733   6.068   4.017  0.1650  0.0743 -0.4744
 1180TIP3    H124955   1.732   5.992   4.075  0.2436  1.1029  0.9103
 1180TIP3    H224956   1.784   6.134   4.063  0.0554  1.0058 -1.6254
 1181TIP3   OH224957   5.058   1.601   2.523  0.1388 -0.5505  0.2825
 1181TIP3    H124958   5.039   1.629   2.434 -0.1853  1.6179  0.9795
 1181TIP3    H224959   4.993   1.647   2.577  2.0392  0.3878  1.9009
 1182TIP3   OH224960   5.225   1.566  15.245 -0.5903 -0.2780 -0.7881
 1182TIP3    H124961   5.238   1.631  15.177  0.4275  0.8839  0.4645
 1182TIP3    H224962   5.308   1.520  15.252 -0.8587 -0.7623 -0.7015
 1183TIP3   OH224963   0.617   5.636   4.792 -0.0925 -0.2170 -0.6971
 1183TIP3    H124964   0.629   5.541   4.793 -2.0065 -0.4847 -0.7924
 1183TIP3    H224965   0.570   5.655   4.874  2.0755  0.9605  0.3849
 1184TIP3   OH224966   3.151   0.535   1.263 -0.2688 -0.0559  0.1750
 1184TIP3    H124967   3.231   0.510   1.217  0.2823 -1.4995  1.8263
 1184TIP3    H224968   3.113   0.605   1.209  0.6441 -1.2265 -2.1200
 1185TIP3   OH224969   2.619   1.302   1.986  0.1386  0.3967 -0.2356
 1185TIP3    H124970   2.552   1.344   2.039  1.5728  1.0636  1.1496
 1185TIP3    H224971   2.630   1.216   2.026 -1.5251 -0.6849 -1.9558
 1186TIP3   OH224972   3.558   5.999   3.671 -0.8198 -0.9276 -0.0781
 1186TIP3    H124973   3.619   5.951   3.614 -2.6467 -2.8159 -0.5503
 1186TIP3    H224974   3.495   6.038   3.611  0.1631  1.5440  0.3672
 1187TIP3   OH224975   0.917   4.939  15.795 -0.6285 -0.5246 -0.2065
 1187TIP3    H124976   0.940   4.953  15.887 -0.1763 -0.6065 -0.3070
 1187TIP3    H224977   0.903   4.844  15.788  0.9584 -0.7612 -0.5810
 1188TIP3   OH224978   2.831   1.867   5.896 -0.0608  0.2834 -0.5941
 1188TIP3    H124979   2.903   1.892   5.953 -0.8619  0.4804  0.3544
 1188TIP3    H224980   2.839   1.772   5.888  0.4097  0.3258 -0.6528
 1189TIP3   OH224981   1.788   6.824  13.229 -0.2917  0.0485  0.4897
 1189TIP3    H124982   1.838   6.746  13.205  2.1504  1.7703 -0.5404
 1189TIP3    H224983   1.821   6.848  13.316 -1.0767 -0.0686  0.8299
 1190TIP3   OH224984   0.310   5.145  11.632  0.2106 -0.6060 -0.0671
 1190TIP3    H124985   0.367   5.069  11.620 -0.6129 -1.5901  1.8506
 1190TIP3    H224986   0.353   5.196  11.702 -0.7167 -0.8552  0.7054
 1191TIP3   OH224987   2.785   4.803   1.418 -0.2440 -0.0292  0.0263
 1191TIP3    H124988   2.856   4.845   1.370 -1.4130  0.7484 -1.0698
 1191TIP3    H224989   2.776   4.717   1.377  0.5492 -0.4543  0.6915
 1192TIP3   OH224990   5.217   3.072  12.467  0.0758  0.0773 -0.0961
 1192TIP3    H124991   5.194   3.096  12.557  1.2770  0.4895  0.1204
 1192TIP3    H224992   5.227   3.156  12.422 -2.7322 -0.1017 -1.2606
 1193TIP3   OH224993   2.114   5.794   0.548  0.4706 -0.1859 -0.0650
 1193TIP3    H124994   2.196   5.839   0.528  0.3816 -0.3977 -0.9625
 1193TIP3    H224995   2.056   5.863   0.580  0.7765  0.0963 -0.1092
 1194TIP3   OH224996   1.825   3.609   4.446  0.0805  0.1418  0.4330
 1194TIP3    H124997   1.832   3.544   4.516  0.3737  1.9413  2.1473
 1194TIP3    H224998   1.762   3.673   4.479  0.9605  1.5430 -0.5049
 1195TIP3   OH224999   0.043   3.269   2.740  0.1283 -0.3541  0.0962
 1195TIP3    H125000   0.029   3.364   2.736 -1.3427 -0.5684 -2.1383
 1195TIP3    H225001   0.098   3.250   2.664  0.2479 -1.3247  0.4171
 1196TIP3   OH225002   0.124   5.489   2.669  0.0569 -0.4604 -0.0824
 1196TIP3    H125003   0.170   5.542   2.604 -1.9814  1.1067 -0.3648
 1196TIP3    H225004   0.079   5.422   2.618 -1.6024  0.8140 -0.3914
 1197TIP3   OH225005   5.400   5.169  14.356 -0.7266  0.0470 -0.2511
 1197TIP3    H125006   5.427   5.149  14.266  0.6567  1.0949 -0.1020
 1197TIP3    H225007   5.454   5.113  14.411  0.2546  1.2103  0.0056
 1198TIP3   OH225008   2.427   0.727  11.500 -0.2788 -0.4388  0.1966
 1198TIP3    H125009   2.358   0.683  11.550  0.7563 -0.5333  1.5793
 1198TIP3    H225010   2.417   0.692  11.411 -3.4026  1.1981 -0.2421
 1199TIP3   OH225011   0.091   4.064   2.452 -0.1598 -0.2405 -0.6010
 1199TIP3    H125012   0.138   4.146   2.467 -0.8892  0.2308 -0.8371
 1199TIP3    H225013   0.116   4.008   2.526  0.3227  0.1985 -0.4258
 1200TIP3   OH225014   5.572   1.752  16.551 -0.0177 -0.1599  0.0765
 1200TIP3    H125015   5.636   1.820  16.570 -0.5750  0.6526 -0.8506
 1200TIP3    H225016   5.494   1.800  16.522 -1.8135 -0.9821  3.1475
 1201TIP3   OH225017   3.593   5.804  16.987  0.3659  0.0707 -0.2716
 1201TIP3    H125018   3.674   5.852  17.006 -0.0182  0.0257  1.6192
 1201TIP3    H225019   3.526   5.849  17.038 -0.1618 -1.9350  0.8932
 1202TIP3   OH225020   4.947   2.951  15.071  0.6806 -0.8716  0.6515
 1202TIP3    H125021   4.905   3.034  15.048  1.8601  0.3131  2.4282
 1202TIP3    H225022   4.876   2.896  15.105  0.0375 -0.2052  0.4121
 1203TIP3   OH225023   1.817   6.673  15.277  0.2773 -0.2026  0.2407
 1203TIP3    H125024   1.910   6.693  15.283  0.1590  0.1418  1.2569
 1203TIP3    H225025   1.801   6.659  15.184  0.7431  2.8429 -0.4169
 1204TIP3   OH225026   3.880   4.822   2.860 -0.3994  0.6146  0.3132
 1204TIP3    H125027   3.906   4.817   2.952  0.8417 -3.8211 -0.0580
 1204TIP3    H225028   3.824   4.746   2.847  1.8772 -0.7011 -3.1568
 1205TIP3   OH225029   5.057   3.173   1.063  0.1797 -0.1479  0.5623
 1205TIP3    H125030   4.982   3.124   1.097 -1.2863  0.9977 -0.8643
 1205TIP3    H225031   5.019   3.236   1.002  2.3571  0.2518 -0.4851
 1206TIP3   OH225032   4.863   3.073  16.434  0.4088  0.0458  0.1718
 1206TIP3    H125033   4.848   2.981  16.413  4.1963 -0.8822  0.6470
 1206TIP3    H225034   4.864   3.118  16.350  1.5602 -0.9830 -0.3837
 1207TIP3   OH225035   0.811   1.810  14.611  0.1935  0.2126  0.2596
 1207TIP3    H125036   0.864   1.801  14.690  1.6091 -0.2147 -0.7074
 1207TIP3    H225037   0.860   1.871  14.555 -1.6819  1.9767  0.4067
 1208TIP3   OH225038   0.387   5.310  15.100  0.0499  0.2437  0.4192
 1208TIP3    H125039   0.389   5.398  15.137 -0.9660  0.3695  0.2155
 1208TIP3    H225040   0.464   5.267  15.136  0.8416  1.3704  0.1228
 1209TIP3   OH225041   6.734   0.256  12.534  0.0140  0.8579  0.4633
 1209TIP3    H125042   6.767   0.188  12.593  2.2838  0.6836 -0.8651
 1209TIP3    H225043   6.800   0.325  12.537  0.4061  0.7011 -2.0175
 1210TIP3   OH225044   6.664   0.991   4.760  0.0588 -0.0731 -0.0416
 1210TIP3    H125045   6.679   0.965   4.851 -0.7896 -0.8693 -0.1124
 1210TIP3    H225046   6.693   0.915   4.709 -1.3357 -0.4398 -0.3183
 1211TIP3   OH225047   5.460   5.109  15.619  0.0209  0.5106  0.6977
 1211TIP3    H125048   5.491   5.053  15.547 -0.2423 -0.9038  1.6385
 1211TIP3    H225049   5.379   5.148  15.586 -0.4646 -0.6671  0.4537
 1212TIP3   OH225050   3.849   5.221  14.078 -0.3090 -0.5547 -0.0826
 1212TIP3    H125051   3.858   5.128  14.099  0.5903 -0.0426  2.0196
 1212TIP3    H225052   3.938   5.252  14.063 -0.7520 -0.4520 -3.1010
 1213TIP3   OH225053   5.966   3.031   0.663 -0.4528  0.5116  0.6349
 1213TIP3    H125054   6.007   2.983   0.592  1.5889  2.7592  0.1648
 1213TIP3    H225055   5.914   2.965   0.710  0.0160 -1.5046 -1.5096
 1214TIP3   OH225056   1.445   3.180  14.908 -0.4444  0.1936  0.0911
 1214TIP3    H125057   1.385   3.164  14.835  0.9211 -1.6316 -0.7154
 1214TIP3    H225058   1.393   3.161  14.986 -1.0292 -1.0902 -0.5777
 1215TIP3   OH225059   5.324   1.442   3.084 -0.2587  0.2766  0.8342
 1215TIP3    H125060   5.383   1.451   3.009 -0.8266 -0.8264  0.2238
 1215TIP3    H225061   5.370   1.484   3.157  1.0176 -0.0567  0.2445
 1216TIP3   OH225062   1.533   3.486   1.445  0.0419 -0.0835  0.3328
 1216TIP3    H125063   1.592   3.445   1.381  1.8705  0.6730  1.4792
 1216TIP3    H225064   1.584   3.558   1.482 -1.7062  0.7452  1.2247
 1217TIP3   OH225065   2.048   0.652  10.668 -0.3316 -0.1170  0.7051
 1217TIP3    H125066   1.997   0.726  10.635  0.6224 -0.4014 -1.5864
 1217TIP3    H225067   2.000   0.575  10.637  0.2091 -0.4164  0.6032
 1218TIP3   OH225068   0.252   0.462   3.825 -0.5727  0.1360  0.2404
 1218TIP3    H125069   0.167   0.499   3.803 -0.7981  0.3860  1.4584
 1218TIP3    H225070   0.232   0.375   3.860 -0.3152  0.1712  0.4739
 1219TIP3   OH225071   1.573   2.905  15.458 -0.5498 -0.2185  0.2988
 1219TIP3    H125072   1.554   2.835  15.395  0.4894  1.7719 -2.4656
 1219TIP3    H225073   1.525   2.980  15.424 -1.3895  0.5426  2.9958
 1220TIP3   OH225074   3.235   5.341   2.672 -0.0524 -0.0607 -1.2398
 1220TIP3    H125075   3.266   5.268   2.725  1.4803  0.7765 -0.9158
 1220TIP3    H225076   3.145   5.318   2.649 -0.1776 -1.2474  0.2712
 1221TIP3   OH225077   2.056   3.868  16.161 -0.1489 -0.4794  0.0685
 1221TIP3    H125078   2.143   3.855  16.123 -0.2829 -0.5389 -0.2232
 1221TIP3    H225079   2.004   3.793  16.129 -0.8472  0.5631 -1.3753
 1222TIP3   OH225080   4.334   0.787   2.179 -0.2945  0.3406  0.2194
 1222TIP3    H125081   4.389   0.828   2.246  1.4546  0.4713 -1.2119
 1222TIP3    H225082   4.320   0.698   2.211  2.1771 -0.2375 -0.0644
 1223TIP3   OH225083   2.508   3.678   4.917  0.2341 -0.2844 -0.2966
 1223TIP3    H125084   2.415   3.699   4.926  1.0547  4.9993 -1.1268
 1223TIP3    H225085   2.552   3.736   4.978  3.1431 -0.1634 -2.2999
 1224TIP3   OH225086   5.283   1.748   4.552  0.1100 -0.0647  0.1731
 1224TIP3    H125087   5.315   1.713   4.469  0.2916  0.5333 -0.0153
 1224TIP3    H225088   5.361   1.754   4.607  0.0536 -0.1105  0.2569
 1225TIP3   OH225089   1.754   6.704   4.402  0.2430 -0.3734 -0.6643
 1225TIP3    H125090   1.726   6.615   4.423 -3.0865  0.5117 -0.7579
 1225TIP3    H225091   1.771   6.745   4.487 -0.5654 -0.4407 -0.4638
 1226TIP3   OH225092   0.218   6.688  14.409 -0.1765 -0.0522 -0.5209
 1226TIP3    H125093   0.161   6.682  14.485 -0.4784 -0.7227 -0.7923
 1226TIP3    H225094   0.159   6.684  14.334  0.0969  0.8228 -0.8044
 1227TIP3   OH225095   5.698   1.213   5.461  0.1833  0.0523 -1.1754
 1227TIP3    H125096   5.695   1.218   5.557  1.3094 -2.3232 -0.9294
 1227TIP3    H225097   5.622   1.160   5.438  0.0581  0.4050 -1.5716
 1228TIP3   OH225098   4.096   6.697   3.834 -0.1892  0.6011 -0.1960
 1228TIP3    H125099   4.005   6.716   3.812  0.0798 -0.4457 -2.5191
 1228TIP3    H225100   4.095   6.607   3.865  0.0791  0.4976 -0.4822
 1229TIP3   OH225101   2.904   5.325  16.129 -0.1440 -0.0001  0.6896
 1229TIP3    H125102   2.892   5.232  16.111 -0.0529 -0.3450  2.3017
 1229TIP3    H225103   2.869   5.337  16.217  0.6890  1.3080  0.8624
 1230TIP3   OH225104   2.022   6.582  10.238 -0.5039  0.0016  0.3314
 1230TIP3    H125105   2.039   6.630  10.157  0.6060  0.4347  0.7919
 1230TIP3    H225106   2.060   6.637  10.307 -3.0462  0.5522  1.4033
 1231TIP3   OH225107   1.897   6.214  16.479 -0.4257  0.1394  0.2512
 1231TIP3    H125108   1.882   6.191  16.388  1.2450  0.8248 -0.2300
 1231TIP3    H225109   1.992   6.221  16.487 -0.6072  1.7638  1.6106
 1232TIP3   OH225110   2.976   6.802  12.931  0.3822 -0.1018 -0.1066
 1232TIP3    H125111   3.049   6.754  12.893  0.3685 -1.4783  1.4708
 1232TIP3    H225112   2.900   6.745  12.917 -0.4011  1.2383 -1.5863
 1233TIP3   OH225113   3.292   4.171   4.523 -0.0033  0.2848  0.2811
 1233TIP3    H125114   3.255   4.100   4.471  1.7486 -1.2724  1.0573
 1233TIP3    H225115   3.298   4.135   4.612  0.4333  1.6082  0.8151
 1234TIP3   OH225116   2.191   5.919  15.736  0.6068  0.1892  0.2773
 1234TIP3    H125117   2.146   5.892  15.656 -0.6766  0.5121  0.8665
 1234TIP3    H225118   2.281   5.935  15.709  0.7111 -1.7881 -0.6700
 1235TIP3   OH225119   5.194   1.704  13.335  0.0498  0.5008 -0.0687
 1235TIP3    H125120   5.142   1.677  13.259 -1.7012 -0.2440  1.3349
 1235TIP3    H225121   5.129   1.731  13.400  1.3363 -1.1800  2.0311
 1236TIP3   OH225122   1.869   2.569   0.188 -0.4525  0.2603 -0.3907
 1236TIP3    H125123   1.828   2.649   0.221 -0.1086 -0.3238  1.6062
 1236TIP3    H225124   1.962   2.581   0.206 -0.4334 -0.6966  0.2697
 1237TIP3   OH225125   6.260   6.516   1.273  1.2899  0.0353  0.7307
 1237TIP3    H125126   6.296   6.563   1.347  0.6828  0.8502  0.5282
 1237TIP3    H225127   6.191   6.461   1.310 -0.8222  2.3663  0.5178
 1238TIP3   OH225128   0.138   3.022  12.616 -0.0456 -0.4043 -0.2093
 1238TIP3    H125129   0.227   3.056  12.604 -1.0860  2.5168 -0.4231
 1238TIP3    H225130   0.118   3.038  12.709 -0.5959 -0.3734 -0.3293
 1239TIP3   OH225131   0.922   3.485  15.237 -0.6946 -0.2706 -0.4763
 1239TIP3    H125132   0.830   3.511  15.250 -0.4939  1.1804 -1.6951
 1239TIP3    H225133   0.972   3.548  15.289 -0.3618 -0.8460 -0.0923
 1240TIP3   OH225134   1.702   6.599  12.180 -0.3034  0.2046 -0.6597
 1240TIP3    H125135   1.640   6.633  12.116 -0.3417 -0.5109 -1.0072
 1240TIP3    H225136   1.762   6.544  12.129  0.9652  1.3169 -0.4341
 1241TIP3   OH225137   3.757   4.552   5.747 -0.4182 -0.0502 -0.5149
 1241TIP3    H125138   3.664   4.544   5.767  0.1516 -1.6359  1.8999
 1241TIP3    H225139   3.794   4.601   5.821  0.6440  0.9905 -1.6718
 1242TIP3   OH225140   3.637   1.544  15.166 -0.1724  1.1043 -0.0284
 1242TIP3    H125141   3.560   1.596  15.143 -0.5214  1.0970  1.0657
 1242TIP3    H225142   3.699   1.608  15.201 -0.6889  0.8044  1.5401
 1243TIP3   OH225143   5.880   6.340   5.452 -0.0131  0.0618 -0.1724
 1243TIP3    H125144   5.883   6.272   5.519  0.1658  0.2979  0.0611
 1243TIP3    H225145   5.814   6.309   5.390 -0.3262 -0.0688  0.2157
 1244TIP3   OH225146   0.366   2.162   3.516  0.0278 -0.1448 -0.2693
 1244TIP3    H125147   0.438   2.122   3.566  0.5428 -0.9730 -1.6127
 1244TIP3    H225148   0.293   2.101   3.528  0.6466 -1.2624 -1.8500
 1245TIP3   OH225149   4.982   3.863   2.040 -0.5500  0.0881  0.0114
 1245TIP3    H125150   5.002   3.779   2.080  0.5874  0.0031 -0.6956
 1245TIP3    H225151   5.045   3.924   2.078 -1.7626  0.7778  0.9833
 1246TIP3   OH225152   6.507   1.513   3.180 -0.3320 -0.3241 -0.3867
 1246TIP3    H125153   6.458   1.453   3.123 -1.5119 -0.4677  0.7403
 1246TIP3    H225154   6.440   1.565   3.225  0.6633  1.8440 -1.2815
 1247TIP3   OH225155   2.164   2.595  10.977  1.1137  0.2641 -0.2357
 1247TIP3    H125156   2.173   2.530  10.908  1.1138 -0.3467  0.3313
 1247TIP3    H225157   2.105   2.661  10.940 -0.1817 -0.8632 -0.2321
 1248TIP3   OH225158   6.807   2.231  11.913  0.0416 -0.2132 -0.2629
 1248TIP3    H125159   6.727   2.181  11.930 -0.0622  0.7140  2.5624
 1248TIP3    H225160   6.789   2.317  11.951  1.8350  0.5217 -1.0019
 1249TIP3   OH225161   3.737   2.973  13.950 -0.3832  0.3577 -0.5412
 1249TIP3    H125162   3.784   3.056  13.957  0.6991 -0.2634 -0.1522
 1249TIP3    H225163   3.796   2.916  13.901 -0.8566 -0.3592 -0.2961
 1250TIP3   OH225164   6.017   0.446  14.411  0.1858  0.0852 -0.4726
 1250TIP3    H125165   6.039   0.526  14.459 -3.3755  0.7419  0.3211
 1250TIP3    H225166   6.065   0.454  14.328  1.7264  1.8526  0.5029
 1251TIP3   OH225167   1.960   4.079   3.125  0.1057  0.2898  0.5699
 1251TIP3    H125168   2.001   4.045   3.045  1.5889  1.3977  0.8111
 1251TIP3    H225169   2.021   4.054   3.195 -0.7401  0.1037  1.2555
 1252TIP3   OH225170   2.894   3.961   2.006 -0.3335  0.6977 -0.2735
 1252TIP3    H125171   2.970   3.957   1.948 -1.1595 -2.0879 -1.3121
 1252TIP3    H225172   2.819   3.951   1.948 -1.3187  0.0832  1.0543
 1253TIP3   OH225173   0.427   1.246   2.370  0.2651  0.2391  1.0609
 1253TIP3    H125174   0.432   1.190   2.293  0.3139  0.9234  0.5566
 1253TIP3    H225175   0.477   1.199   2.437  3.0453  1.1168 -0.2355
 1254TIP3   OH225176   4.987   2.330   1.803  0.1020  0.1969 -0.6640
 1254TIP3    H125177   4.988   2.407   1.859  2.2382 -0.8227  0.8639
 1254TIP3    H225178   4.919   2.274   1.841  1.3634 -0.3832  0.9100
 1255TIP3   OH225179   5.817   3.276  15.096 -0.0437 -0.4752  0.5451
 1255TIP3    H125180   5.762   3.253  15.171 -1.5001 -1.0985 -0.6567
 1255TIP3    H225181   5.767   3.342  15.049  0.8265 -0.1430  0.0595
 1256TIP3   OH225182   5.469   4.697   5.730 -0.1270 -0.0272  0.0566
 1256TIP3    H125183   5.459   4.604   5.709  1.5326 -0.1554 -0.3335
 1256TIP3    H225184   5.457   4.701   5.825  0.2188 -0.7175  0.1374
 1257TIP3   OH225185   3.920   3.053   0.622 -0.3039  0.6404 -0.4425
 1257TIP3    H125186   3.964   3.123   0.670 -2.1721  1.1330  0.6271
 1257TIP3    H225187   3.947   2.973   0.667  0.1003  0.8572 -0.2923
 1258TIP3   OH225188   3.374   3.944   5.301 -0.0984 -0.1532  0.4167
 1258TIP3    H125189   3.458   3.909   5.333 -0.5825  0.4910  2.5362
 1258TIP3    H225190   3.372   4.035   5.333  0.5136  1.5529 -3.7690
 1259TIP3   OH225191   1.676   4.225  15.409  0.3145  0.3935  0.3564
 1259TIP3    H125192   1.605   4.237  15.347 -0.6904  1.0585  1.5932
 1259TIP3    H225193   1.639   4.169  15.478  1.3783 -0.2814  0.4036
 1260TIP3   OH225194   5.835   5.893   0.872  0.0684  0.3662 -0.2908
 1260TIP3    H125195   5.750   5.881   0.829  0.7679  0.3293 -1.7288
 1260TIP3    H225196   5.840   5.987   0.890 -0.4553  0.3027  0.2019
 1261TIP3   OH225197   5.174   6.245   5.105  0.0897  0.1979  0.9876
 1261TIP3    H125198   5.254   6.262   5.054 -0.8688 -0.9091 -1.0263
 1261TIP3    H225199   5.117   6.319   5.084  0.2902  0.5818  1.7886
 1262TIP3   OH225200   4.651   4.924   4.366  0.2011  0.0379 -0.0961
 1262TIP3    H125201   4.617   4.845   4.324 -0.7338  0.6897 -0.6177
 1262TIP3    H225202   4.741   4.903   4.388  0.4518 -0.6369 -1.6595
 1263TIP3   OH225203   0.633   5.359   1.781  0.3417 -0.3139 -0.8243
 1263TIP3    H125204   0.674   5.315   1.707  1.1085 -1.0560  0.0251
 1263TIP3    H225205   0.704   5.372   1.844 -0.3856 -0.1189 -0.0252
 1264TIP3   OH225206   5.995   0.026  13.993 -0.2272  0.0990  0.2915
 1264TIP3    H125207   6.023  -0.061  14.021  0.0185  0.2229  0.4363
 1264TIP3    H225208   5.925   0.010  13.930 -1.0593 -0.1864  1.2565
 1265TIP3   OH225209   1.217   2.420   0.969  0.3282  0.0634 -0.0478
 1265TIP3    H125210   1.245   2.423   1.060  0.2478  1.6667 -0.0555
 1265TIP3    H225211   1.297   2.431   0.919  0.2452  0.2339 -0.1453
 1266TIP3   OH225212   0.846   1.699   5.752 -0.1829  0.2610 -0.1684
 1266TIP3    H125213   0.907   1.638   5.709 -0.0815  1.5243 -1.9053
 1266TIP3    H225214   0.782   1.642   5.794  0.7000 -1.0752 -0.5572
 1267TIP3   OH225215   2.321   4.891   4.167 -0.6739  0.3802  0.8334
 1267TIP3    H125216   2.366   4.918   4.087 -1.2969  0.3877  0.4799
 1267TIP3    H225217   2.356   4.949   4.235  0.9280 -0.5693  0.8769
 1268TIP3   OH225218   0.692   4.425   0.152 -0.1428 -0.1728 -0.1175
 1268TIP3    H125219   0.748   4.353   0.181  0.6702 -0.0114 -1.2384
 1268TIP3    H225220   0.726   4.502   0.199  1.2541  0.1111 -1.5138
 1269TIP3   OH225221   0.467   6.075   5.793 -0.1724 -0.4420  0.5021
 1269TIP3    H125222   0.526   6.092   5.866 -1.0457 -0.1603  1.1574
 1269TIP3    H225223   0.458   6.159   5.749  0.5522 -0.6649 -0.1038
 1270TIP3   OH225224   0.610   0.403  14.721 -0.3549  0.0086  0.2792
 1270TIP3    H125225   0.634   0.359  14.803 -1.6693 -1.9050 -0.2969
 1270TIP3    H225226   0.532   0.356  14.691  0.5220  0.1686 -2.4672
 1271TIP3   OH225227   6.081   0.230   3.937  0.2474  0.1329  0.4142
 1271TIP3    H125228   6.021   0.304   3.949 -0.9361 -0.2398 -2.4143
 1271TIP3    H225229   6.165   0.262   3.969 -0.7144  1.9285  1.2833
 1272TIP3   OH225230   0.419   2.735  13.108  0.1026  0.5622  0.5149
 1272TIP3    H125231   0.342   2.749  13.053 -0.5904 -3.3396  0.2302
 1272TIP3    H225232   0.417   2.808  13.170 -2.4859  1.8689 -0.9321
 1273TIP3   OH225233   2.640   4.341  13.880 -0.1248  0.6371 -0.0303
 1273TIP3    H125234   2.698   4.389  13.940  0.8289  0.9328 -1.1447
 1273TIP3    H225235   2.554   4.346  13.921  0.5818  0.3920  1.5636
 1274TIP3   OH225236   6.555   1.573   2.248 -0.8580  1.2276 -0.4277
 1274TIP3    H125237   6.494   1.646   2.256 -1.0826  1.1016 -0.9231
 1274TIP3    H225238   6.529   1.528   2.167 -1.8763 -0.4649  0.7669
 1275TIP3   OH225239   2.224   2.718   3.756  0.0872 -0.4170 -0.0717
 1275TIP3    H125240   2.184   2.799   3.787  2.1919  0.0862  1.6191
 1275TIP3    H225241   2.233   2.730   3.662 -2.3677 -0.0098 -0.3173
 1276TIP3   OH225242   6.725   3.295  15.036 -0.0079 -0.1173 -0.5136
 1276TIP3    H125243   6.811   3.252  15.036 -1.1777 -2.6673  0.3842
 1276TIP3    H225244   6.725   3.349  15.115  0.6703 -0.2603 -0.4057
 1277TIP3   OH225245   2.280   5.983  12.819  0.0968  0.1887  0.0104
 1277TIP3    H125246   2.213   5.915  12.818  2.1937 -2.0116 -1.1890
 1277TIP3    H225247   2.264   6.034  12.739  0.2718 -0.7889 -0.6563
 1278TIP3   OH225248   6.542   2.135   2.766 -0.1659  0.0166  0.5227
 1278TIP3    H125249   6.561   2.195   2.838 -1.7904  1.0202  0.1665
 1278TIP3    H225250   6.469   2.175   2.720 -0.0440 -1.2918 -0.8912
 1279TIP3   OH225251   6.255   2.485  15.269  0.6232  0.3542  0.3350
 1279TIP3    H125252   6.193   2.470  15.198  0.9980  1.8375 -0.3604
 1279TIP3    H225253   6.204   2.529  15.337  0.0831 -1.7479  1.3599
 1280TIP3   OH225254   4.636   2.643   3.448  0.3883  0.0175  0.2446
 1280TIP3    H125255   4.542   2.656   3.456  0.6095  1.6960  0.4879
 1280TIP3    H225256   4.667   2.627   3.537  0.5872  1.5998  0.4881
 1281TIP3   OH225257   0.700   1.564   2.509 -0.1407  0.2669  0.0570
 1281TIP3    H125258   0.662   1.503   2.446  0.7454  0.5931 -0.8276
 1281TIP3    H225259   0.703   1.648   2.463 -1.6851  1.1005  1.3752
 1282TIP3   OH225260   5.486   0.932  16.350 -0.4718 -0.0117  0.7326
 1282TIP3    H125261   5.527   0.967  16.429  0.5566  0.0439  0.1864
 1282TIP3    H225262   5.414   0.992  16.332  1.1196  1.7632 -0.0672
 1283TIP3   OH225263   6.339   4.378  13.536  0.3972 -0.3533 -0.0689
 1283TIP3    H125264   6.287   4.297  13.535 -0.0397 -0.0734 -0.4849
 1283TIP3    H225265   6.276   4.447  13.518  0.8012  0.0665  0.1048
 1284TIP3   OH225266   1.184   3.833  11.162  0.1712 -0.1968  0.2084
 1284TIP3    H125267   1.227   3.897  11.218  0.9265  0.5539 -1.2016
 1284TIP3    H225268   1.116   3.883  11.117  0.2819 -0.5462 -0.3502
 1285TIP3   OH225269   1.598   2.448   0.503 -0.4203  0.6678  0.0254
 1285TIP3    H125270   1.636   2.375   0.552 -2.4938  0.6236  1.7192
 1285TIP3    H225271   1.581   2.412   0.416 -0.5407 -0.6057  0.5501
 1286TIP3   OH225272   2.632   5.866   1.716 -0.0459 -0.0574 -0.5073
 1286TIP3    H125273   2.583   5.825   1.787  0.4626 -1.4687 -0.9370
 1286TIP3    H225274   2.713   5.816   1.711  0.7719  1.2410 -0.8355
 1287TIP3   OH225275   2.375   6.362  15.802  0.3660 -0.0861 -0.3030
 1287TIP3    H125276   2.396   6.310  15.879 -0.0332 -1.8701 -1.3379
 1287TIP3    H225277   2.460   6.386  15.764  0.5622 -0.6622 -0.2337
 1288TIP3   OH225278   0.303   1.314  16.593  0.6049 -0.5815  0.0280
 1288TIP3    H125279   0.281   1.345  16.505  0.1064  1.8233  0.9290
 1288TIP3    H225280   0.396   1.334  16.603  0.3926  0.2489  0.4414
 1289TIP3   OH225281   4.556   6.137  15.466 -0.2730 -0.1093 -0.5433
 1289TIP3    H125282   4.589   6.115  15.553 -3.5051 -0.0664  0.8665
 1289TIP3    H225283   4.627   6.184  15.423  1.2147  0.4453  2.3310
 1290TIP3   OH225284   5.945   4.554   3.300 -0.0833  0.2469  0.2088
 1290TIP3    H125285   6.039   4.562   3.316  0.2279  0.5977 -1.6167
 1290TIP3    H225286   5.938   4.513   3.214 -1.6414 -1.3704  1.0146
 1291TIP3   OH225287   2.405   4.674  10.376 -0.2193  0.1908 -0.0074
 1291TIP3    H125288   2.337   4.662  10.443 -0.6912 -0.9302 -0.6520
 1291TIP3    H225289   2.364   4.730  10.310  0.4172  1.7059  0.8563
 1292TIP3   OH225290   5.224   5.860  14.619  0.2993 -0.1120  0.8903
 1292TIP3    H125291   5.164   5.792  14.589 -2.1599  1.4157  2.0009
 1292TIP3    H225292   5.169   5.938  14.627  2.1943  1.1097  3.1299
 1293TIP3   OH225293   0.451   0.948   5.121  0.2434 -0.0830 -0.8041
 1293TIP3    H125294   0.408   0.865   5.142 -1.2002  0.6716 -0.6718
 1293TIP3    H225295   0.505   0.967   5.199  1.8222 -1.6126 -1.4444
 1294TIP3   OH225296   3.352   1.487  12.104 -0.6305 -0.6631 -0.6053
 1294TIP3    H125297   3.364   1.396  12.130 -0.3315 -0.3137  0.5197
 1294TIP3    H225298   3.431   1.509  12.055  0.1927 -0.4663  0.7537
 1295TIP3   OH225299   0.512   2.842   2.350 -0.2657 -0.3510 -0.2359
 1295TIP3    H125300   0.515   2.756   2.308  1.1037 -0.5976  0.2875
 1295TIP3    H225301   0.590   2.843   2.406 -1.0450  0.6752  0.8747
 1296TIP3   OH225302   0.446   5.989   2.046  0.4797  0.0070  0.2579
 1296TIP3    H125303   0.476   5.899   2.052 -0.5243 -0.2486  3.5717
 1296TIP3    H225304   0.351   5.984   2.055  0.0891  1.2790 -2.3410
 1297TIP3   OH225305   4.488   2.099   3.874  0.2812 -0.1552  0.3410
 1297TIP3    H125306   4.579   2.122   3.857  0.0453 -0.1238 -0.9665
 1297TIP3    H225307   4.476   2.015   3.830 -0.5095  0.1977 -0.1357
 1298TIP3   OH225308   1.256   4.652  15.291  0.0726 -0.1273 -0.4183
 1298TIP3    H125309   1.266   4.559  15.267  0.1423 -0.2924  0.2300
 1298TIP3    H225310   1.325   4.667  15.356 -0.9900 -0.0770  0.7442
 1299TIP3   OH225311   3.674   6.347   0.687  0.2531 -0.7744 -0.4328
 1299TIP3    H125312   3.637   6.264   0.720 -0.7930  0.2065  0.9738
 1299TIP3    H225313   3.702   6.326   0.598 -1.4422 -2.2597 -0.6880
 1300TIP3   OH225314   0.961   4.933  14.123  0.1685  0.1557 -0.1543
 1300TIP3    H125315   0.920   4.929  14.210 -0.4239  0.1856 -0.4326
 1300TIP3    H225316   0.891   4.960  14.064  0.0533 -1.7588 -0.9667
 1301TIP3   OH225317   5.005   5.829   6.325  0.5074 -0.6686 -0.1363
 1301TIP3    H125318   5.040   5.740   6.336  0.0210 -0.7031  1.3088
 1301TIP3    H225319   5.059   5.883   6.383 -3.4266 -1.1687  4.6233
 1302TIP3   OH225320   5.386   2.461   2.951 -0.6980  0.8745  0.0852
 1302TIP3    H125321   5.349   2.467   3.039 -1.8836  1.4971 -0.4485
 1302TIP3    H225322   5.459   2.524   2.951 -2.2704  2.7758 -0.1344
 1303TIP3   OH225323   5.938   1.502   1.778 -0.2585  0.5387  0.0106
 1303TIP3    H125324   5.982   1.418   1.784 -1.5728 -0.1829 -0.0446
 1303TIP3    H225325   5.873   1.490   1.709 -2.0998  0.8038  1.6122
 1304TIP3   OH225326   2.923   1.196  16.940 -0.1454 -0.4705  0.2280
 1304TIP3    H125327   2.839   1.242  16.938 -0.2157 -0.6218 -1.4634
 1304TIP3    H225328   2.988   1.265  16.950 -0.4349 -0.3422  1.4151
 1305TIP3   OH225329   3.662   3.483   3.271  0.0231 -0.3278 -0.5803
 1305TIP3    H125330   3.634   3.523   3.353 -1.6201 -1.4384 -0.5519
 1305TIP3    H225331   3.723   3.546   3.233 -0.8633  1.2141  0.4427
 1306TIP3   OH225332   6.168   2.518  12.505 -0.3234 -0.4035 -0.1475
 1306TIP3    H125333   6.153   2.467  12.585  0.9929  0.7428  0.8878
 1306TIP3    H225334   6.259   2.503  12.482  0.3008  1.8249  0.5356
 1307TIP3   OH225335   1.384   3.882   2.539 -0.0220  0.2721 -0.1380
 1307TIP3    H125336   1.388   3.977   2.525 -0.4754  0.3313  0.1329
 1307TIP3    H225337   1.397   3.845   2.451  0.3122  0.5756 -0.2214
 1308TIP3   OH225338   3.370   6.388  16.794 -0.1320 -0.0919  0.6881
 1308TIP3    H125339   3.289   6.338  16.781  0.5291 -1.1121  0.3532
 1308TIP3    H225340   3.387   6.428  16.708 -0.0789 -0.1951  0.6507
 1309TIP3   OH225341   1.434   5.345   1.557 -0.7418 -0.6636 -0.1865
 1309TIP3    H125342   1.525   5.361   1.531 -0.5887 -0.4172  0.4757
 1309TIP3    H225343   1.403   5.278   1.495 -0.5921  0.3334 -1.3764
 1310TIP3   OH225344   5.843   0.124   4.735  0.1395 -0.2100  0.5785
 1310TIP3    H125345   5.767   0.146   4.789 -0.9209  0.7955 -1.2154
 1310TIP3    H225346   5.861   0.032   4.754 -0.8993 -0.1984  1.7387
 1311TIP3   OH225347   4.752   3.120  13.977 -0.0016 -0.6231  0.4103
 1311TIP3    H125348   4.722   3.029  13.983  1.7533 -1.2229  0.8216
 1311TIP3    H225349   4.802   3.134  14.057  1.0993  0.1627 -0.3824
 1312TIP3   OH225350   6.404   0.849   4.516 -0.4548  0.4424 -0.6942
 1312TIP3    H125351   6.333   0.845   4.451 -1.4407  1.3044  0.2926
 1312TIP3    H225352   6.419   0.758   4.541  0.2333  0.0420 -2.4118
 1313TIP3   OH225353   2.253   0.624   2.534 -0.3445 -0.0686  0.3460
 1313TIP3    H125354   2.304   0.625   2.453 -0.7771  0.3356  0.0797
 1313TIP3    H225355   2.193   0.698   2.527  0.8911  1.1699  1.8623
 1314TIP3   OH225356   4.076   4.505   4.129 -0.3785  0.0961 -0.6527
 1314TIP3    H125357   4.074   4.598   4.151 -0.3883 -0.5879  2.8100
 1314TIP3    H225358   4.157   4.473   4.169 -1.4438 -1.7412  0.1706
 1315TIP3   OH225359   3.531   3.339  12.822  0.3852  0.2046  0.1898
 1315TIP3    H125360   3.470   3.335  12.747  0.0952 -2.4415  0.4687
 1315TIP3    H225361   3.565   3.250  12.829  1.9077  0.8832  2.0310
 1316TIP3   OH225362   0.537   0.078   4.885  0.0526 -0.2739 -0.6428
 1316TIP3    H125363   0.580   0.111   4.964  1.4025  0.3972 -1.6272
 1316TIP3    H225364   0.452   0.122   4.884 -0.0633 -0.4490  0.5351
 1317TIP3   OH225365   3.079   4.087   5.083 -0.3381 -0.4413  0.4110
 1317TIP3    H125366   3.106   3.999   5.058  0.0602 -0.9640  2.4897
 1317TIP3    H225367   3.018   4.074   5.155 -0.6171  0.9827  0.4594
 1318TIP3   OH225368   3.151   4.760  13.537 -0.7188  0.4253  0.5057
 1318TIP3    H125369   3.148   4.772  13.632  0.5005 -1.0894  0.7761
 1318TIP3    H225370   3.102   4.679  13.521  1.2848 -0.7910  0.1926
 1319TIP3   OH225371   2.428   3.488   0.910 -0.6347 -0.0174  0.1032
 1319TIP3    H125372   2.484   3.516   0.838 -0.2156  0.5949  0.6515
 1319TIP3    H225373   2.470   3.523   0.988 -1.2007 -0.4784  0.6293
 1320TIP3   OH225374   2.540   5.073   1.608 -0.1808  0.4026 -0.3593
 1320TIP3    H125375   2.592   5.094   1.685  0.7150 -0.9864 -0.5507
 1320TIP3    H225376   2.492   4.994   1.633  0.7743 -0.5716 -1.4853
 1321TIP3   OH225377   3.364   3.246   0.748  0.0220 -0.7346  0.1577
 1321TIP3    H125378   3.370   3.151   0.749  2.4108 -0.6212  0.6687
 1321TIP3    H225379   3.356   3.269   0.655  0.4959 -1.3899 -0.0492
 1322TIP3   OH225380   2.526   4.694  15.959 -0.8029 -0.5725  0.2529
 1322TIP3    H125381   2.523   4.615  16.014 -2.9474 -0.8086 -0.0952
 1322TIP3    H225382   2.533   4.661  15.870 -0.1004 -0.2912  0.1993
 1323TIP3   OH225383   5.705   4.868   3.765  0.6162  0.2428  0.2448
 1323TIP3    H125384   5.654   4.949   3.765 -0.2374 -0.2345 -1.4320
 1323TIP3    H225385   5.756   4.871   3.846 -1.8084  0.9155  1.8417
 1324TIP3   OH225386   6.748   3.543   3.056  0.2311  0.2950 -0.2133
 1324TIP3    H125387   6.728   3.614   3.118 -0.0923 -0.2617  0.3360
 1324TIP3    H225388   6.839   3.558   3.031 -0.2135  1.6619 -1.1305
 1325TIP3   OH225389   6.461   6.337  14.904 -0.1144 -0.8792  0.2723
 1325TIP3    H125390   6.490   6.246  14.897  1.8777 -0.1948 -1.1855
 1325TIP3    H225391   6.509   6.372  14.979  1.3618 -0.3077 -0.8898
 1326TIP3   OH225392   5.613   3.001  15.521  0.2477  0.0780 -0.4522
 1326TIP3    H125393   5.547   2.941  15.485  0.9208 -1.0844  0.1878
 1326TIP3    H225394   5.630   3.063  15.450  1.0256 -1.7391 -1.9543
 1327TIP3   OH225395   6.137   0.008   4.234  0.3879  0.1263  0.0286
 1327TIP3    H125396   6.073   0.043   4.172  0.4959 -0.2938 -0.3207
 1327TIP3    H225397   6.220   0.013   4.188  0.5400  0.2428  0.3144
 1328TIP3   OH225398   0.853   2.035  11.125 -0.5664  0.0228  0.2379
 1328TIP3    H125399   0.767   2.063  11.156 -1.3143 -0.2926 -1.4606
 1328TIP3    H225400   0.836   1.955  11.076  0.5920  0.3126 -0.6789
 1329TIP3   OH225401   1.058   2.755  11.818 -0.2647  0.1830 -0.6249
 1329TIP3    H125402   1.117   2.699  11.868  0.1705  0.9552 -0.2551
 1329TIP3    H225403   0.970   2.725  11.843 -0.0628  0.6764  0.7760
 1330TIP3   OH225404   1.764   5.261   3.803  0.0561 -0.4890  0.0149
 1330TIP3    H125405   1.781   5.334   3.862 -1.3040 -0.5060  0.4546
 1330TIP3    H225406   1.836   5.200   3.819  0.4117  0.0988  0.6951
 1331TIP3   OH225407   2.684   3.579   1.537 -0.3030 -0.1724  0.0535
 1331TIP3    H125408   2.678   3.636   1.461 -2.4033  0.4548  0.6146
 1331TIP3    H225409   2.773   3.543   1.534 -0.4628 -0.5485 -2.9249
 1332TIP3   OH225410   4.705   3.446  11.729  0.3228 -0.0795  0.3568
 1332TIP3    H125411   4.636   3.506  11.700  1.2375  0.5310 -0.6380
 1332TIP3    H225412   4.693   3.440  11.824 -1.6886 -0.7754  0.1027
 1333TIP3   OH225413   3.547   3.405   6.279 -0.6602  1.0087 -0.2808
 1333TIP3    H125414   3.548   3.500   6.294  0.3003  1.1696 -1.2618
 1333TIP3    H225415   3.458   3.387   6.248 -0.7861  1.6172 -0.2975
 1334TIP3   OH225416   5.365   1.184  12.625 -0.2055  0.3252  0.2198
 1334TIP3    H125417   5.407   1.112  12.673  0.3678  0.9036  0.5970
 1334TIP3    H225418   5.281   1.148  12.598  0.7498 -1.0655 -1.0648
 1335TIP3   OH225419   1.525   3.785   4.032  0.0893 -0.1051  0.2865
 1335TIP3    H125420   1.552   3.710   4.084  0.1481  0.2395  0.7620
 1335TIP3    H225421   1.602   3.806   3.979  0.3406  0.1017  0.7257
 1336TIP3   OH225422   0.858   6.820   2.374 -0.2660  0.0202 -0.1636
 1336TIP3    H125423   0.946   6.813   2.411 -0.4144  0.3800  0.2748
 1336TIP3    H225424   0.822   6.732   2.379  0.2924 -0.2643 -0.9305
 1337TIP3   OH225425   0.335   1.184   3.111 -0.0930 -0.0447 -0.2021
 1337TIP3    H125426   0.293   1.104   3.077  1.0485 -0.6861 -0.1601
 1337TIP3    H225427   0.266   1.227   3.162 -0.8332 -0.8179 -0.5187
 1338TIP3   OH225428   5.843   1.827   2.178 -0.2374 -0.0718  0.5651
 1338TIP3    H125429   5.850   1.749   2.234 -2.4986 -0.5927  0.2104
 1338TIP3    H225430   5.854   1.794   2.089 -2.2006 -0.2119  0.3334
 1339TIP3   OH225431   1.763   2.956  12.855  0.2561  0.2733  0.1089
 1339TIP3    H125432   1.763   2.956  12.759  1.9922 -0.4990  0.0732
 1339TIP3    H225433   1.718   2.875  12.879  0.4777  0.0932 -0.0747
 1340TIP3   OH225434   1.744   5.315  11.928  0.3402  0.2713 -0.0100
 1340TIP3    H125435   1.767   5.256  11.856  0.0989  0.0634  0.0796
 1340TIP3    H225436   1.813   5.302  11.993 -0.8826 -1.6176  1.0010
 1341TIP3   OH225437   2.350   3.847  12.751  0.0819 -0.3848 -0.3403
 1341TIP3    H125438   2.256   3.835  12.741 -0.0111  1.3851 -2.0009
 1341TIP3    H225439   2.371   3.800  12.832 -2.6018  1.0762  1.3390
 1342TIP3   OH225440   1.308   5.086   3.730  0.8275 -0.5266 -0.4254
 1342TIP3    H125441   1.356   5.092   3.813  1.3235 -2.1356 -0.5772
 1342TIP3    H225442   1.261   5.170   3.724  0.7018 -0.4148  1.5173
 1343TIP3   OH225443   5.794   6.204  15.742 -0.4748 -0.0053  0.1979
 1343TIP3    H125444   5.843   6.269  15.792  0.0314 -0.1318 -0.1238
 1343TIP3    H225445   5.848   6.125  15.746 -2.0161 -1.0505  2.2809
 1344TIP3   OH225446   4.646   3.231   1.511 -0.1102 -0.9675 -0.0710
 1344TIP3    H125447   4.586   3.202   1.443 -0.5415 -1.0867  0.3537
 1344TIP3    H225448   4.589   3.256   1.584  0.3671 -1.3801  0.4549
 1345TIP3   OH225449   4.771   0.731   0.675  0.1187 -0.3504 -0.2239
 1345TIP3    H125450   4.726   0.729   0.759 -2.0962  3.2513 -1.1056
 1345TIP3    H225451   4.701   0.730   0.610  1.5688  0.4408 -1.8867
 1346TIP3   OH225452   2.999   6.634  12.212 -0.2652  0.0592 -0.4023
 1346TIP3    H125453   3.071   6.691  12.239 -0.2542  0.5195 -1.3820
 1346TIP3    H225454   2.923   6.692  12.207 -0.4095 -0.1539 -0.7003
 1347TIP3   OH225455   2.288   3.095   2.327  0.0157 -0.2461 -0.3424
 1347TIP3    H125456   2.238   3.164   2.284 -0.9541 -1.4631 -1.2250
 1347TIP3    H225457   2.375   3.100   2.287  0.6449  1.7903  1.1120
 1348TIP3   OH225458   2.713   2.856  11.287 -0.0143 -0.1264  0.2074
 1348TIP3    H125459   2.749   2.780  11.242 -1.9756 -1.1849  0.2811
 1348TIP3    H225460   2.646   2.890  11.228  0.4836  1.2590  0.4010
 1349TIP3   OH225461   1.392   3.728  14.473  0.4035  0.0672  0.2579
 1349TIP3    H125462   1.442   3.802  14.508 -0.2877  0.4275  0.4998
 1349TIP3    H225463   1.328   3.768  14.414 -1.5868 -0.0665  2.2002
 1350TIP3   OH225464   4.782   6.389  12.567 -0.8756  0.4987 -0.2628
 1350TIP3    H125465   4.848   6.440  12.615 -0.1378 -0.1055 -0.6206
 1350TIP3    H225466   4.757   6.445  12.494  1.8924 -0.6280 -2.2228
 1351TIP3   OH225467   1.842   1.908  13.057  0.5394  0.2891  0.2187
 1351TIP3    H125468   1.933   1.933  13.045  0.2552  0.6506 -1.4701
 1351TIP3    H225469   1.829   1.836  12.996 -0.7391  1.3855 -0.8600
 1352TIP3   OH225470   3.364   6.152  13.412  0.3688  0.2737  0.3596
 1352TIP3    H125471   3.302   6.080  13.422 -0.8018  1.4683  2.2547
 1352TIP3    H225472   3.383   6.155  13.318 -0.2760 -1.8775  0.1248
 1353TIP3   OH225473   5.139   6.504  15.930  0.0309 -0.0768 -0.3803
 1353TIP3    H125474   5.189   6.535  16.005 -0.0988 -1.1217  0.1512
 1353TIP3    H225475   5.120   6.583  15.880  2.4611  0.3571 -0.7652
 1354TIP3   OH225476   6.768   3.597  13.702  0.2917  0.6576 -0.6003
 1354TIP3    H125477   6.761   3.648  13.621 -2.6113  1.2960 -0.0531
 1354TIP3    H225478   6.858   3.565  13.702  0.7529  1.6471 -3.4572
 1355TIP3   OH225479   1.713   2.857   4.655 -0.3369  0.2520  0.0635
 1355TIP3    H125480   1.699   2.931   4.714  1.0735  0.6134 -0.0311
 1355TIP3    H225481   1.807   2.841   4.658 -0.4946 -0.9363 -0.6506
 1356TIP3   OH225482   1.969   4.641   5.041 -0.1454 -0.0594  0.3248
 1356TIP3    H125483   1.894   4.614   4.989 -0.4061  1.8901 -0.4017
 1356TIP3    H225484   2.044   4.631   4.983  0.2104 -1.9742  1.0389
 1357TIP3   OH225485   5.455   5.950  15.224  0.9577 -0.2698 -0.2150
 1357TIP3    H125486   5.368   5.917  15.248  0.7483  1.5637  1.8679
 1357TIP3    H225487   5.455   5.951  15.129 -2.1024  1.4308 -0.3371
 1358TIP3   OH225488   1.208   5.099  13.634 -0.2071 -0.2841 -0.3580
 1358TIP3    H125489   1.267   5.023  13.638 -2.4301 -2.0787  0.1412
 1358TIP3    H225490   1.165   5.092  13.549 -2.0833 -0.9666  0.5870
 1359TIP3   OH225491   0.841   3.782   1.408 -0.5875  0.0037  0.3242
 1359TIP3    H125492   0.884   3.827   1.335  0.0515 -1.0985 -0.0020
 1359TIP3    H225493   0.886   3.697   1.414 -2.9915 -1.4310 -0.3525
 1360TIP3   OH225494   4.133   5.314  11.644  0.2652  0.4240  0.2013
 1360TIP3    H125495   4.075   5.318  11.568  0.8452 -1.2562 -0.3681
 1360TIP3    H225496   4.190   5.390  11.636 -1.4483  1.8020  0.4687
 1361TIP3   OH225497   0.374   0.086   2.128 -0.0034  0.0326  0.0769
 1361TIP3    H125498   0.338   0.006   2.167  1.8878 -0.2556  1.3921
 1361TIP3    H225499   0.309   0.154   2.147 -1.2150 -1.0160 -0.2573
 1362TIP3   OH225500   0.589   2.839  13.761 -0.4904  0.0702  0.7818
 1362TIP3    H125501   0.622   2.905  13.822  1.3099  1.0382 -1.0822
 1362TIP3    H225502   0.628   2.757  13.792  0.3183  0.5241  1.0091
 1363TIP3   OH225503   2.509   3.749  10.320 -0.1252  0.4451 -0.4639
 1363TIP3    H125504   2.426   3.716  10.286 -0.5404  1.2003 -0.1944
 1363TIP3    H225505   2.495   3.843  10.332  1.0439  0.7353 -1.2256
 1364TIP3   OH225506   3.350   4.685  11.721 -0.2522 -0.0761  0.4931
 1364TIP3    H125507   3.283   4.690  11.653 -0.9168 -0.8073  1.0698
 1364TIP3    H225508   3.333   4.762  11.777 -0.2736  0.0344  0.3344
 1365TIP3   OH225509   6.355   6.684  11.395 -0.2453 -0.0534  1.0677
 1365TIP3    H125510   6.380   6.667  11.304 -0.5182 -1.6750  1.2710
 1365TIP3    H225511   6.288   6.752  11.390  0.6349  0.7744  0.1647
 1366TIP3   OH225512   4.683   0.941  13.504 -0.1503  0.4441  0.4892
 1366TIP3    H125513   4.611   0.929  13.566  0.1969  0.9335  0.9868
 1366TIP3    H225514   4.747   0.994  13.550 -0.5235  2.0803 -0.7625
 1367TIP3   OH225515   0.226   1.005  12.450  0.0274 -0.5070  0.1389
 1367TIP3    H125516   0.271   1.006  12.366  0.8407 -1.0677  0.5549
 1367TIP3    H225517   0.182   1.090  12.455  2.0073  0.5592  0.2301
 1368TIP3   OH225518   5.107   1.605  11.253 -0.5119 -0.2349 -1.0391
 1368TIP3    H125519   5.097   1.636  11.163 -1.0709  0.5877 -0.6965
 1368TIP3    H225520   5.078   1.514  11.249 -1.9054  0.1928 -1.4150
 1369TIP3   OH225521   0.686   0.769  16.324 -0.1631 -0.2922  0.0466
 1369TIP3    H125522   0.685   0.851  16.374  0.1850 -0.6643  0.6841
 1369TIP3    H225523   0.753   0.716  16.367  0.3039 -0.5427 -0.9724
 1370TIP3   OH225524   3.305   6.549  15.030  0.3173  0.4467 -0.0755
 1370TIP3    H125525   3.304   6.576  14.938 -0.1592 -0.7380 -0.4316
 1370TIP3    H225526   3.342   6.625  15.076 -1.8764  2.1329 -0.8834
 1371TIP3   OH225527   2.576   0.889   3.579 -0.1952 -0.0372  0.4163
 1371TIP3    H125528   2.518   0.813   3.571  1.1128 -1.1678  1.1496
 1371TIP3    H225529   2.660   0.859   3.545  0.2436  1.2279  0.3289
 1372TIP3   OH225530   0.398   4.852   1.877 -0.2226  0.0361  0.0822
 1372TIP3    H125531   0.401   4.765   1.837  0.7883  0.2584 -0.3571
 1372TIP3    H225532   0.394   4.913   1.804 -0.7515  0.3708  0.3842
 1373TIP3   OH225533   4.417   0.222   2.843  0.3623 -0.6015 -0.0622
 1373TIP3    H125534   4.465   0.304   2.830 -0.9878  0.1221 -0.6365
 1373TIP3    H225535   4.437   0.196   2.933  3.1219 -1.2197 -0.7550
 1374TIP3   OH225536   2.160   1.330   0.924 -0.4155  0.4726 -0.0071
 1374TIP3    H125537   2.239   1.383   0.926  0.5418 -0.9059  0.1153
 1374TIP3    H225538   2.183   1.249   0.970 -2.3442  0.6036  1.3381
 1375TIP3   OH225539   0.613   4.028  13.259  0.2257  0.3841 -0.6045
 1375TIP3    H125540   0.650   3.941  13.276 -1.2086 -0.3015 -0.8689
 1375TIP3    H225541   0.634   4.044  13.166  1.4742  0.8429 -0.2685
 1376TIP3   OH225542   4.885   0.355  15.621 -0.0811  0.1510  0.0968
 1376TIP3    H125543   4.915   0.273  15.658  0.2833  0.0347 -0.4463
 1376TIP3    H225544   4.801   0.333  15.580  0.8710 -0.3937 -1.6596
 1377TIP3   OH225545   2.504   2.061  14.335 -0.6647 -0.3201  0.1712
 1377TIP3    H125546   2.578   2.026  14.285 -1.6187 -0.6203 -1.0923
 1377TIP3    H225547   2.535   2.145  14.368 -0.0686  0.0120 -1.1690
 1378TIP3   OH225548   5.934   1.014   1.195 -0.3911 -0.0227  0.5494
 1378TIP3    H125549   6.004   1.023   1.130  0.4410 -0.7277  1.3093
 1378TIP3    H225550   5.922   1.102   1.231  1.4692 -0.1880  1.7371
 1379TIP3   OH225551   6.672   6.096  13.898 -0.0439 -0.7475 -0.1979
 1379TIP3    H125552   6.711   6.091  13.985  2.1746  0.0818 -1.0786
 1379TIP3    H225553   6.671   6.006  13.867  0.2310 -0.8973  0.2234
 1380TIP3   OH225554   2.937   5.990  15.616 -0.2851  0.3156 -0.0446
 1380TIP3    H125555   2.947   6.054  15.687 -0.8489  1.6975 -1.1587
 1380TIP3    H225556   3.003   6.015  15.551 -0.5528 -0.1992 -0.5252
 1381TIP3   OH225557   2.456   5.378   2.700  0.4378  0.2513 -0.0181
 1381TIP3    H125558   2.526   5.339   2.752  0.7434  1.7912  0.7824
 1381TIP3    H225559   2.500   5.433   2.636 -0.0073  0.8035  0.1365
 1382TIP3   OH225560   3.647   2.831  12.587 -0.4986  0.4351 -0.2933
 1382TIP3    H125561   3.576   2.825  12.651 -0.6331  1.4755 -0.3293
 1382TIP3    H225562   3.629   2.912  12.539  0.9154  0.8987 -0.0736
 1383TIP3   OH225563   5.155   3.276   3.304 -0.3587 -0.0148 -0.0597
 1383TIP3    H125564   5.111   3.225   3.372  1.5845  0.8876  1.9996
 1383TIP3    H225565   5.103   3.356   3.296 -0.8534 -0.3248  0.0472
 1384TIP3   OH225566   3.373   3.110   1.793 -0.3910  0.0609  0.0199
 1384TIP3    H125567   3.316   3.183   1.820 -0.4903 -0.6153  1.7561
 1384TIP3    H225568   3.448   3.116   1.851 -0.4800 -1.3160  0.3045
 1385TIP3   OH225569   5.059   3.460  12.023  0.1584 -0.4853  0.2254
 1385TIP3    H125570   5.022   3.470  11.936 -0.7302 -1.5334  0.4692
 1385TIP3    H225571   5.147   3.426  12.008 -0.1243 -1.0232 -0.2573
 1386TIP3   OH225572   5.858   0.030  15.109 -0.0477  0.3719  0.5350
 1386TIP3    H125573   5.883   0.097  15.046 -0.2954  1.7153  1.7950
 1386TIP3    H225574   5.851  -0.050  15.058  0.7174  1.2071 -0.9437
 1387TIP3   OH225575   2.487   1.436  16.359  0.2586  0.0554 -0.3807
 1387TIP3    H125576   2.398   1.462  16.381 -0.1512 -2.0717  0.7793
 1387TIP3    H225577   2.542   1.492  16.414 -0.4755 -0.0562  0.5027
 1388TIP3   OH225578   0.945   0.622  12.064 -0.5175 -0.4044 -0.2636
 1388TIP3    H125579   0.973   0.678  11.992  2.2448 -1.2522  0.0371
 1388TIP3    H225580   1.017   0.625  12.127 -1.7206 -1.7172  1.2856
 1389TIP3   OH225581   5.581   1.350  14.619  0.1168  0.3141 -1.0155
 1389TIP3    H125582   5.625   1.366  14.702 -0.8587 -1.9664  0.0254
 1389TIP3    H225583   5.501   1.403  14.624  0.0446  0.1599 -0.4753
 1390TIP3   OH225584   1.027   3.640  16.770  0.4685 -0.0878  0.2107
 1390TIP3    H125585   1.060   3.693  16.698 -3.0756  0.4918 -1.1795
 1390TIP3    H225586   1.106   3.612  16.817  2.7098  3.1982 -1.2052
 1391TIP3   OH225587   4.434   3.556   5.598 -0.0427 -0.5851  0.6650
 1391TIP3    H125588   4.343   3.584   5.585  0.4604  0.1107 -1.9349
 1391TIP3    H225589   4.461   3.523   5.512  2.0207 -1.2782  1.5244
 1392TIP3   OH225590   6.657   1.093   0.003 -0.2451  0.0665 -0.2822
 1392TIP3    H125591   6.676   1.005  -0.030  0.6074  0.3180 -0.4856
 1392TIP3    H225592   6.743   1.131   0.023 -0.5423  1.1075 -0.8651
 1393TIP3   OH225593   3.878   5.774   4.747 -0.0769  0.1262  0.1481
 1393TIP3    H125594   3.891   5.732   4.831 -1.2285  0.3780  0.4728
 1393TIP3    H225595   3.809   5.839   4.763  0.6813  1.1707 -0.6517
 1394TIP3   OH225596   3.508   3.973  16.758 -0.1291  0.2943 -0.9121
 1394TIP3    H125597   3.483   3.892  16.803 -0.6116  0.0340 -1.6322
 1394TIP3    H225598   3.603   3.967  16.750  0.0691  0.7042  0.7344
 1395TIP3   OH225599   0.106   2.223  12.320 -0.6727  0.0468  0.3799
 1395TIP3    H125600   0.111   2.281  12.396 -0.0992 -0.2564  0.5726
 1395TIP3    H225601   0.084   2.137  12.357 -0.6932 -0.0365  0.1728
 1396TIP3   OH225602   3.692   2.938   0.895 -0.3436 -0.2354  0.0160
 1396TIP3    H125603   3.752   3.011   0.911  1.8396 -1.7442 -0.8065
 1396TIP3    H225604   3.611   2.964   0.937  0.6305  2.2616  0.5233
 1397TIP3   OH225605   0.310   0.389   4.210  0.3626 -0.0488  0.2272
 1397TIP3    H125606   0.385   0.437   4.176  0.5508  0.8944  1.8812
 1397TIP3    H225607   0.321   0.300   4.176  1.2686  0.4975 -0.9692
 1398TIP3   OH225608   2.043   4.418  13.729 -0.8125 -0.6036 -0.2585
 1398TIP3    H125609   2.010   4.448  13.645 -1.8593  0.3198  0.4484
 1398TIP3    H225610   2.133   4.391  13.711 -1.1369 -0.7968 -1.7389
 1399TIP3   OH225611   6.124   4.530  16.412 -0.2952  0.0364 -0.2057
 1399TIP3    H125612   6.101   4.533  16.505 -1.3821 -0.1189 -0.4530
 1399TIP3    H225613   6.040   4.534  16.366  0.3212  3.6619 -1.3143
 1400TIP3   OH225614   5.730   4.940  14.576 -0.2477  0.6450 -0.5622
 1400TIP3    H125615   5.788   4.910  14.645 -0.4122 -1.1029 -1.1302
 1400TIP3    H225616   5.749   5.034  14.567  1.3729  0.4248  0.2901
 1401TIP3   OH225617   0.064   5.515  15.247  0.0624  0.4288  0.0519
 1401TIP3    H125618   0.143   5.569  15.254 -0.2034  0.7681  0.5076
 1401TIP3    H225619   0.091   5.429  15.280  0.1990  0.5879  0.3609
 1402TIP3   OH225620   3.303   6.490   0.879  0.1160  0.2256 -0.5182
 1402TIP3    H125621   3.220   6.531   0.902  0.2139  0.4559 -0.5664
 1402TIP3    H225622   3.292   6.398   0.902 -0.9800 -0.2522 -2.6394
 1403TIP3   OH225623   4.693   5.818  15.816  0.4381 -0.3923 -0.0393
 1403TIP3    H125624   4.707   5.832  15.910  0.4401 -1.6870  0.1809
 1403TIP3    H225625   4.727   5.730  15.801  1.5342  0.2443 -1.5082
 1404TIP3   OH225626   2.846   1.800   4.731  0.1004  0.3351 -0.1569
 1404TIP3    H125627   2.892   1.805   4.814 -0.0576 -1.6687  0.1098
 1404TIP3    H225628   2.912   1.772   4.667  0.1525  1.5511 -0.6594
 1405TIP3   OH225629   6.538   4.637  13.422  0.5161  0.0636  0.3383
 1405TIP3    H125630   6.628   4.608  13.409 -0.0059 -1.6448  0.2068
 1405TIP3    H225631   6.492   4.607  13.344 -0.6559 -1.4207  1.5255
 1406TIP3   OH225632   0.750   6.745   0.736 -0.6331 -0.5117 -0.3495
 1406TIP3    H125633   0.799   6.815   0.780 -0.8355  0.0691 -1.0335
 1406TIP3    H225634   0.659   6.760   0.761 -0.5742 -1.1390  0.3030
 1407TIP3   OH225635   4.990   4.270   3.544  0.3863 -0.3350 -0.3105
 1407TIP3    H125636   5.072   4.300   3.582  0.4021  0.7958 -1.1654
 1407TIP3    H225637   4.935   4.349   3.540  0.1996 -0.4995 -2.0755
 1408TIP3   OH225638   2.742   0.790  11.617 -0.2581  0.0880  0.1140
 1408TIP3    H125639   2.654   0.826  11.629 -0.3767 -0.7292  1.8995
 1408TIP3    H225640   2.798   0.867  11.607 -1.1106  0.6237 -0.6224
 1409TIP3   OH225641   0.949   0.397  16.278 -0.2559 -0.1498  0.0986
 1409TIP3    H125642   0.930   0.454  16.203 -1.0235  0.1029  0.4755
 1409TIP3    H225643   0.988   0.319  16.239  2.7407  1.4034 -0.2862
 1410TIP3   OH225644   1.398   0.251  15.569  0.2603 -0.0533  0.2717
 1410TIP3    H125645   1.427   0.338  15.539  0.1324 -0.3740 -0.8070
 1410TIP3    H225646   1.477   0.211  15.605  0.3525  0.4622  0.6493
 1411TIP3   OH225647   3.620   1.678   3.838 -0.3746 -0.1061 -0.0048
 1411TIP3    H125648   3.712   1.652   3.831 -1.0113 -2.0050 -2.7505
 1411TIP3    H225649   3.623   1.773   3.851  1.9525 -0.1588  0.2122
 1412TIP3   OH225650   0.296   4.663  13.592  0.1802  0.3336  0.1478
 1412TIP3    H125651   0.227   4.605  13.560  1.2213  0.3994 -2.4422
 1412TIP3    H225652   0.309   4.637  13.683 -1.6659 -1.2255  0.0192
 1413TIP3   OH225653   4.964   4.573  15.487 -0.4292 -0.0861 -0.3728
 1413TIP3    H125654   5.036   4.565  15.423  0.4384  1.1025  0.4170
 1413TIP3    H225655   4.945   4.482  15.511  1.5455 -0.4245  0.1576
 1414TIP3   OH225656   4.916   1.516  12.350  0.3355 -0.7181  0.2283
 1414TIP3    H125657   4.978   1.527  12.422 -0.6392  0.9294  0.8372
 1414TIP3    H225658   4.955   1.565  12.277  0.2877 -0.6374  0.2586
 1415TIP3   OH225659   1.983   2.799  13.280  0.8287 -0.4996  0.2298
 1415TIP3    H125660   1.998   2.826  13.371  0.4610 -0.4315  0.2711
 1415TIP3    H225661   1.917   2.730  13.286  0.9106 -0.5978  0.0240
 1416TIP3   OH225662   3.851   1.716  15.233  0.6871 -0.0194  0.0049
 1416TIP3    H125663   3.941   1.744  15.245  0.4537  0.5702  0.4624
 1416TIP3    H225664   3.800   1.777  15.287 -0.1479  0.8728 -1.7045
 1417TIP3   OH225665   5.182   4.080  11.220  0.4343 -0.4629 -0.4674
 1417TIP3    H125666   5.120   4.028  11.170  0.9495 -0.0776 -1.5229
 1417TIP3    H225667   5.255   4.096  11.160  0.6900  0.7076  0.1236
 1418TIP3   OH225668   5.434   4.617  16.171 -0.4046  0.5334  0.1058
 1418TIP3    H125669   5.453   4.541  16.226 -0.5357  1.3659  1.3368
 1418TIP3    H225670   5.431   4.582  16.082 -0.3639 -0.8786  0.6377
 1419TIP3   OH225671   3.858   2.092   2.105  0.1309 -0.4884 -0.3201
 1419TIP3    H125672   3.814   2.132   2.180  1.1936 -0.8018  0.4892
 1419TIP3    H225673   3.869   2.165   2.043  0.3336  0.0448  0.3314
 1420TIP3   OH225674   6.229   4.358   0.695 -0.1672 -0.5470  0.5583
 1420TIP3    H125675   6.302   4.383   0.750  0.4020  1.8230 -1.1447
 1420TIP3    H225676   6.203   4.438   0.650 -2.1587 -1.8497 -0.8057
 1421TIP3   OH225677   6.680   5.689   3.123  0.7324 -0.0024 -0.5382
 1421TIP3    H125678   6.626   5.709   3.046 -1.2503  0.4410  0.8875
 1421TIP3    H225679   6.684   5.771   3.171 -0.3204 -0.8705  1.1280
 1422TIP3   OH225680   2.898   4.127  13.186 -0.4692 -0.5683 -0.5395
 1422TIP3    H125681   2.912   4.056  13.123  1.0489 -0.7590 -0.0453
 1422TIP3    H225682   2.957   4.196  13.156  1.2897 -1.1451  1.3287
 1423TIP3   OH225683   0.572   1.285   5.618  0.4705  0.4405  0.4534
 1423TIP3    H125684   0.584   1.364   5.671 -0.5276  0.1276  1.1727
 1423TIP3    H225685   0.484   1.292   5.583  0.4976 -0.1878  0.2412
 1424TIP3   OH225686   3.388   0.965   1.590  0.3950  0.0320  0.1860
 1424TIP3    H125687   3.371   0.880   1.629 -1.3102  0.7190  1.0366
 1424TIP3    H225688   3.483   0.976   1.594  0.7321 -2.1421 -0.6756
 1425TIP3   OH225689   3.035   5.556  12.527  0.7386 -0.2452  0.1071
 1425TIP3    H125690   3.062   5.511  12.608  1.1951 -0.1784 -0.0092
 1425TIP3    H225691   3.010   5.485  12.468 -2.1218 -0.2578  1.1586
 1426TIP3   OH225692   5.594   5.395   3.279  0.4703  0.6428  0.0063
 1426TIP3    H125693   5.530   5.351   3.335 -1.1237  1.0194 -1.4464
 1426TIP3    H225694   5.624   5.469   3.332  0.6759 -0.2581  1.1915
 1427TIP3   OH225695   3.930   4.411  16.379 -0.0671 -0.6787  0.2535
 1427TIP3    H125696   3.952   4.359  16.456  1.8973 -1.0140 -0.4810
 1427TIP3    H225697   4.014   4.428  16.336 -0.9494  0.8396 -0.9754
 1428TIP3   OH225698   5.836   3.978  14.708  0.1642 -0.1487 -0.0234
 1428TIP3    H125699   5.785   4.059  14.707 -0.9186 -0.8167 -0.1108
 1428TIP3    H225700   5.807   3.931  14.630  0.5244 -0.7835  0.2219
 1429TIP3   OH225701   2.746   0.039   0.931  0.5640  0.2899  0.4760
 1429TIP3    H125702   2.663   0.080   0.909  0.7986  2.5793  3.3122
 1429TIP3    H225703   2.725  -0.054   0.942 -1.8135  0.9072  1.8363
 1430TIP3   OH225704   0.610   2.337   5.402  0.0411  0.0034  0.3578
 1430TIP3    H125705   0.648   2.410   5.352  0.3697  0.8899  1.8567
 1430TIP3    H225706   0.588   2.374   5.487  0.2305 -1.6663  1.1805
 1431TIP3   OH225707   6.433   1.555  12.518 -0.8172  0.0038 -0.1889
 1431TIP3    H125708   6.376   1.479  12.531 -0.7184 -0.1659 -0.7641
 1431TIP3    H225709   6.516   1.528  12.556 -0.1825 -0.9281 -2.1073
 1432TIP3   OH225710   0.958   6.439  11.523  0.4717 -0.4504  0.1790
 1432TIP3    H125711   0.954   6.507  11.590 -1.8190 -0.0404 -0.2992
 1432TIP3    H225712   0.958   6.488  11.440 -2.2302 -0.9270 -0.2009
 1433TIP3   OH225713   0.232   1.244   0.761  0.1359 -0.4379  0.1255
 1433TIP3    H125714   0.261   1.240   0.852 -0.2772 -3.2393  0.2122
 1433TIP3    H225715   0.293   1.306   0.720  0.4264  0.7781  2.2147
 1434TIP3   OH225716   5.020   4.671  12.412 -0.3234 -0.3242  0.0585
 1434TIP3    H125717   5.094   4.732  12.419 -0.9696  0.5466 -0.5176
 1434TIP3    H225718   4.946   4.719  12.448 -1.3106  0.0885 -2.3024
 1435TIP3   OH225719   3.184   5.177  11.474  0.1228 -0.0828 -0.4780
 1435TIP3    H125720   3.158   5.192  11.383  1.3840  1.1558 -0.6675
 1435TIP3    H225721   3.103   5.152  11.518 -0.8302  0.8870 -1.6020
 1436TIP3   OH225722   1.757   5.386   6.142 -0.2199 -0.1763  0.0604
 1436TIP3    H125723   1.784   5.296   6.158 -0.2073 -0.6914 -2.4614
 1436TIP3    H225724   1.662   5.380   6.128 -0.1083  0.0862 -0.8220
 1437TIP3   OH225725   6.335   2.000   0.667  0.1476 -0.4019 -0.2599
 1437TIP3    H125726   6.287   2.072   0.708  0.3815  0.3024 -1.1884
 1437TIP3    H225727   6.365   2.035   0.583  3.0862 -0.4546  0.6318
 1438TIP3   OH225728   0.051   4.207  14.179 -0.5399 -0.0327 -0.1718
 1438TIP3    H125729   0.045   4.114  14.203 -0.2114 -0.2040 -0.7422
 1438TIP3    H225730  -0.035   4.243  14.201 -0.3065 -0.2181  1.1071
 1439TIP3   OH225731   6.063   1.681   3.535 -0.2060 -0.3696 -0.2234
 1439TIP3    H125732   6.036   1.773   3.543 -0.0383 -0.4824  2.7064
 1439TIP3    H225733   6.159   1.685   3.531 -0.2273 -0.4021 -0.8601
 1440TIP3   OH225734   4.424   6.468   2.758 -0.0146 -0.2992 -0.0392
 1440TIP3    H125735   4.501   6.523   2.745 -2.5904  3.6251 -0.4505
 1440TIP3    H225736   4.415   6.461   2.853  0.4823 -0.2758  0.0107
 1441TIP3   OH225737   3.721   4.645   5.082 -0.3082  0.4917 -0.3286
 1441TIP3    H125738   3.673   4.563   5.071  0.8722 -0.5105  1.4403
 1441TIP3    H225739   3.744   4.672   4.993 -1.3514 -0.7078 -0.9862
 1442TIP3   OH225740   4.339   2.075   2.975  0.5165  0.3933  0.2863
 1442TIP3    H125741   4.257   2.028   2.990  0.8754 -0.4289 -0.2653
 1442TIP3    H225742   4.342   2.090   2.881  1.7545 -1.0443  0.0571
 1443TIP3   OH225743   1.618   0.234  10.561 -0.2693 -0.3354  0.1225
 1443TIP3    H125744   1.535   0.205  10.599 -1.0191  3.1334  1.5257
 1443TIP3    H225745   1.681   0.227  10.632 -0.4456  1.1458  0.4647
 1444TIP3   OH225746   3.844   6.142   5.380 -0.1394  0.4096  0.0213
 1444TIP3    H125747   3.795   6.079   5.327 -0.3427 -0.6641  1.4456
 1444TIP3    H225748   3.778   6.182   5.436 -0.1772  2.6148 -1.4533
 1445TIP3   OH225749   4.071   5.690  14.059  0.0491  0.7211 -0.2381
 1445TIP3    H125750   3.982   5.712  14.086 -0.4831  0.7974 -1.9488
 1445TIP3    H225751   4.068   5.687  13.964  1.7133 -0.0218 -0.3167
 1446TIP3   OH225752   1.956   2.444  13.658  0.5906 -0.0435 -0.1473
 1446TIP3    H125753   1.897   2.379  13.621  0.5930  0.2019 -0.5976
 1446TIP3    H225754   1.961   2.423  13.751  1.4020 -1.3220 -0.4615
 1447TIP3   OH225755   2.949   4.213   0.274 -0.1737 -0.5138  0.6720
 1447TIP3    H125756   2.982   4.222   0.364  0.0569  2.3218  0.4087
 1447TIP3    H225757   2.858   4.242   0.279 -0.3170 -0.8531  0.0810
 1448TIP3   OH225758   0.652   3.584  13.245 -0.1459 -0.3603 -0.0564
 1448TIP3    H125759   0.709   3.517  13.283  2.1178  0.8034 -1.2453
 1448TIP3    H225760   0.563   3.552  13.263  0.8365 -2.6500  1.1566
 1449TIP3   OH225761   2.576   4.273   0.017 -0.4090  0.2106 -0.0649
 1449TIP3    H125762   2.533   4.353  -0.012  0.2400  1.1839  1.5249
 1449TIP3    H225763   2.584   4.220  -0.062 -1.9020  1.2032 -0.9385
 1450TIP3   OH225764   0.683   6.663  16.499  0.3503 -0.0392 -0.0701
 1450TIP3    H125765   0.654   6.672  16.590 -1.9834 -2.4786 -0.4327
 1450TIP3    H225766   0.712   6.572  16.492 -1.9768 -0.7467 -2.2645
 1451TIP3   OH225767   4.727   4.971  12.051 -0.0945 -0.1425 -0.8302
 1451TIP3    H125768   4.670   4.894  12.047 -1.5869  0.9150 -0.6597
 1451TIP3    H225769   4.804   4.946  12.000  0.5823 -2.6071  1.1905
 1452TIP3   OH225770   0.745   0.338   4.926 -0.4221  0.9119 -0.0669
 1452TIP3    H125771   0.814   0.403   4.941 -0.8050  1.3447 -0.1529
 1452TIP3    H225772   0.792   0.256   4.914  0.0083  0.8107  1.9205
 1453TIP3   OH225773   4.255   4.837   4.813  0.0745  0.3814 -0.0659
 1453TIP3    H125774   4.214   4.799   4.735  1.0955  0.2939 -0.5729
 1453TIP3    H225775   4.228   4.929   4.811 -1.7193 -0.0741  0.7129
 1454TIP3   OH225776   5.649   3.929  13.576  0.1468  0.2375  0.3633
 1454TIP3    H125777   5.639   3.951  13.483 -0.4529 -0.4560  0.2454
 1454TIP3    H225778   5.693   4.004  13.614  1.9990 -0.1713 -0.8112
 1455TIP3   OH225779   0.242   2.970   3.547  0.5283  0.3877 -0.2371
 1455TIP3    H125780   0.296   3.045   3.521  2.1339 -0.5848  0.1550
 1455TIP3    H225781   0.163   3.009   3.584  0.4739  1.8544 -1.7579
 1456TIP3   OH225782   3.387   0.096   1.898  0.6296 -0.7159  0.1595
 1456TIP3    H125783   3.336   0.072   1.977  0.2891  1.1722  0.5602
 1456TIP3    H225784   3.477   0.074   1.921  0.6520  0.5330  1.4285
 1457TIP3   OH225785   6.441   5.607   1.666 -0.0412  0.0469 -0.1292
 1457TIP3    H125786   6.397   5.640   1.744  0.7963 -1.9315  1.2445
 1457TIP3    H225787   6.380   5.627   1.594 -1.1279  1.3244  1.0881
 1458TIP3   OH225788   1.569   6.393   3.520 -0.0348  0.2599  0.3362
 1458TIP3    H125789   1.565   6.435   3.606  0.1604 -1.0981  1.0364
 1458TIP3    H225790   1.601   6.304   3.538 -1.1838 -0.4644 -0.9821
 1459TIP3   OH225791   4.521   5.899  10.542 -0.4364  0.3553 -0.1008
 1459TIP3    H125792   4.555   5.894  10.631  1.3752  1.0457 -0.7133
 1459TIP3    H225793   4.510   5.807  10.516  0.0887  0.1342  0.4333
 1460TIP3   OH225794   3.411   4.867   1.431 -0.7187 -0.2065 -0.0578
 1460TIP3    H125795   3.467   4.886   1.357  0.1824  2.6273  1.2427
 1460TIP3    H225796   3.326   4.847   1.392 -0.6336  2.5261 -1.8846
 1461TIP3   OH225797   1.459   4.686   4.218  0.0007  0.8752 -0.0012
 1461TIP3    H125798   1.379   4.633   4.223  0.5010  0.1877  1.2993
 1461TIP3    H225799   1.488   4.677   4.127  0.4893 -1.7787  0.3288
 1462TIP3   OH225800   4.191   4.174   0.704  0.7183 -0.1964  0.4223
 1462TIP3    H125801   4.139   4.118   0.647 -0.6746  1.4935 -0.0366
 1462TIP3    H225802   4.232   4.113   0.766  1.7391 -2.0211 -1.8930
 1463TIP3   OH225803   6.250   3.404   1.981  0.0861  0.0792 -0.2233
 1463TIP3    H125804   6.286   3.479   1.933 -1.2589  0.7841 -0.1820
 1463TIP3    H225805   6.326   3.359   2.016  0.9423  1.2641 -0.5051
 1464TIP3   OH225806   1.645   6.458  13.373 -0.1515 -0.1785 -0.0787
 1464TIP3    H125807   1.659   6.503  13.290 -0.8888 -1.0782 -0.7020
 1464TIP3    H225808   1.579   6.511  13.417  0.8178  0.7582  0.3193
 1465TIP3   OH225809   4.440   0.296  12.412  0.4569  0.1550  0.4514
 1465TIP3    H125810   4.442   0.319  12.505 -3.1583 -0.2605  0.7727
 1465TIP3    H225811   4.454   0.380  12.367  0.9755  0.5762  1.3521
 1466TIP3   OH225812   0.261   2.473  11.983 -0.3360  0.3586  0.3258
 1466TIP3    H125813   0.182   2.503  12.028 -0.3836  0.1980  0.3502
 1466TIP3    H225814   0.232   2.453  11.894 -0.9762 -2.5012  1.0811
 1467TIP3   OH225815   2.130   2.726   1.256  0.5478 -0.3980  0.8664
 1467TIP3    H125816   2.174   2.730   1.171 -0.5426 -0.3060  0.2764
 1467TIP3    H225817   2.114   2.633   1.270  1.2020 -0.4560  1.2277
 1468TIP3   OH225818   0.608   1.541   4.242  0.6089  0.3309  0.3481
 1468TIP3    H125819   0.640   1.451   4.229 -0.7513 -0.1552  0.1954
 1468TIP3    H225820   0.530   1.547   4.186 -2.1797 -0.0313  3.8070
 1469TIP3   OH225821   0.552   5.375   4.784 -0.0492  0.4177  0.4321
 1469TIP3    H125822   0.502   5.430   4.724  1.0361  0.9915  0.0152
 1469TIP3    H225823   0.493   5.359   4.858 -0.2373  2.5440  0.8008
 1470TIP3   OH225824   5.149   0.751   3.865  0.0560  0.2956 -0.5802
 1470TIP3    H125825   5.107   0.685   3.810  0.4609  1.0893 -1.8883
 1470TIP3    H225826   5.242   0.730   3.862  0.1167  0.5391 -0.4745
 1471TIP3   OH225827   4.788   5.123  10.083 -0.2287  0.0499  0.1879
 1471TIP3    H125828   4.840   5.051  10.048 -1.2299 -0.9101  0.6275
 1471TIP3    H225829   4.836   5.151  10.161  0.1307 -0.1690  0.0500
 1472TIP3   OH225830   5.993   2.158  15.256  0.3139  0.1067 -0.1951
 1472TIP3    H125831   5.901   2.182  15.244  0.2932  0.4256  0.5594
 1472TIP3    H225832   6.028   2.225  15.315  1.3872  0.7685 -1.5531
 1473TIP3   OH225833   1.137   6.303   4.706 -0.0764  0.0241  0.6686
 1473TIP3    H125834   1.116   6.211   4.693  1.0275 -0.1945  0.3439
 1473TIP3    H225835   1.054   6.349   4.696 -0.0803 -0.5248 -3.1720
 1474TIP3   OH225836   1.275   2.595  14.820  0.2369 -0.0779  0.1113
 1474TIP3    H125837   1.298   2.678  14.861  0.2913 -0.4382  0.8304
 1474TIP3    H225838   1.188   2.574  14.856  0.0421 -0.1349 -0.3823
 1475TIP3   OH225839   0.262   3.694  12.092 -0.1533 -0.7911 -0.5179
 1475TIP3    H125840   0.325   3.759  12.061 -0.3662 -1.0516 -1.5457
 1475TIP3    H225841   0.180   3.742  12.098  0.0197 -0.5849  0.2886
 1476TIP3   OH225842   2.708   6.321  10.077 -0.0888 -0.0838  0.3405
 1476TIP3    H125843   2.763   6.399  10.066 -0.6511  0.3601  0.6539
 1476TIP3    H225844   2.638   6.332  10.013 -0.9946  0.4139  1.3808
 1477TIP3   OH225845   5.515   0.762  13.788 -0.7808  0.4476  0.1212
 1477TIP3    H125846   5.488   0.805  13.869  0.0588 -0.7744  1.0878
 1477TIP3    H225847   5.580   0.697  13.816 -1.9785 -1.4429 -1.2654
 1478TIP3   OH225848   4.340   6.239   4.037 -0.3945 -0.2382 -0.0971
 1478TIP3    H125849   4.268   6.183   4.010 -0.1170 -0.3681 -0.5837
 1478TIP3    H225850   4.415   6.209   3.986 -0.0507  0.0557  0.2187
 1479TIP3   OH225851   4.476   6.540  13.697 -0.0214  0.9768  0.2854
 1479TIP3    H125852   4.406   6.518  13.636 -0.0362 -1.6031  1.1185
 1479TIP3    H225853   4.556   6.540  13.643 -0.0387 -1.2249  0.1509
 1480TIP3   OH225854   2.125   1.204  14.805 -0.5542 -0.5026  0.4634
 1480TIP3    H125855   2.101   1.189  14.714 -0.8074  0.6060  0.3357
 1480TIP3    H225856   2.047   1.243  14.845  0.3557  1.3795  0.5126
 1481TIP3   OH225857   3.925   0.896  12.482  0.1892  0.0362 -0.0223
 1481TIP3    H125858   4.011   0.885  12.442  0.6796 -0.3306  1.0972
 1481TIP3    H225859   3.863   0.875  12.412  1.0020  0.4043 -0.8683
 1482TIP3   OH225860   5.605   5.142  11.672  0.3608  0.3532  0.2429
 1482TIP3    H125861   5.648   5.138  11.587 -1.6521  1.5227 -0.9285
 1482TIP3    H225862   5.643   5.219  11.715  0.4003  0.5742 -0.1865
 1483TIP3   OH225863   5.496   5.443  16.228 -0.7456  0.2009  0.5678
 1483TIP3    H125864   5.559   5.454  16.299 -1.4526 -2.7101  1.8047
 1483TIP3    H225865   5.418   5.490  16.257 -0.0528  1.6379  0.2148
 1484TIP3   OH225866   0.928   3.792  15.104  0.7024 -0.4031 -0.6956
 1484TIP3    H125867   1.015   3.760  15.079  1.3963  1.9776 -1.5242
 1484TIP3    H225868   0.870   3.760  15.035  1.0004 -1.4891 -0.4648
 1485TIP3   OH225869   5.593   2.315   3.347 -0.7207 -0.2655 -0.0757
 1485TIP3    H125870   5.581   2.231   3.392  0.1274 -0.4376 -0.1653
 1485TIP3    H225871   5.667   2.301   3.289 -0.3637  0.6444  0.1471
 1486TIP3   OH225872   1.257   4.867  14.675  0.4381  0.6455 -0.0513
 1486TIP3    H125873   1.221   4.931  14.613 -3.8546  0.0799  1.5224
 1486TIP3    H225874   1.234   4.900  14.761  1.9367 -0.9605  1.0467
 1487TIP3   OH225875   5.000   3.331   5.611 -0.2581 -0.2064 -0.2111
 1487TIP3    H125876   4.959   3.329   5.698  0.8529  0.1291  0.3346
 1487TIP3    H225877   5.065   3.400   5.617  1.2205 -1.5071 -0.6685
 1488TIP3   OH225878   6.118   5.081   0.678  0.0626  0.2816 -0.6769
 1488TIP3    H125879   6.099   5.174   0.671 -0.3360  0.2588  0.0520
 1488TIP3    H225880   6.141   5.068   0.770  0.9037 -0.1971 -0.9430
 1489TIP3   OH225881   0.930   6.574  16.699 -0.0703  0.1042 -0.4379
 1489TIP3    H125882   0.969   6.541  16.780  1.2050  2.8084  0.1726
 1489TIP3    H225883   0.838   6.591  16.721  0.6358  2.4625  1.1111
 1490TIP3   OH225884   6.768   2.702   3.855  0.0599  0.3957 -0.3551
 1490TIP3    H125885   6.826   2.749   3.915 -0.1603 -1.4046  1.3674
 1490TIP3    H225886   6.733   2.629   3.907 -1.7170 -0.0986 -2.1058
 1491TIP3   OH225887   3.950   0.028  13.931  0.3035 -0.0462  0.5122
 1491TIP3    H125888   3.978  -0.048  13.983  2.5744  1.5490  1.8183
 1491TIP3    H225889   3.893  -0.008  13.864  1.6452 -2.9811  0.8026
 1492TIP3   OH225890   5.693   4.387   0.746  0.4683  0.1318 -0.4737
 1492TIP3    H125891   5.687   4.320   0.678  1.1333 -0.5714  0.1408
 1492TIP3    H225892   5.620   4.367   0.805  0.2429  0.3883 -0.6600
 1493TIP3   OH225893   3.322   2.073   2.987  0.0868  0.5599  0.2705
 1493TIP3    H125894   3.354   1.993   3.029 -0.6491 -0.6028 -1.2953
 1493TIP3    H225895   3.329   2.055   2.894  2.2304  3.2818 -0.2271
 1494TIP3   OH225896   1.045   5.026  11.818 -0.0738  0.4208  0.1889
 1494TIP3    H125897   1.035   4.995  11.908 -4.1927 -0.5827 -0.4026
 1494TIP3    H225898   1.032   4.947  11.764  1.4749  1.1384 -1.3405
 1495TIP3   OH225899   2.128   3.514  12.700 -0.1816 -0.4072  0.1907
 1495TIP3    H125900   2.205   3.462  12.724 -1.0336 -1.3243  1.0257
 1495TIP3    H225901   2.057   3.476  12.751 -1.1506  0.5797 -0.3894
 1496TIP3   OH225902   3.910   1.691   3.903 -0.6130 -0.2534  0.4698
 1496TIP3    H125903   3.878   1.653   3.985  0.4976 -0.1713  0.9502
 1496TIP3    H225904   3.923   1.784   3.923 -0.6906 -0.1576  0.0883
 1497TIP3   OH225905   6.077   5.119   1.929  0.2925 -0.1029 -0.2965
 1497TIP3    H125906   6.168   5.143   1.947  0.2606 -1.3162  1.8053
 1497TIP3    H225907   6.041   5.097   2.014 -1.6421 -0.8170 -1.2462
 1498TIP3   OH225908   4.206   1.762   1.270  0.7505 -0.0327  0.5664
 1498TIP3    H125909   4.135   1.813   1.230  1.4642  0.1100 -0.5607
 1498TIP3    H225910   4.161   1.706   1.334 -0.3748  0.1168 -0.0529
 1499TIP3   OH225911   5.339   0.063   3.834 -0.4812  0.1387  0.1208
 1499TIP3    H125912   5.374   0.006   3.766 -0.1556 -0.8561  1.0858
 1499TIP3    H225913   5.411   0.073   3.897 -1.6442 -1.3857  1.8027
 1500TIP3   OH225914   3.539   3.834   5.563 -0.0394 -0.2150 -0.3948
 1500TIP3    H125915   3.542   3.923   5.599 -1.5046 -0.2591 -0.1370
 1500TIP3    H225916   3.597   3.838   5.487  2.3705  0.1256  1.3345
 1501TIP3   OH225917   6.753   4.329   2.088 -0.1567  0.7295 -0.2895
 1501TIP3    H125918   6.698   4.253   2.107  1.9639 -0.8656 -0.1408
 1501TIP3    H225919   6.793   4.351   2.172 -0.8809  2.1732 -0.2965
 1502TIP3   OH225920   3.936   0.502   0.917 -0.0162  0.1794 -0.3306
 1502TIP3    H125921   3.893   0.480   0.999  0.8445 -3.1251 -0.6225
 1502TIP3    H225922   3.958   0.417   0.877  1.9091  1.6509 -2.7358
 1503TIP3   OH225923   0.091   1.216   3.516 -0.1772  0.0585  0.6685
 1503TIP3    H125924   0.167   1.268   3.540 -0.2726  1.1119 -1.1657
 1503TIP3    H225925   0.097   1.207   3.421 -2.5034  0.4608  0.4256
 1504TIP3   OH225926   4.375   5.076   1.567 -0.3761  0.2079  0.2540
 1504TIP3    H125927   4.404   5.081   1.658  0.1400  2.4294  0.0287
 1504TIP3    H225928   4.293   5.124   1.565 -0.3639  0.2068 -0.4629
 1505TIP3   OH225929   0.117   4.418   0.099  0.1355  0.1549  0.5316
 1505TIP3    H125930   0.124   4.481   0.027  0.6500  0.8749  1.2034
 1505TIP3    H225931   0.204   4.418   0.139  1.1617 -3.2080 -1.2670
 1506TIP3   OH225932   6.135   3.580  15.334  0.2622 -1.0127  0.7498
 1506TIP3    H125933   6.205   3.522  15.304 -0.1092 -0.7813 -0.6272
 1506TIP3    H225934   6.176   3.633  15.403  0.7079 -2.6111  1.7658
 1507TIP3   OH225935   5.623   4.644   0.706 -0.0531 -0.0227 -0.2298
 1507TIP3    H125936   5.655   4.554   0.699  1.7819  0.4987  0.9511
 1507TIP3    H225937   5.620   4.662   0.800  0.4521  1.4248 -0.4670
 1508TIP3   OH225938   0.506   5.899  15.517 -0.0021  0.6705  0.0524
 1508TIP3    H125939   0.443   5.953  15.470 -0.2481  0.1121 -0.2785
 1508TIP3    H225940   0.481   5.906  15.609 -0.5945  0.4061 -0.0819
 1509TIP3   OH225941   5.678   3.929   4.607  0.0833 -0.4642 -0.6869
 1509TIP3    H125942   5.767   3.904   4.629 -0.4761 -1.5862  0.4007
 1509TIP3    H225943   5.626   3.850   4.620 -1.3202  0.5487  0.1865
 1510TIP3   OH225944   0.417   4.199   1.000  0.5701 -0.6567  0.3484
 1510TIP3    H125945   0.457   4.256   1.065 -0.1687  0.1326  0.1382
 1510TIP3    H225946   0.323   4.204   1.019  0.0769  1.2430 -1.9811
 1511TIP3   OH225947   3.745   2.643   0.847 -0.4698 -0.4323  0.4205
 1511TIP3    H125948   3.659   2.644   0.805  0.2470 -0.6389 -1.1268
 1511TIP3    H225949   3.763   2.735   0.869 -0.1855 -0.0546 -1.2500
 1512TIP3   OH225950   3.177   2.421   0.569 -0.2297  0.0414  0.4619
 1512TIP3    H125951   3.227   2.351   0.610  0.5035  0.4019  0.2093
 1512TIP3    H225952   3.135   2.380   0.493 -0.6011 -0.3429  0.8694
 1513TIP3   OH225953   6.114   5.967  14.415  0.6025 -0.5287  0.1086
 1513TIP3    H125954   6.191   5.933  14.370  0.5106 -0.0551 -0.4081
 1513TIP3    H225955   6.074   5.890  14.456  1.2838 -0.7907  0.2869
 1514TIP3   OH225956   5.210   4.116  14.913 -0.3204 -0.7365 -0.3645
 1514TIP3    H125957   5.255   4.117  14.829 -1.0687  0.7429 -0.7816
 1514TIP3    H225958   5.247   4.189  14.962  0.4451 -1.8736  0.8050
 1515TIP3   OH225959   1.648   0.845  12.820 -0.3722  0.4292  0.1757
 1515TIP3    H125960   1.737   0.866  12.850 -0.6123  2.5032 -0.4161
 1515TIP3    H225961   1.661   0.799  12.737  0.1684 -0.2019  0.6060
 1516TIP3   OH225962   0.882   1.711   0.398  0.7777 -0.3558 -0.2930
 1516TIP3    H125963   0.815   1.672   0.342  0.7901  1.2034 -1.4573
 1516TIP3    H225964   0.863   1.677   0.485 -1.6596  0.1348 -0.5540
 1517TIP3   OH225965   1.574   5.610   1.635 -0.2051  0.5915 -0.4947
 1517TIP3    H125966   1.579   5.577   1.725 -1.0254  1.6322 -0.0537
 1517TIP3    H225967   1.603   5.536   1.581  0.6703  0.0866  0.6431
 1518TIP3   OH225968   5.654   5.507  13.179 -0.2704 -0.2777  0.4340
 1518TIP3    H125969   5.664   5.437  13.114  1.2993  1.2004 -1.0203
 1518TIP3    H225970   5.645   5.587  13.127  2.7251  1.2005  1.9242
 1519TIP3   OH225971   6.684   2.479  13.088  0.5049  0.2566  0.0550
 1519TIP3    H125972   6.756   2.456  13.147 -0.8102  1.0514  2.0871
 1519TIP3    H225973   6.611   2.424  13.117  0.1859 -0.3624 -1.8104
 1520TIP3   OH225974   4.785   0.923   0.934  0.4148  0.1679 -0.6919
 1520TIP3    H125975   4.877   0.921   0.961  0.0732  0.9798  0.5789
 1520TIP3    H225976   4.737   0.892   1.010 -0.6178  3.0002 -0.0814
 1521TIP3   OH225977   1.762   1.211  13.796 -0.0359  0.2211  0.2879
 1521TIP3    H125978   1.831   1.277  13.789  0.1816  0.2395  2.0759
 1521TIP3    H225979   1.802   1.131  13.762  0.9685  0.1861  1.4872
 1522TIP3   OH225980   0.663   5.990   3.255  0.0834 -0.0334  0.3417
 1522TIP3    H125981   0.642   5.967   3.164 -0.4534 -0.4623  0.5733
 1522TIP3    H225982   0.742   6.045   3.248  1.5808 -2.1335 -0.2255
 1523TIP3   OH225983   0.755   1.479  13.990 -0.5806  0.0210 -0.1786
 1523TIP3    H125984   0.676   1.531  14.001  0.2711  1.1660  0.7615
 1523TIP3    H225985   0.818   1.539  13.950  1.0685  0.4447  2.7673
 1524TIP3   OH225986   3.970   5.865   1.416 -0.3514  0.7466  0.0104
 1524TIP3    H125987   4.061   5.835   1.417 -0.0558  1.3037 -2.7345
 1524TIP3    H225988   3.977   5.961   1.419 -0.8628  0.7850 -0.0131
 1525TIP3   OH225989   4.687   4.747  11.812  0.0828  0.7974 -0.0007
 1525TIP3    H125990   4.722   4.700  11.737 -0.5297 -2.3984  1.5273
 1525TIP3    H225991   4.635   4.818  11.775  2.3717  1.3451 -2.4296
 1526TIP3   OH225992   1.298   6.558  10.278  0.6266  0.5420  0.7786
 1526TIP3    H125993   1.326   6.591  10.192  2.5028 -1.7469  0.4191
 1526TIP3    H225994   1.367   6.497  10.303 -1.8097 -1.8401  2.1205
 1527TIP3   OH225995   0.520   4.031   4.437  0.1980  0.2871 -0.1711
 1527TIP3    H125996   0.553   4.117   4.410 -0.6189  0.8550  0.5688
 1527TIP3    H225997   0.430   4.028   4.404  0.8413 -1.1240 -1.9142
 1528TIP3   OH225998   6.200   3.748   2.558 -0.5425 -0.2842  0.2489
 1528TIP3    H125999   6.264   3.750   2.487 -1.5090 -0.9966 -0.6557
 1528TIP3    H226000   6.145   3.825   2.543 -1.8203 -1.3546 -0.8260
 1529TIP3   OH226001   6.715   3.611  12.254  0.1173 -0.0135  0.0950
 1529TIP3    H126002   6.641   3.641  12.307 -1.6777 -1.4791 -1.4054
 1529TIP3    H226003   6.746   3.532  12.297  1.0935  0.8012  0.9261
 1530TIP3   OH226004   6.046   0.820  15.206 -0.3503 -0.4911 -0.3021
 1530TIP3    H126005   6.104   0.746  15.188  0.3089  0.0043 -0.2663
 1530TIP3    H226006   6.052   0.833  15.301 -0.8281 -0.6861 -0.2457
 1531TIP3   OH226007   0.335   4.265  14.794  0.0842 -0.0550  0.2161
 1531TIP3    H126008   0.400   4.290  14.860  2.1933  0.6105 -1.9845
 1531TIP3    H226009   0.330   4.169  14.801  1.1118 -0.0956  0.6072
 1532TIP3   OH226010   5.285   6.773   4.813 -0.1817  0.2318  0.4404
 1532TIP3    H126011   5.249   6.685   4.826 -2.8243  1.2130  0.4737
 1532TIP3    H226012   5.305   6.803   4.902 -2.5300  0.8459  0.8337
 1533TIP3   OH226013   6.406   4.901  11.434  0.5169  0.0379 -0.1165
 1533TIP3    H126014   6.386   4.826  11.490  0.7252 -0.8668 -1.2183
 1533TIP3    H226015   6.364   4.975  11.478 -1.1890 -1.0020  0.1266
 1534TIP3   OH226016   1.860   1.136  16.747 -0.5750  0.2237 -0.5041
 1534TIP3    H126017   1.847   1.041  16.738  0.3861  0.1517 -1.3161
 1534TIP3    H226018   1.850   1.153  16.841  1.1060 -1.0074 -0.0462
 1535TIP3   OH226019   2.363   1.059  15.911  0.3042  0.2299  0.5839
 1535TIP3    H126020   2.302   1.125  15.944 -0.5315  0.6578 -1.6270
 1535TIP3    H226021   2.450   1.097  15.926 -0.1094  1.0933  0.8538
 1536TIP3   OH226022   1.784   1.868   2.220 -0.4050  0.0915 -0.1373
 1536TIP3    H126023   1.791   1.850   2.314 -0.6554 -0.4719 -0.2259
 1536TIP3    H226024   1.728   1.945   2.215  1.3682  1.4811  0.2937
 1537TIP3   OH226025   6.547   2.734   6.284  0.2314 -0.2968  0.3687
 1537TIP3    H126026   6.588   2.807   6.329  0.7760  0.6286 -1.5296
 1537TIP3    H226027   6.621   2.687   6.244 -0.2544 -0.8661  0.1300
 1538TIP3   OH226028   3.400   2.045   3.318 -0.0448  0.1153 -0.2218
 1538TIP3    H126029   3.316   2.007   3.342  0.9256 -1.0433  1.5633
 1538TIP3    H226030   3.439   1.982   3.258  0.5053 -0.5397  0.7892
 1539TIP3   OH226031   1.196   5.883  12.327  0.0192  0.5107  0.5541
 1539TIP3    H126032   1.192   5.894  12.422  0.5638 -0.7362  0.7448
 1539TIP3    H226033   1.185   5.788  12.313 -1.0490  0.7850 -0.6888
 1540TIP3   OH226034   4.764   0.703   3.540  0.1234  0.1623 -0.5719
 1540TIP3    H126035   4.752   0.609   3.553 -0.5596  0.2628 -0.4582
 1540TIP3    H226036   4.767   0.714   3.444 -2.5704  0.3296 -0.7165
 1541TIP3   OH226037   5.955   2.946  14.353  0.2183  0.0491 -0.2222
 1541TIP3    H126038   6.000   3.019  14.396 -0.7307  1.0021 -0.8035
 1541TIP3    H226039   5.934   2.978  14.266  0.6047 -1.2655 -0.8227
 1542TIP3   OH226040   0.959   0.375  15.019 -0.1391  0.1210  0.1203
 1542TIP3    H126041   0.943   0.458  15.065 -1.0432  0.1651 -0.2487
 1542TIP3    H226042   1.038   0.340  15.060 -0.1301  0.8357  0.7446
 1543TIP3   OH226043   6.386   3.946   2.785  0.8258  0.3721 -0.4605
 1543TIP3    H126044   6.320   3.899   2.835  2.7876 -2.5870 -0.3711
 1543TIP3    H226045   6.348   4.032   2.769 -2.5128 -0.7627  0.5438
 1544TIP3   OH226046   1.177   2.035   3.972 -0.3567 -0.0532  0.1968
 1544TIP3    H126047   1.229   1.993   4.040  3.7125  0.2386 -2.3950
 1544TIP3    H226048   1.195   2.128   3.982 -2.3642  0.3475  0.5929
 1545TIP3   OH226049   5.102   6.075  16.153  0.7024  0.1911  0.0586
 1545TIP3    H126050   5.061   6.127  16.222 -2.2201  0.2724 -1.5788
 1545TIP3    H226051   5.061   6.105  16.072  1.2492 -2.4581 -1.3275
 1546TIP3   OH226052   6.585   1.881  15.189 -0.6518 -0.0794 -0.1662
 1546TIP3    H126053   6.520   1.874  15.119 -0.8242 -2.4069  0.1395
 1546TIP3    H226054   6.558   1.959  15.238 -3.9832 -1.4996  0.6002
 1547TIP3   OH226055   0.218   5.517   1.609 -0.2260 -0.5564  0.4320
 1547TIP3    H126056   0.237   5.425   1.628  1.1328 -0.0740  1.5430
 1547TIP3    H226057   0.298   5.564   1.632 -1.6535  1.1975  2.2104
 1548TIP3   OH226058   5.747   6.421   4.926 -0.4398 -0.0881 -0.1122
 1548TIP3    H126059   5.790   6.357   4.870 -0.5468 -1.3897  1.2530
 1548TIP3    H226060   5.713   6.371   5.000 -0.8621  1.4853  0.8205
 1549TIP3   OH226061   3.163   5.009  10.350  0.4558  0.2977 -0.3841
 1549TIP3    H126062   3.172   5.089  10.403  1.3698  0.9271 -1.4396
 1549TIP3    H226063   3.236   5.014  10.288  0.3956 -1.2670 -0.6022
 1550TIP3   OH226064   0.639   3.959   1.267  0.2255  0.2167 -0.3416
 1550TIP3    H126065   0.610   3.868   1.275 -0.2575  0.4208  0.3223
 1550TIP3    H226066   0.558   4.010   1.265  0.5037  0.6698 -0.2112
 1551TIP3   OH226067   3.620   4.810   1.204  0.1844  0.1212  0.3873
 1551TIP3    H126068   3.607   4.763   1.122 -1.3031 -0.4904  0.9306
 1551TIP3    H226069   3.711   4.841   1.200  0.2371 -0.1515 -1.3336
 1552TIP3   OH226070   1.854   1.574  13.593  0.1076 -0.2185  0.2200
 1552TIP3    H126071   1.790   1.530  13.537  2.9706 -3.1657 -0.9782
 1552TIP3    H226072   1.868   1.659  13.551  0.6444 -1.5351 -2.4562
 1553TIP3   OH226073   1.576   4.190  13.948 -0.1973 -0.2784 -0.1757
 1553TIP3    H126074   1.644   4.257  13.943 -1.1670  0.8024  0.7014
 1553TIP3    H226075   1.625   4.107  13.945  1.2028  0.4658  0.8150
 1554TIP3   OH226076   1.605   2.702  11.296 -0.1183  0.5336 -0.5510
 1554TIP3    H126077   1.656   2.697  11.215 -0.1869  0.5901 -0.5971
 1554TIP3    H226078   1.572   2.792  11.298  1.4759  1.1407  0.4928
 1555TIP3   OH226079   1.569   6.570   1.943  0.0606 -0.3335 -0.1744
 1555TIP3    H126080   1.550   6.540   2.031  1.2818 -0.6540 -0.0032
 1555TIP3    H226081   1.535   6.659   1.940  0.1573 -0.2639  0.6716
 1556TIP3   OH226082   6.020   3.513  13.177  0.5268  0.0079 -0.4254
 1556TIP3    H126083   5.987   3.560  13.254  0.3205  0.4227 -0.7652
 1556TIP3    H226084   6.021   3.421  13.204  2.1976  0.3152  0.7196
 1557TIP3   OH226085   4.470   1.494   5.235 -0.0606 -0.5772  0.0972
 1557TIP3    H126086   4.533   1.444   5.287 -0.7376  1.4952  3.1416
 1557TIP3    H226087   4.523   1.560   5.191  0.0866  0.4990  1.8183
 1558TIP3   OH226088   1.123   0.608   1.438  0.2663 -0.6313  0.0752
 1558TIP3    H126089   1.047   0.626   1.493  0.8132 -0.7511  0.8899
 1558TIP3    H226090   1.111   0.664   1.362  0.4268  0.9681  1.1665
 1559TIP3   OH226091   2.667   3.502  12.353 -0.1668  0.4019  0.4802
 1559TIP3    H126092   2.656   3.579  12.297  1.8811 -0.7390 -1.5963
 1559TIP3    H226093   2.578   3.482  12.382 -0.8298  3.2455  0.7525
 1560TIP3   OH226094   3.119   6.197   1.346 -0.1515  0.0250  0.0901
 1560TIP3    H126095   3.092   6.241   1.426  0.6729  0.6518  0.0391
 1560TIP3    H226096   3.196   6.145   1.371 -0.8194 -1.0257  0.0409
 1561TIP3   OH226097   0.177   6.648  13.865 -0.4213 -0.0666  0.0394
 1561TIP3    H126098   0.231   6.710  13.817  0.9838 -2.4699 -1.6675
 1561TIP3    H226099   0.087   6.678  13.849  0.1835  1.3566 -0.9175
 1562TIP3   OH226100   0.477   5.952   6.376  0.1369  0.1032  0.0615
 1562TIP3    H126101   0.495   5.900   6.298  0.1947 -0.5059  0.4708
 1562TIP3    H226102   0.555   6.006   6.388  0.0486  0.3380 -0.4054
 1563TIP3   OH226103   3.785   5.148  11.669  0.3031  0.1839  0.3273
 1563TIP3    H126104   3.824   5.197  11.741 -0.5729  2.2587 -0.5524
 1563TIP3    H226105   3.853   5.146  11.602  0.2554  0.3612  0.2759
 1564TIP3   OH226106   2.622   1.555  11.901  0.0521 -0.2065  0.0585
 1564TIP3    H126107   2.713   1.534  11.880  0.2084 -1.6082  1.8277
 1564TIP3    H226108   2.577   1.558  11.817  1.8963  1.5565 -0.9392
 1565TIP3   OH226109   4.411   2.058  17.008  0.2920  0.6030 -0.3575
 1565TIP3    H126110   4.488   2.072  17.064  0.4698 -2.4695  0.3192
 1565TIP3    H226111   4.443   2.002  16.938 -1.0235  0.4902 -0.8916
 1566TIP3   OH226112   4.856   4.796  12.575  0.1663 -0.4068  0.8878
 1566TIP3    H126113   4.835   4.890  12.579 -0.6676 -0.6232  2.1091
 1566TIP3    H226114   4.926   4.785  12.640 -0.3003 -0.7647  1.3331
 1567TIP3   OH226115   2.629   1.808   2.878 -0.2866 -0.2312 -0.1274
 1567TIP3    H126116   2.654   1.888   2.830  1.4709 -0.5503  0.2141
 1567TIP3    H226117   2.543   1.785   2.841 -0.1720  0.9961 -1.2527
 1568TIP3   OH226118   1.894   6.412   3.705  0.3128 -0.1678  0.1603
 1568TIP3    H126119   1.988   6.395   3.702  0.1168 -1.3162  0.1984
 1568TIP3    H226120   1.875   6.456   3.622  0.7585 -0.5823 -0.1654
 1569TIP3   OH226121   5.023   5.269   3.273  0.2205 -0.3065  0.3955
 1569TIP3    H126122   5.046   5.352   3.230  3.0973 -0.9889  0.3889
 1569TIP3    H226123   5.082   5.205   3.233  0.5211 -1.6532  2.8501
 1570TIP3   OH226124   3.300   3.287   1.213  0.2582 -0.2231  0.5862
 1570TIP3    H126125   3.313   3.319   1.124  0.9685 -0.9974  0.3948
 1570TIP3    H226126   3.266   3.198   1.201 -1.5271  0.3361  1.1012
 1571TIP3   OH226127   5.783   1.543   5.001 -0.2362 -0.1670  0.0293
 1571TIP3    H126128   5.850   1.510   5.061  1.1674 -0.5018 -1.6330
 1571TIP3    H226129   5.792   1.489   4.923 -1.6643  0.5737 -0.6932
 1572TIP3   OH226130   0.142   1.700  12.462 -0.1421 -0.4558 -0.3475
 1572TIP3    H126131   0.206   1.644  12.505  0.7336  0.6184 -0.2021
 1572TIP3    H226132   0.088   1.640  12.410 -0.0028 -1.5445  0.7395
 1573TIP3   OH226133   5.317   0.595   3.650 -0.0333  0.9155  0.3698
 1573TIP3    H126134   5.370   0.515   3.650 -0.9376  0.2996  0.4364
 1573TIP3    H226135   5.374   0.661   3.689  1.7397  1.0093 -2.1100
 1574TIP3   OH226136   0.011   5.164   0.052 -0.0825  0.6139  0.1400
 1574TIP3    H126137  -0.051   5.227   0.016 -0.9380 -0.1757  0.1703
 1574TIP3    H226138   0.026   5.193   0.142  0.3632  1.3618 -0.1673
 1575TIP3   OH226139   3.149   5.305   3.770 -0.2557  0.1406 -0.5540
 1575TIP3    H126140   3.236   5.346   3.767  0.2685 -0.6536  1.6817
 1575TIP3    H226141   3.165   5.218   3.808 -1.8249 -0.7125 -1.7434
 1576TIP3   OH226142   4.603   4.838   4.656 -0.7414 -0.3218 -0.2324
 1576TIP3    H126143   4.519   4.837   4.610 -0.7678  0.5411 -0.2213
 1576TIP3    H226144   4.620   4.931   4.672 -0.8122 -0.5946  1.6282
 1577TIP3   OH226145   4.655   0.408   3.562 -0.2597  0.2235 -0.5422
 1577TIP3    H126146   4.656   0.319   3.598 -1.5224  1.0543  1.7810
 1577TIP3    H226147   4.562   0.432   3.561  0.0649  1.5522 -1.0706
 1578TIP3   OH226148   0.725   5.531  11.096  0.3402  0.7123  0.1244
 1578TIP3    H126149   0.643   5.570  11.126  0.8019  1.5324  0.3386
 1578TIP3    H226150   0.789   5.602  11.103  0.6265  0.7347 -2.0822
 1579TIP3   OH226151   1.494   2.471  12.618  0.0126  0.0708  0.0496
 1579TIP3    H126152   1.479   2.459  12.712 -1.5398  0.9553 -0.0451
 1579TIP3    H226153   1.583   2.440  12.604  0.2894 -0.0608  1.8169
 1580TIP3   OH226154   6.686   6.418   2.377 -0.1905 -0.3773 -0.1428
 1580TIP3    H126155   6.657   6.404   2.287  1.8935  0.4373 -1.0193
 1580TIP3    H226156   6.612   6.390   2.431 -1.2634 -1.5055 -2.0706
 1581TIP3   OH226157   5.029   5.143   5.224 -0.0985 -0.2870  0.4620
 1581TIP3    H126158   5.042   5.222   5.171 -0.6738 -1.7751 -2.0748
 1581TIP3    H226159   4.937   5.145   5.248 -0.1398 -0.2541  0.3012
 1582TIP3   OH226160   2.859   1.214  14.317  0.2796 -0.6228 -0.2057
 1582TIP3    H126161   2.850   1.290  14.260 -0.7268  0.4078  1.2467
 1582TIP3    H226162   2.871   1.251  14.405 -0.4571 -2.1259  0.5747
 1583TIP3   OH226163   1.345   3.088   4.707  0.0431  0.0403  0.1713
 1583TIP3    H126164   1.407   3.096   4.779 -0.8376  0.5135  0.8878
 1583TIP3    H226165   1.397   3.109   4.629  1.0558 -0.6766  0.6273
 1584TIP3   OH226166   6.210   3.750  15.530 -0.5915  0.2102 -0.6691
 1584TIP3    H126167   6.209   3.827  15.473  1.3179  0.2805 -0.6939
 1584TIP3    H226168   6.304   3.733  15.545 -0.9706 -1.8307 -0.2934
 1585TIP3   OH226169   1.387   1.826  15.280 -0.4091  0.2431 -0.5598
 1585TIP3    H126170   1.467   1.784  15.248 -1.0411 -0.3741 -1.3833
 1585TIP3    H226171   1.319   1.795  15.221 -1.4442 -0.0933  0.7655
 1586TIP3   OH226172   6.126   0.969   2.233  0.0201  0.0930 -0.1271
 1586TIP3    H126173   6.037   0.948   2.207  0.1446 -0.7338  0.0795
 1586TIP3    H226174   6.174   0.977   2.151 -0.0956 -0.1343 -0.2161
 1587TIP3   OH226175   2.876   6.758   5.640  0.0967 -0.4345  0.4407
 1587TIP3    H126176   2.913   6.689   5.584  1.6631 -0.0674  0.9855
 1587TIP3    H226177   2.842   6.823   5.578  2.5445  0.3693 -0.1528
 1588TIP3   OH226178   5.987   6.022   4.580  0.8296  0.2325  0.2991
 1588TIP3    H126179   5.936   5.952   4.621  1.1978 -1.0287 -1.2742
 1588TIP3    H226180   6.078   6.003   4.605  0.8760  0.4307  0.2823
 1589TIP3   OH226181   6.684   3.455   0.708  0.5565 -0.4788 -0.1534
 1589TIP3    H126182   6.595   3.454   0.674  0.3140  0.7840  0.3687
 1589TIP3    H226183   6.691   3.376   0.761 -0.8374  0.2579  1.1978
 1590TIP3   OH226184   4.725   6.789   5.117  0.3819 -0.1053 -0.9424
 1590TIP3    H126185   4.753   6.878   5.138 -1.1140  0.1407  0.1924
 1590TIP3    H226186   4.745   6.739   5.196 -0.2183 -0.4329 -0.9972
 1591TIP3   OH226187   3.864   0.372  15.265 -0.0218  0.6065 -0.3711
 1591TIP3    H126188   3.891   0.352  15.355 -1.0831  1.3792  0.1309
 1591TIP3    H226189   3.920   0.316  15.211  0.6211  0.1155  0.7614
 1592TIP3   OH226190   3.747   6.755  14.665 -0.7077  0.0159 -0.5373
 1592TIP3    H126191   3.675   6.803  14.623 -0.4774 -0.9238 -2.0620
 1592TIP3    H226192   3.711   6.668  14.681 -0.1099 -0.2622 -0.7165
 1593TIP3   OH226193   0.900   0.372  11.871 -0.1934 -0.3037  0.1044
 1593TIP3    H126194   0.979   0.354  11.921  0.4620  1.2878 -0.2806
 1593TIP3    H226195   0.905   0.466  11.850 -1.4321 -0.4822 -1.2090
 1594TIP3   OH226196   1.778   5.631  12.379  0.2811  0.4833  0.0427
 1594TIP3    H126197   1.736   5.614  12.295  1.8211  0.9899 -0.8774
 1594TIP3    H226198   1.865   5.664  12.356  0.5856  1.0479  1.8372
 1595TIP3   OH226199   1.850   4.420  15.406 -0.4440 -0.0800  0.4592
 1595TIP3    H126200   1.786   4.352  15.383  0.8423 -0.7781 -1.2003
 1595TIP3    H226201   1.880   4.396  15.493 -0.2290 -1.5033  0.0214
 1596TIP3   OH226202   1.361   6.732  10.684  0.2102  0.0289  0.3395
 1596TIP3    H126203   1.355   6.789  10.607  1.5772  1.5350  1.2925
 1596TIP3    H226204   1.442   6.682  10.671  0.5283  0.4010  0.8516
 1597TIP3   OH226205   3.976   4.204   0.148  0.7479  0.2330 -0.2360
 1597TIP3    H126206   4.048   4.143   0.130  0.3757 -0.2564 -0.0795
 1597TIP3    H226207   3.908   4.149   0.188  0.6600  0.8669  0.4986
 1598TIP3   OH226208   4.656   3.267  12.946 -0.2681  0.2390 -0.5487
 1598TIP3    H126209   4.654   3.187  12.893  1.1401  0.4335 -0.9367
 1598TIP3    H226210   4.749   3.286  12.958 -0.5732  1.4594  0.1097
 1599TIP3   OH226211   6.690   5.405   4.432  0.4627 -0.1311  0.1506
 1599TIP3    H126212   6.747   5.470   4.475  0.8624 -0.8048  0.6533
 1599TIP3    H226213   6.655   5.352   4.504 -1.3368  0.6579 -0.0686
 1600TIP3   OH226214   2.518   0.850  14.276 -0.7718 -0.1458  0.3898
 1600TIP3    H126215   2.582   0.910  14.314 -0.6341 -1.7149  2.8432
 1600TIP3    H226216   2.446   0.849  14.339 -2.8991  0.9001 -1.8729
 1601TIP3   OH226217   0.886   0.520   3.373 -0.6261  0.0670  0.0983
 1601TIP3    H126218   0.937   0.474   3.306 -2.0390 -0.5328 -0.6259
 1601TIP3    H226219   0.795   0.496   3.353 -1.1334  0.4630  1.8028
 1602TIP3   OH226220   2.623   6.317  16.400  0.0745 -0.0125  0.5132
 1602TIP3    H126221   2.634   6.225  16.378  0.5004  0.4154 -1.2294
 1602TIP3    H226222   2.532   6.337  16.381  0.3587  0.2716 -0.6847
 1603TIP3   OH226223   0.184   3.392   3.746  0.0380 -0.1435 -0.0132
 1603TIP3    H126224   0.205   3.432   3.831  0.9124 -1.5841  0.4905
 1603TIP3    H226225   0.091   3.411   3.733  0.6379  3.1357 -0.4648
 1604TIP3   OH226226   5.866   4.587  11.604  0.1006 -0.3305 -0.0202
 1604TIP3    H126227   5.810   4.511  11.588  0.2798 -1.0474  2.2915
 1604TIP3    H226228   5.922   4.593  11.527 -1.2155 -1.3589 -1.1011
 1605TIP3   OH226229   1.962   3.721   0.009 -0.2272  0.1677 -0.6607
 1605TIP3    H126230   1.885   3.734  -0.048 -1.9808 -0.4757  1.4381
 1605TIP3    H226231   1.952   3.787   0.077  1.7196  0.7699 -0.9153
 1606TIP3   OH226232   2.087   1.673   3.093  0.0068 -0.1893  0.2014
 1606TIP3    H126233   1.999   1.689   3.127 -1.0581 -0.6607 -2.1076
 1606TIP3    H226234   2.144   1.677   3.169 -1.6784  2.4973  1.4512
 1607TIP3   OH226235   6.361   5.547   6.310 -0.1406  0.4451  0.2896
 1607TIP3    H126236   6.436   5.607   6.308 -0.9730  1.5274 -1.5008
 1607TIP3    H226237   6.398   5.462   6.286  0.4271  1.1679 -1.6291
 1608TIP3   OH226238   2.299   1.461   5.626 -0.6193  0.4504 -0.6249
 1608TIP3    H126239   2.270   1.441   5.714 -0.0613  2.4673  0.0655
 1608TIP3    H226240   2.395   1.460   5.631 -0.3772 -3.1225 -2.1651
 1609TIP3   OH226241   2.437   3.217   6.013  0.5964  0.5606  0.0629
 1609TIP3    H126242   2.404   3.242   5.926  0.7814 -1.4983 -0.6667
 1609TIP3    H226243   2.370   3.158   6.048  1.2084  0.2304  0.6945
 1610TIP3   OH226244   6.598   2.169  13.406  0.6486 -0.0917  0.5851
 1610TIP3    H126245   6.538   2.190  13.334  2.9426  0.7736 -1.1670
 1610TIP3    H226246   6.615   2.075  13.396 -1.1127 -0.5887  1.7318
 1611TIP3   OH226247   3.765   1.339  11.998 -0.2323  0.4532  0.4311
 1611TIP3    H126248   3.754   1.263  12.055  0.1892  0.7291  0.8878
 1611TIP3    H226249   3.828   1.394  12.044 -0.4189  1.0087  0.0303
 1612TIP3   OH226250   1.658   0.834  10.986  0.1498 -0.0547 -0.1004
 1612TIP3    H126251   1.652   0.774  10.912  1.4944 -1.0885  0.5727
 1612TIP3    H226252   1.746   0.872  10.980  0.1169  0.1766  0.7013
 1613TIP3   OH226253   4.466   3.902   0.017 -0.2397  0.4213 -0.3476
 1613TIP3    H126254   4.546   3.849   0.010  0.0889  0.9186 -0.4359
 1613TIP3    H226255   4.477   3.969  -0.050 -0.6840  0.5605 -0.2787
 1614TIP3   OH226256   0.418   4.199  15.781 -0.0030 -0.1314 -0.5808
 1614TIP3    H126257   0.358   4.269  15.805 -0.3087 -0.7055  0.3629
 1614TIP3    H226258   0.427   4.207  15.686  0.9526  1.9726 -0.3715
 1615TIP3   OH226259   0.731   0.495   1.361  0.1857  0.3018  0.5975
 1615TIP3    H126260   0.801   0.522   1.421  0.1102  0.5281  0.5877
 1615TIP3    H226261   0.718   0.402   1.379  1.9519 -0.2806 -0.8982
 1616TIP3   OH226262   4.678   2.203  15.907  0.7406  0.4919 -0.1652
 1616TIP3    H126263   4.748   2.265  15.891  0.5954  0.7620  0.2335
 1616TIP3    H226264   4.598   2.255  15.904  0.7921  1.1738  3.9748
 1617TIP3   OH226265   6.118   4.625   0.463  0.0387  0.3777  0.3201
 1617TIP3    H126266   6.059   4.690   0.501  0.7194  1.7183 -0.8068
 1617TIP3    H226267   6.193   4.676   0.433 -0.2864 -0.5960 -2.4561
 1618TIP3   OH226268   1.447   4.579   3.413 -0.2216  0.6014  0.2298
 1618TIP3    H126269   1.514   4.538   3.467 -0.5293 -1.0033 -0.5620
 1618TIP3    H226270   1.492   4.603   3.332 -0.5698 -0.4953 -0.3107
 1619TIP3   OH226271   1.183   1.042  15.372 -0.4297  0.5034 -0.2401
 1619TIP3    H126272   1.249   1.069  15.307 -1.1105  0.3948 -0.9858
 1619TIP3    H226273   1.099   1.060  15.330 -0.8886 -0.6459  0.1608
 1620TIP3   OH226274   3.615   4.131   4.378 -0.4492 -0.0556 -0.6378
 1620TIP3    H126275   3.699   4.134   4.424 -0.6753  1.3924 -0.2575
 1620TIP3    H226276   3.580   4.045   4.398  1.2014 -0.9377 -1.2999
 1621TIP3   OH226277   0.265   2.414   3.163 -0.5345  0.1393 -0.0159
 1621TIP3    H126278   0.215   2.357   3.222  0.6086 -2.1467 -1.1120
 1621TIP3    H226279   0.304   2.354   3.099  3.3051  1.7591  0.5177
 1622TIP3   OH226280   5.430   2.695  15.980 -0.1612 -0.2575  0.6354
 1622TIP3    H126281   5.520   2.676  16.008 -0.2057 -0.1797  0.8269
 1622TIP3    H226282   5.434   2.784  15.945 -0.5819  0.5284  2.4983
 1623TIP3   OH226283   0.232   1.274  16.305  0.2833 -0.0096  0.3446
 1623TIP3    H126284   0.269   1.290  16.218  1.0439 -0.4339  0.5765
 1623TIP3    H226285   0.149   1.230  16.289  0.0561  0.6077 -0.1835
 1624TIP3   OH226286   6.205   4.574   3.326 -0.2697 -0.4605 -0.2142
 1624TIP3    H126287   6.236   4.513   3.260  0.8232 -0.6218  0.4249
 1624TIP3    H226288   6.230   4.534   3.410 -2.9298 -1.0085  0.4243
 1625TIP3   OH226289   5.941   3.055  14.959  0.0706 -0.2669  0.1355
 1625TIP3    H126290   5.866   3.110  14.982 -0.4010 -0.7754 -0.1640
 1625TIP3    H226291   5.973   3.021  15.043  0.7849  0.9714  0.3956
 1626TIP3   OH226292   0.415   5.058   3.009  0.0324 -0.3678  0.2921
 1626TIP3    H126293   0.341   5.096   2.961 -0.0663 -1.4898 -0.4913
 1626TIP3    H226294   0.385   5.052   3.099 -1.4678 -2.2174 -0.2535
 1627TIP3   OH226295   2.696   6.167  15.098  0.1320 -0.2152 -0.0151
 1627TIP3    H126296   2.694   6.170  15.002 -0.2440  1.6013 -0.0006
 1627TIP3    H226297   2.744   6.246  15.123 -0.6703 -0.1006  1.2960
 1628TIP3   OH226298   2.911   4.020   0.020  0.1129  0.3896  0.2579
 1628TIP3    H126299   2.884   4.091  -0.038  0.6851 -1.0329 -1.8818
 1628TIP3    H226300   3.000   4.042   0.045  0.6388  0.0416 -1.1721
 1629TIP3   OH226301   2.884   0.144   4.793  0.1277  0.7332  0.6028
 1629TIP3    H126302   2.964   0.180   4.832 -0.5423  1.9164  0.9118
 1629TIP3    H226303   2.828   0.124   4.867 -0.9651  2.5482  0.3072
 1630TIP3   OH226304   3.676   1.296  14.449 -0.1602  0.3435 -0.7710
 1630TIP3    H126305   3.606   1.279  14.386 -0.5371 -1.9222  0.1690
 1630TIP3    H226306   3.749   1.327  14.396 -0.3200 -1.9196 -2.4513
 1631TIP3   OH226307   1.232   3.257   4.122  0.0729  0.1071  0.0596
 1631TIP3    H126308   1.292   3.299   4.184  0.0470  0.0070  0.1517
 1631TIP3    H226309   1.161   3.321   4.111  0.8073  0.7658 -1.0018
 1632TIP3   OH226310   2.087   6.500  11.815  0.4406 -0.5573 -0.0068
 1632TIP3    H126311   2.138   6.578  11.791 -1.6840  0.3878 -1.8882
 1632TIP3    H226312   2.115   6.433  11.753 -0.6879  0.0260 -1.1827
 1633TIP3   OH226313   5.483   0.630  17.032  0.3388  0.0111 -0.4182
 1633TIP3    H126314   5.392   0.636  17.060  0.6079 -0.3451  0.6041
 1633TIP3    H226315   5.480   0.605  16.940 -0.6220  2.1564 -1.0221
 1634TIP3   OH226316   6.271   0.318  12.062  0.1498 -0.2361 -0.2835
 1634TIP3    H126317   6.255   0.325  11.968 -1.4028  1.1716  0.0557
 1634TIP3    H226318   6.340   0.382  12.080 -1.5265  1.5866 -0.0582
 1635TIP3   OH226319   0.887   0.821   3.652  0.1859 -0.0023 -0.0031
 1635TIP3    H126320   0.925   0.854   3.571 -0.9684  0.8975 -0.2026
 1635TIP3    H226321   0.953   0.761   3.687  1.0087  0.1616 -1.2235
 1636TIP3   OH226322   1.719   4.692  12.922 -0.2879 -0.6400 -0.1633
 1636TIP3    H126323   1.667   4.616  12.948 -1.6948 -1.0677 -3.6835
 1636TIP3    H226324   1.661   4.767  12.934  0.8958 -0.0544  2.7224
 1637TIP3   OH226325   6.718   0.901   3.014  0.3569 -0.3067 -0.1727
 1637TIP3    H126326   6.668   0.937   3.087 -1.4669  0.2025 -1.5955
 1637TIP3    H226327   6.777   0.972   2.988 -0.6323  0.3520 -0.6503
 1638TIP3   OH226328   2.384   3.418   3.896  0.2388  0.4804 -0.2416
 1638TIP3    H126329   2.339   3.449   3.974 -0.1319  0.2287 -0.3502
 1638TIP3    H226330   2.458   3.366   3.929 -0.6856 -0.7459 -0.0383
 1639TIP3   OH226331   0.576   5.396  16.414  0.4399 -0.3920  0.4224
 1639TIP3    H126332   0.669   5.384  16.434  0.6671  0.5253 -0.0319
 1639TIP3    H226333   0.539   5.438  16.492  0.8337  1.0348 -0.1266
 1640TIP3   OH226334   4.739   6.522   2.004 -0.4870 -0.1290 -0.4167
 1640TIP3    H126335   4.756   6.558   1.917 -1.0107 -1.6786 -1.2087
 1640TIP3    H226336   4.740   6.597   2.063  1.7431  0.7279 -1.4669
 1641TIP3   OH226337   4.998   2.037   0.974 -0.5599 -0.5315  0.1729
 1641TIP3    H126338   4.984   1.948   1.007 -1.5059 -0.9732 -1.3237
 1641TIP3    H226339   4.937   2.091   1.024 -0.7434 -0.9034  0.3579
 1642TIP3   OH226340   5.213   6.018  13.163 -0.0319  0.1797 -0.4414
 1642TIP3    H126341   5.222   6.001  13.257 -0.4503  1.9547 -0.0418
 1642TIP3    H226342   5.121   6.042  13.152  0.2353  0.8881 -1.1470
 1643TIP3   OH226343   3.295   5.433   0.262  0.2620 -0.1401 -0.6279
 1643TIP3    H126344   3.334   5.484   0.332  1.1609 -0.0817 -1.1491
 1643TIP3    H226345   3.327   5.474   0.181 -0.5836 -0.3268 -1.0724
 1644TIP3   OH226346   0.725   4.343   1.611  0.5139 -0.1618  0.1477
 1644TIP3    H126347   0.703   4.281   1.541  0.4613 -0.2226  0.2182
 1644TIP3    H226348   0.708   4.295   1.692 -1.4519  0.5676  0.2368
 1645TIP3   OH226349   3.866   4.719   4.532 -0.2527  0.1584  0.7253
 1645TIP3    H126350   3.802   4.768   4.479  1.1930  2.8350  1.3150
 1645TIP3    H226351   3.814   4.651   4.575 -2.7166  2.0978  1.0417
 1646TIP3   OH226352   5.073   4.178   0.469  0.3327  0.4839 -0.2213
 1646TIP3    H126353   5.010   4.194   0.539  0.6435  0.6378  0.0240
 1646TIP3    H226354   5.057   4.087   0.444 -0.4507  0.7230 -0.6313
 1647TIP3   OH226355   0.824   6.061   5.252 -0.0280 -0.1287  0.0577
 1647TIP3    H126356   0.846   6.078   5.160  0.6551  0.9155  0.3900
 1647TIP3    H226357   0.781   6.141   5.281  0.7348 -0.0209  0.9316
 1648TIP3   OH226358   6.321   0.965   4.744 -0.5105  0.2468  0.1530
 1648TIP3    H126359   6.354   0.940   4.658  1.9103  0.8002  0.8551
 1648TIP3    H226360   6.317   0.883   4.794  0.6712  0.2727  0.3101
 1649TIP3   OH226361   4.090   3.646  14.855 -0.2959 -0.7742  0.1052
 1649TIP3    H126362   4.028   3.585  14.895 -1.0435  0.3212  0.6619
 1649TIP3    H226363   4.100   3.717  14.919 -0.1375  0.1346 -0.8833
 1650TIP3   OH226364   3.932   0.336  13.476  0.2922  0.2059 -0.4514
 1650TIP3    H126365   3.888   0.412  13.438  0.9864  0.2547 -1.2072
 1650TIP3    H226366   3.892   0.325  13.562  0.2112  1.4653 -0.3036
 1651TIP3   OH226367   3.102   2.312   0.330 -0.3498  0.8679  0.2214
 1651TIP3    H126368   3.066   2.379   0.272 -0.0170 -0.1923 -1.2517
 1651TIP3    H226369   3.183   2.284   0.288  1.7662  2.4222  2.9290
 1652TIP3   OH226370   0.119   5.794  10.797 -0.4317  0.4586  0.6969
 1652TIP3    H126371   0.104   5.753  10.882 -3.3998 -2.8520 -1.1581
 1652TIP3    H226372   0.057   5.867  10.794 -0.3124  0.5912  1.3620
 1653TIP3   OH226373   3.873   6.017   0.807 -0.3330 -0.1437 -0.2072
 1653TIP3    H126374   3.814   6.077   0.852  0.8777  2.1365 -1.4527
 1653TIP3    H226375   3.884   5.944   0.867 -0.2362  1.8621  2.4009
 1654TIP3   OH226376   5.926   3.498  16.341  0.3143  0.3844 -0.0506
 1654TIP3    H126377   5.952   3.507  16.433 -0.8167 -0.6610  0.4028
 1654TIP3    H226378   5.849   3.555  16.332 -0.9057 -1.1332  0.2659
 1655TIP3   OH226379   3.654   4.880  11.829  0.2499  0.3179 -0.1029
 1655TIP3    H126380   3.570   4.923  11.842 -0.5352 -0.8762 -1.0882
 1655TIP3    H226381   3.708   4.909  11.903 -1.0755  0.9544  0.6316
 1656TIP3   OH226382   0.367   0.137  14.123 -0.3246 -0.3069 -0.4033
 1656TIP3    H126383   0.408   0.221  14.143  1.3352 -1.1450 -0.1819
 1656TIP3    H226384   0.309   0.121  14.197 -2.5155  1.7062 -1.5241
 1657TIP3   OH226385   1.351   3.622  12.379  0.1683 -0.4570  0.2344
 1657TIP3    H126386   1.333   3.577  12.297  1.6884 -0.5870 -0.0504
 1657TIP3    H226387   1.391   3.555  12.435  0.9879  0.1363  0.3662
 1658TIP3   OH226388   3.700   4.956  14.452 -0.0458 -0.6146 -0.2365
 1658TIP3    H126389   3.766   4.996  14.396  0.3480 -0.6011  0.2314
 1658TIP3    H226390   3.725   4.863  14.455  0.0809 -0.5720  0.1094
 1659TIP3   OH226391   2.115   2.317  15.617  0.3253 -0.1406  0.6950
 1659TIP3    H126392   2.053   2.257  15.658  1.3760 -1.0507  0.9810
 1659TIP3    H226393   2.124   2.389  15.680  0.7816 -0.7953  1.3912
 1660TIP3   OH226394   6.766   3.549   0.471  0.5335  0.1644 -0.0684
 1660TIP3    H126395   6.740   3.497   0.547 -0.0445  0.8289  0.1983
 1660TIP3    H226396   6.689   3.547   0.413  0.5497  0.6138 -0.1084
 1661TIP3   OH226397   5.408   5.754   3.380 -0.3175 -0.9883  0.4642
 1661TIP3    H126398   5.361   5.783   3.458 -1.5375 -1.6969  0.0133
 1661TIP3    H226399   5.341   5.748   3.312  0.6843 -0.6156 -0.5814
 1662TIP3   OH226400   4.461   1.761  16.168 -0.1583  0.3702 -0.7336
 1662TIP3    H126401   4.500   1.842  16.135 -0.4070  0.0225 -1.9310
 1662TIP3    H226402   4.469   1.700  16.095 -0.5360 -0.5018 -0.0553
 1663TIP3   OH226403   4.418   3.099  13.431 -0.2711 -0.5339  0.1126
 1663TIP3    H126404   4.497   3.151  13.444 -2.1990  2.2961  1.3211
 1663TIP3    H226405   4.417   3.080  13.337  0.0766  2.4967 -0.6017
 1664TIP3   OH226406   2.648   3.961   3.490 -0.6486  0.0752 -0.8414
 1664TIP3    H126407   2.658   4.052   3.462  0.3511  0.7579  1.4751
 1664TIP3    H226408   2.561   3.958   3.531  0.7446  1.0970  2.5001
 1665TIP3   OH226409   3.701   2.590  12.936  0.1254 -0.4612  0.1616
 1665TIP3    H126410   3.748   2.627  12.861 -1.3824  1.8609  0.2662
 1665TIP3    H226411   3.770   2.574  13.001  1.0017  1.5909 -0.1708
 1666TIP3   OH226412   2.020   5.758  12.286 -0.2157 -0.2571 -0.1225
 1666TIP3    H126413   2.007   5.683  12.228 -1.2391 -0.5695  0.4827
 1666TIP3    H226414   2.078   5.817  12.237 -1.6012 -0.1792 -1.7722
 1667TIP3   OH226415   5.178   0.281   4.665  1.0876  0.4981  0.5008
 1667TIP3    H126416   5.259   0.232   4.684  0.7400 -0.2324  0.1117
 1667TIP3    H226417   5.108   0.220   4.686  0.6229  1.2320  1.1088
 1668TIP3   OH226418   2.034   5.586  12.684 -0.2909  0.8910 -0.1072
 1668TIP3    H126419   2.100   5.625  12.627 -0.1227  0.8754  0.0764
 1668TIP3    H226420   2.084   5.538  12.750 -0.5049  0.0891 -0.5158
 1669TIP3   OH226421   3.363   2.481  11.630 -0.5683  0.1789 -0.8173
 1669TIP3    H126422   3.416   2.404  11.609  0.1641 -0.0506  1.6060
 1669TIP3    H226423   3.273   2.452  11.617 -0.4782 -1.9983  2.3261
 1670TIP3   OH226424   4.171   6.043  12.603 -0.1713  0.0096  0.4296
 1670TIP3    H126425   4.192   6.007  12.517 -0.4363  1.4499 -0.2793
 1670TIP3    H226426   4.255   6.047  12.649  0.0616 -0.2895  0.0357
 1671TIP3   OH226427   1.058   5.412  11.672  0.1148  0.4539  0.6101
 1671TIP3    H126428   1.137   5.455  11.703  1.3444 -1.7584  0.7831
 1671TIP3    H226429   1.034   5.352  11.744 -0.8937  0.0897 -0.0105
 1672TIP3   OH226430   0.567   3.979  15.793  0.2907  0.0468  0.0330
 1672TIP3    H126431   0.598   3.962  15.882 -1.9457 -0.4294  0.7945
 1672TIP3    H226432   0.505   4.051  15.803 -0.1678 -0.1727 -1.1058
 1673TIP3   OH226433   5.116   4.477  16.927 -0.3846  0.2777  0.4262
 1673TIP3    H126434   5.040   4.491  16.871 -0.9307  0.3819  1.1816
 1673TIP3    H226435   5.174   4.551  16.909 -0.2947  0.0161 -0.4093
 1674TIP3   OH226436   3.876   4.564  12.434  0.1329  0.2883 -0.2501
 1674TIP3    H126437   3.937   4.623  12.390  1.1299 -1.0871 -0.7874
 1674TIP3    H226438   3.836   4.513  12.364 -0.8839  0.4630  0.1865
 1675TIP3   OH226439   0.433   1.660  16.512 -0.1370  0.0612 -0.6625
 1675TIP3    H126440   0.373   1.682  16.441 -0.0194 -0.4550 -0.9306
 1675TIP3    H226441   0.383   1.674  16.592 -1.5494 -2.8594 -0.9072
 1676TIP3   OH226442   1.611   1.877  13.991  0.0159 -0.0625  0.1965
 1676TIP3    H126443   1.611   1.959  14.041 -0.5341 -0.5160  0.9645
 1676TIP3    H226444   1.630   1.809  14.056 -2.2044 -0.8313  0.1318
 1677TIP3   OH226445   5.088   6.736  12.219  0.0540  0.0302 -0.5402
 1677TIP3    H126446   5.174   6.753  12.257  0.0526 -2.4306  0.7436
 1677TIP3    H226447   5.027   6.781  12.276  0.3837  0.7782 -0.7596
 1678TIP3   OH226448   3.436   2.789  11.227  0.7441  0.1387  0.0674
 1678TIP3    H126449   3.374   2.747  11.287 -0.4001  1.5419 -0.0901
 1678TIP3    H226450   3.518   2.792  11.277 -0.3081  1.7299  1.8182
 1679TIP3   OH226451   6.695   4.292   0.933  0.3526 -0.3639 -0.3933
 1679TIP3    H126452   6.692   4.222   0.869 -0.2398 -1.5752  0.9011
 1679TIP3    H226453   6.617   4.344   0.916 -0.1951 -1.1079 -0.2068
 1680TIP3   OH226454   3.314   2.165   4.028  0.1826  0.3095 -0.1291
 1680TIP3    H126455   3.298   2.078   4.064  0.2831  0.2109 -0.3185
 1680TIP3    H226456   3.378   2.205   4.088  0.1355  0.2533 -0.0424
 1681TIP3   OH226457   5.082   3.860   0.004 -0.0925  0.6766  0.2242
 1681TIP3    H126458   5.030   3.928   0.046 -2.0646 -1.3827  1.3632
 1681TIP3    H226459   5.071   3.875  -0.089 -0.6242  1.7848  0.4484
 1682TIP3   OH226460   3.134   1.591  14.331  0.2354  0.1830  0.3842
 1682TIP3    H126461   3.043   1.613  14.351  0.4616  1.4274  0.1760
 1682TIP3    H226462   3.131   1.503  14.296 -0.5111 -1.1474  3.4255
 1683TIP3   OH226463   3.964   1.222  16.814 -0.4517  0.3793 -0.0596
 1683TIP3    H126464   4.000   1.295  16.763 -2.1767  1.2135 -0.1444
 1683TIP3    H226465   4.040   1.186  16.861  0.5011  2.0146 -0.2718
 1684TIP3   OH226466   3.077   3.961   3.436  0.3538 -0.0409 -0.0908
 1684TIP3    H126467   3.111   3.871   3.437 -0.9396 -0.5618 -0.7413
 1684TIP3    H226468   3.112   3.998   3.355  0.9713  0.0882  0.2267
 1685TIP3   OH226469   1.181   6.549  16.426 -0.0979 -0.3507  0.0094
 1685TIP3    H126470   1.207   6.597  16.505  1.5820 -0.7300 -0.2865
 1685TIP3    H226471   1.118   6.607  16.383 -0.3294  0.2786  1.1348
 1686TIP3   OH226472   5.326   1.164  11.973  0.2082  0.1389  0.2699
 1686TIP3    H126473   5.295   1.250  12.002 -0.8289 -0.0781 -0.1643
 1686TIP3    H226474   5.273   1.102  12.022 -0.3297 -0.2374 -0.7715
 1687TIP3   OH226475   4.198   1.510  13.858 -0.2353 -0.3158 -0.3028
 1687TIP3    H126476   4.273   1.570  13.850 -0.7801  0.2759 -1.0352
 1687TIP3    H226477   4.177   1.485  13.768 -0.5253 -0.9712 -0.0557
 1688TIP3   OH226478   4.223   1.251  10.307  0.1093 -0.0193 -0.8668
 1688TIP3    H126479   4.271   1.283  10.383  0.1962 -0.8391 -0.5647
 1688TIP3    H226480   4.182   1.169  10.337 -2.4583  1.2159 -0.7314
 1689TIP3   OH226481   0.138   5.962  11.394 -0.2804  0.1829  0.3628
 1689TIP3    H126482   0.133   5.868  11.410  1.6548 -0.1889 -0.9051
 1689TIP3    H226483   0.134   6.001  11.482  1.1715 -1.2253  1.1077
 1690TIP3   OH226484   6.052   3.801   1.844  0.0815  0.0912 -0.0387
 1690TIP3    H126485   6.088   3.848   1.769 -3.1583  0.1566 -1.7082
 1690TIP3    H226486   6.044   3.710   1.814  0.4633 -0.2845  0.9373
 1691TIP3   OH226487   2.442   4.856   0.544 -0.2806 -0.2348  0.0970
 1691TIP3    H126488   2.397   4.781   0.505  0.7882 -0.7279 -0.2330
 1691TIP3    H226489   2.472   4.907   0.469  1.6314 -1.0914  0.2342
 1692TIP3   OH226490   2.558   4.731  10.606  0.4178 -0.2480 -0.5329
 1692TIP3    H126491   2.512   4.713  10.523 -1.8220 -0.2271  0.6272
 1692TIP3    H226492   2.563   4.646  10.649  1.7264 -0.2857 -0.7111
 1693TIP3   OH226493   0.042   2.279  13.799 -0.0925 -0.4798  0.1020
 1693TIP3    H126494   0.065   2.287  13.892  0.2135  0.3194 -0.0396
 1693TIP3    H226495  -0.047   2.313  13.794  0.3206  0.6045 -0.0891
 1694TIP3   OH226496   4.695   3.006   2.105 -0.1091 -0.0824  0.2303
 1694TIP3    H126497   4.602   2.981   2.108 -0.3272  0.7360  2.2413
 1694TIP3    H226498   4.698   3.081   2.045 -0.6168 -0.5312 -0.3709
 1695TIP3   OH226499   0.175   3.004   5.098  0.3525 -0.1237 -0.1720
 1695TIP3    H126500   0.110   2.935   5.105  0.2402 -0.0312 -0.3046
 1695TIP3    H226501   0.258   2.958   5.083  0.4333 -0.2786  0.6950
 1696TIP3   OH226502   6.484   4.089   4.058  0.2686 -0.0486 -0.2750
 1696TIP3    H126503   6.518   4.042   3.982  1.7055  1.2874 -0.4985
 1696TIP3    H226504   6.556   4.087   4.121 -0.4435 -0.0247  0.5503
 1697TIP3   OH226505   6.518   3.644  14.383 -0.2771  0.1193  0.0852
 1697TIP3    H126506   6.506   3.723  14.329  0.7206  0.3064  0.1217
 1697TIP3    H226507   6.586   3.669  14.446  1.4383 -1.3582 -1.0900
 1698TIP3   OH226508   4.078   6.466   4.648 -0.0642 -0.2106  0.8428
 1698TIP3    H126509   4.028   6.415   4.584  0.2337  0.3542  0.1577
 1698TIP3    H226510   4.045   6.555   4.639  2.3096  0.5884 -0.9536
 1699TIP3   OH226511   0.304   2.148   1.788  0.0072  0.3599  0.0904
 1699TIP3    H126512   0.238   2.205   1.749 -1.7661  0.2018  2.5830
 1699TIP3    H226513   0.324   2.084   1.720 -2.1244  0.6571 -0.8935
 1700TIP3   OH226514   5.257   4.828  10.837 -0.5132  0.5906  0.2441
 1700TIP3    H126515   5.230   4.823  10.745 -0.4428  1.0059  0.1994
 1700TIP3    H226516   5.196   4.890  10.877 -0.0007  1.0821  0.2772
 1701TIP3   OH226517   5.629   3.794  15.549  0.0353 -0.1778  0.0059
 1701TIP3    H126518   5.712   3.811  15.596 -0.6322 -0.8800  1.5113
 1701TIP3    H226519   5.620   3.869  15.490 -0.0043  1.8536  2.3899
 1702TIP3   OH226520   1.670   3.344  14.141 -0.3810 -0.6428 -0.1827
 1702TIP3    H126521   1.613   3.391  14.201  0.7973  0.5367  0.0457
 1702TIP3    H226522   1.614   3.277  14.103 -1.7114 -0.0149  0.6050
 1703TIP3   OH226523   5.775   3.859  11.877  0.1947  0.5561  0.4795
 1703TIP3    H126524   5.689   3.899  11.891 -1.1673 -1.4639 -1.3446
 1703TIP3    H226525   5.788   3.862  11.782  1.6997 -0.0705  0.6332
 1704TIP3   OH226526   6.551   5.665   1.059 -0.4058  0.0208  0.3840
 1704TIP3    H126527   6.479   5.683   0.998  0.1334  1.9318  0.2505
 1704TIP3    H226528   6.571   5.573   1.045 -0.8835  0.1747 -1.7078
 1705TIP3   OH226529   0.668   0.035  15.449  0.0517  0.2880 -0.1856
 1705TIP3    H126530   0.657  -0.022  15.526 -2.7371  0.3965 -0.3920
 1705TIP3    H226531   0.673  -0.025  15.375  0.1868  0.2317 -0.1303
 1706TIP3   OH226532   2.931   5.529  15.287 -0.4245 -0.0743 -0.1375
 1706TIP3    H126533   3.026   5.516  15.281 -0.3814  0.0789  0.2489
 1706TIP3    H226534   2.902   5.465  15.351 -0.5257  0.1754  0.0656
 1707TIP3   OH226535   2.637   3.860  16.981 -0.0624  0.0675  0.6352
 1707TIP3    H126536   2.730   3.843  16.970 -0.2775 -0.5618 -0.3301
 1707TIP3    H226537   2.611   3.907  16.902 -0.8458 -1.0506  0.1977
 1708TIP3   OH226538   5.711   5.480   4.571 -0.7950 -0.3294  0.5246
 1708TIP3    H126539   5.758   5.536   4.633 -0.8367  0.5134 -0.1718
 1708TIP3    H226540   5.650   5.430   4.624  0.5445 -1.1043  1.3971
 1709TIP3   OH226541   6.164   4.204   5.285  0.9188  0.0367  0.1360
 1709TIP3    H126542   6.160   4.175   5.194  0.1319 -1.8244  0.7071
 1709TIP3    H226543   6.257   4.209   5.304  1.1129  1.4260 -1.0334
 1710TIP3   OH226544   0.378   0.489   5.758 -0.2840  0.7005 -0.1143
 1710TIP3    H126545   0.402   0.401   5.785  2.5261  1.2545 -0.4726
 1710TIP3    H226546   0.427   0.546   5.818 -2.0625  2.0711  0.1456
 1711TIP3   OH226547   4.018   5.920   4.567  0.9531  0.2977  0.2212
 1711TIP3    H126548   4.085   5.872   4.518 -0.4684 -1.3677 -0.2154
 1711TIP3    H226549   3.978   5.854   4.624 -0.3252  1.2208  0.4495
 1712TIP3   OH226550   3.101   3.112  11.373 -0.4153  0.1573 -0.4908
 1712TIP3    H126551   3.161   3.053  11.327  1.3566  2.5522 -1.4974
 1712TIP3    H226552   3.022   3.060  11.386  0.3948 -1.8820 -2.8109
 1713TIP3   OH226553   3.057   5.326  14.983  0.5467  0.4824 -0.3442
 1713TIP3    H126554   3.022   5.237  14.993  1.1024  0.2594 -0.3360
 1713TIP3    H226555   3.150   5.318  15.005  0.8735  0.8158 -1.4974
 1714TIP3   OH226556   0.162   5.464  16.726 -0.4744  0.1560 -0.0685
 1714TIP3    H126557   0.175   5.457  16.631  2.0095  1.1866  0.1157
 1714TIP3    H226558   0.074   5.501  16.736 -0.4904  0.7554 -2.0126
 1715TIP3   OH226559   2.521   1.557   1.823  0.1582 -0.4378 -0.1422
 1715TIP3    H126560   2.588   1.528   1.761  0.7824 -1.5109  0.9773
 1715TIP3    H226561   2.463   1.613   1.772  1.8595  0.4689 -1.1788
 1716TIP3   OH226562   0.763   1.257   2.436  0.0818 -0.0320 -0.3316
 1716TIP3    H126563   0.847   1.214   2.455 -0.0965 -0.6565 -0.8950
 1716TIP3    H226564   0.703   1.222   2.503  0.7385  2.0891  1.4939
 1717TIP3   OH226565   3.610   3.089  12.777  0.1398 -0.9784 -0.0642
 1717TIP3    H126566   3.701   3.063  12.761 -0.2720 -3.0100  0.7011
 1717TIP3    H226567   3.567   3.078  12.692  0.0890 -2.3893  0.1258
 1718TIP3   OH226568   6.369   0.940  11.121 -0.0504  0.0681  0.0338
 1718TIP3    H126569   6.430   0.990  11.176 -1.8110 -0.4998  2.6699
 1718TIP3    H226570   6.426   0.890  11.062  1.8818  2.0879  0.0475
 1719TIP3   OH226571   3.432   1.288   3.601  0.1429 -0.1574  0.2411
 1719TIP3    H126572   3.428   1.363   3.661 -0.7317 -0.1342  0.1704
 1719TIP3    H226573   3.452   1.213   3.657  1.0190  0.1123  0.3140
 1720TIP3   OH226574   1.989   5.024  15.163  0.1771 -0.2898 -0.0432
 1720TIP3    H126575   1.927   5.086  15.200  0.7064 -0.0181  0.4017
 1720TIP3    H226576   2.056   5.079  15.121 -0.0453 -0.5811 -0.8071
 1721TIP3   OH226577   4.359   4.316  13.424  0.7654  0.2362  0.0282
 1721TIP3    H126578   4.383   4.224  13.416 -2.2512 -0.6683  0.0320
 1721TIP3    H226579   4.325   4.325  13.513 -1.0166  0.7521 -0.6534
 1722TIP3   OH226580   5.021   4.896  11.176 -0.0883 -0.7063 -0.8720
 1722TIP3    H126581   4.931   4.923  11.159 -0.2720 -2.0710 -2.2405
 1722TIP3    H226582   5.012   4.815  11.227  0.4261  0.4658  1.1906
 1723TIP3   OH226583   2.515   5.452   6.365 -0.1175  0.4741  0.0776
 1723TIP3    H126584   2.505   5.531   6.419  0.0043 -0.5900  1.7349
 1723TIP3    H226585   2.452   5.464   6.294 -0.7240  1.6748  0.7800
 1724TIP3   OH226586   6.714   1.663   0.213 -0.0604  0.4412 -0.4925
 1724TIP3    H126587   6.693   1.736   0.271 -1.6930 -0.5965  0.2956
 1724TIP3    H226588   6.658   1.677   0.136  1.1085  1.0879 -1.2404
 1725TIP3   OH226589   4.132   5.981  12.324  0.7204  0.6637 -0.3398
 1725TIP3    H126590   4.209   5.985  12.267  1.1389 -1.1116  0.0587
 1725TIP3    H226591   4.063   5.944  12.269  1.4104 -2.1049  0.4876
 1726TIP3   OH226592   0.820   5.781   4.943 -0.0387 -0.1578 -0.6472
 1726TIP3    H126593   0.752   5.758   4.880 -2.2026 -3.0583  2.3600
 1726TIP3    H226594   0.898   5.736   4.912 -1.7059 -3.7349 -0.1739
 1727TIP3   OH226595   6.369   2.293   4.626  0.2860 -0.2453  0.1497
 1727TIP3    H126596   6.397   2.381   4.649 -0.7722 -0.3412  2.0377
 1727TIP3    H226597   6.441   2.236   4.654  0.5933 -0.0497 -0.2460
 1728TIP3   OH226598   4.685   1.251   1.560  0.4940  0.0534 -0.2054
 1728TIP3    H126599   4.598   1.212   1.550  0.4408  0.3906 -1.1279
 1728TIP3    H226600   4.674   1.342   1.534  1.3445 -0.1636 -1.4019
 1729TIP3   OH226601   5.548   5.881   2.512  0.0331 -0.7716 -0.6923
 1729TIP3    H126602   5.547   5.786   2.499  0.0941 -0.6803 -1.4286
 1729TIP3    H226603   5.625   5.910   2.464 -0.6968 -0.2081 -1.5416
 1730TIP3   OH226604   4.206   3.562  12.298  0.4647 -0.2909  0.1587
 1730TIP3    H126605   4.136   3.521  12.348  2.9156 -3.2257  1.5081
 1730TIP3    H226606   4.249   3.622  12.359  2.0282 -2.1559  0.9978
 1731TIP3   OH226607   1.308   4.145   2.930  0.7087  0.4903 -0.1673
 1731TIP3    H126608   1.272   4.141   3.019 -0.0770  2.2079 -0.3743
 1731TIP3    H226609   1.357   4.227   2.928 -1.2955  1.7554 -1.9909
 1732TIP3   OH226610   5.191   1.026   5.445  0.7411  0.0556 -0.1263
 1732TIP3    H126611   5.106   1.060   5.474  0.8303  1.1616 -1.0783
 1732TIP3    H226612   5.175   0.933   5.427  0.0220 -0.0114  0.7886
 1733TIP3   OH226613   0.983   6.597   0.277 -0.6759  0.0758  0.9011
 1733TIP3    H126614   1.070   6.615   0.313 -0.5883 -1.4414  1.5487
 1733TIP3    H226615   0.923   6.622   0.347 -0.9243  2.7620 -0.1798
 1734TIP3   OH226616   5.460   5.361  16.548 -0.2975  0.1457  0.0397
 1734TIP3    H126617   5.380   5.400  16.583 -0.6395  1.8087 -2.3219
 1734TIP3    H226618   5.530   5.421  16.572 -0.3613  0.6815 -1.0567
 1735TIP3   OH226619   6.349   4.162  13.230  0.0394 -0.7661  1.2294
 1735TIP3    H126620   6.308   4.222  13.167  2.3371  2.6082  2.6638
 1735TIP3    H226621   6.293   4.166  13.307 -0.6120 -1.7572  0.8353
 1736TIP3   OH226622   3.061   6.319   3.290 -0.0918  0.1832 -0.8591
 1736TIP3    H126623   3.095   6.304   3.379 -1.0816  1.2442 -0.2738
 1736TIP3    H226624   3.105   6.399   3.261  0.7448 -0.5301 -1.6228
 1737TIP3   OH226625   0.555   0.126  13.032 -0.2010 -0.2804 -0.5654
 1737TIP3    H126626   0.593   0.214  13.036 -2.3569  0.6571  1.7153
 1737TIP3    H226627   0.470   0.134  13.075  0.4341 -3.9267  1.8048
 1738TIP3   OH226628   4.638   1.919  16.726 -0.1244  0.1378 -0.1282
 1738TIP3    H126629   4.565   1.863  16.753  0.0763 -0.7432 -1.3466
 1738TIP3    H226630   4.596   1.992  16.680 -0.3166  0.3700  0.4120
 1739TIP3   OH226631   3.703   5.786  13.362 -0.4407 -0.1788 -0.1322
 1739TIP3    H126632   3.641   5.714  13.374 -1.3152  0.3523 -1.3643
 1739TIP3    H226633   3.696   5.809  13.270  2.1041 -0.5493 -0.4956
 1740TIP3   OH226634   3.069   5.417  10.897 -0.9777  0.5701  0.5314
 1740TIP3    H126635   3.146   5.407  10.841 -1.5865 -1.7641  0.0210
 1740TIP3    H226636   3.002   5.453  10.839 -0.8603  0.6673  0.4541
 1741TIP3   OH226637   1.617   3.214  10.353 -0.1109  0.2009  0.2953
 1741TIP3    H126638   1.705   3.227  10.389  0.4754  0.1636 -1.0685
 1741TIP3    H226639   1.612   3.275  10.279 -2.2496  2.2250  1.9435
 1742TIP3   OH226640   0.053   3.382   2.230 -0.2160 -0.1395 -0.5788
 1742TIP3    H126641  -0.031   3.348   2.259 -0.1760 -0.0943 -0.4081
 1742TIP3    H226642   0.060   3.468   2.271  0.3736 -0.5695  0.2554
 1743TIP3   OH226643   0.809   5.368   1.104  0.2477 -0.0733  0.0741
 1743TIP3    H126644   0.897   5.404   1.097  0.5595 -1.0404 -1.1674
 1743TIP3    H226645   0.797   5.352   1.198  1.0064  0.9607  0.3682
 1744TIP3   OH226646   0.953   2.900  13.814  0.7682  0.1567 -0.5178
 1744TIP3    H126647   0.959   2.909  13.719  0.2305  1.5435 -0.4321
 1744TIP3    H226648   0.873   2.946  13.838  1.1969  0.3281  0.6727
 1745TIP3   OH226649   1.777   3.900   0.890  0.8006 -0.0019 -0.0062
 1745TIP3    H126650   1.829   3.829   0.852  0.6335 -0.1742  0.0863
 1745TIP3    H226651   1.710   3.856   0.941  1.5546  0.2207  1.2364
 1746TIP3   OH226652   2.406   0.560   4.911  0.1598 -0.1252  0.4681
 1746TIP3    H126653   2.389   0.588   4.821  0.8634 -0.0448  0.3566
 1746TIP3    H226654   2.346   0.487   4.925 -1.9861  1.6202  0.8876
 1747TIP3   OH226655   1.481   4.833  14.486  0.2668 -0.4387 -0.2160
 1747TIP3    H126656   1.457   4.740  14.482 -1.0250 -0.1012 -0.5833
 1747TIP3    H226657   1.423   4.871  14.551  1.4778 -0.0602  0.6808
 1748TIP3   OH226658   2.801   0.847   4.787  0.2712 -0.2986  0.2091
 1748TIP3    H126659   2.778   0.931   4.749  0.5953  0.0641  0.7983
 1748TIP3    H226660   2.775   0.853   4.879  0.6141 -0.7103  0.3395
 1749TIP3   OH226661   6.779   2.829   4.693  0.0894  0.0478  0.7207
 1749TIP3    H126662   6.692   2.858   4.718 -0.8234 -0.1429 -1.8993
 1749TIP3    H226663   6.809   2.895   4.631  1.1130 -0.7401  0.3439
 1750TIP3   OH226664   5.587   2.765  14.822  0.3023 -0.4061  0.6383
 1750TIP3    H126665   5.627   2.847  14.792 -2.0976  0.2422 -1.1328
 1750TIP3    H226666   5.638   2.697  14.778  1.8472  0.1431  1.5190
 1751TIP3   OH226667   4.838   1.764  10.876  0.3011 -0.0949  0.4519
 1751TIP3    H126668   4.905   1.728  10.934 -1.1186  0.1605  2.3664
 1751TIP3    H226669   4.869   1.745  10.788  1.8611 -1.8294  1.3118
 1752TIP3   OH226670   5.223   3.768  11.830  0.7608 -0.1031  0.3710
 1752TIP3    H126671   5.143   3.722  11.857 -1.0669  2.8429  0.3382
 1752TIP3    H226672   5.279   3.766  11.907 -0.2943 -0.2893  1.1521
 1753TIP3   OH226673   3.182   6.452   4.096  0.8169  0.1172 -0.2266
 1753TIP3    H126674   3.255   6.409   4.141  0.1221 -1.4066 -0.5269
 1753TIP3    H226675   3.155   6.390   4.029 -2.0727 -0.2755  1.1684
 1754TIP3   OH226676   5.152   3.888   4.215  0.3354  0.4004 -0.2544
 1754TIP3    H126677   5.207   3.853   4.145 -0.6369  0.8438 -1.2610
 1754TIP3    H226678   5.194   3.857   4.296  2.3828  1.1754 -0.9472
 1755TIP3   OH226679   3.477   2.246  11.439  0.5174  0.0537 -0.1727
 1755TIP3    H126680   3.491   2.179  11.372  2.9150  0.3790 -0.1113
 1755TIP3    H226681   3.521   2.324  11.404  0.8417  0.5476  1.2703
 1756TIP3   OH226682   2.968   1.485   4.861 -0.2800  0.8127  0.2794
 1756TIP3    H126683   3.027   1.561   4.857 -0.7478  1.1262 -1.3372
 1756TIP3    H226684   2.895   1.514   4.916  0.4895  0.8278  1.3195
 1757TIP3   OH226685   0.922   1.263  15.494 -0.2465 -0.4138 -0.4483
 1757TIP3    H126686   0.913   1.168  15.493  0.0440 -0.4540 -1.5548
 1757TIP3    H226687   0.933   1.286  15.586  0.0641 -1.4949 -0.2015
 1758TIP3   OH226688   2.642   6.420   5.102  0.2967 -0.1775 -0.0012
 1758TIP3    H126689   2.676   6.500   5.062 -1.2421  0.7082  0.3923
 1758TIP3    H226690   2.588   6.450   5.175  0.9884 -1.6594  1.1959
 1759TIP3   OH226691   2.679   1.547   4.051  0.3726 -0.1931 -0.1754
 1759TIP3    H126692   2.626   1.527   4.128  0.2808 -1.0386 -0.4580
 1759TIP3    H226693   2.616   1.566   3.982  0.4543  0.8846  0.0222
 1760TIP3   OH226694   3.724   1.383   0.759  0.6925  0.4958  0.2285
 1760TIP3    H126695   3.783   1.375   0.833  0.9716 -0.8868 -0.1161
 1760TIP3    H226696   3.640   1.408   0.798  1.3997  2.3007  0.7378
 1761TIP3   OH226697   6.427   2.781   5.503  0.1198  0.1921 -0.3170
 1761TIP3    H126698   6.476   2.796   5.585 -0.8603  0.8814  0.1656
 1761TIP3    H226699   6.404   2.688   5.506  1.5729 -0.1978 -0.6626
 1762TIP3   OH226700   0.453   0.852  13.180  0.0801 -0.4880  0.2207
 1762TIP3    H126701   0.462   0.782  13.244 -0.0974 -0.1964  0.5675
 1762TIP3    H226702   0.508   0.824  13.106  0.2595 -0.8385  0.4833
 1763TIP3   OH226703   1.804   2.973   1.562 -0.4117  0.0923 -0.1348
 1763TIP3    H126704   1.811   3.067   1.549 -0.4465 -0.0188 -0.9876
 1763TIP3    H226705   1.895   2.942   1.564 -0.3639  0.2454  1.0380
 1764TIP3   OH226706   0.891   5.249  13.235  0.3311 -0.0550  0.6309
 1764TIP3    H126707   0.797   5.265  13.244  0.4264  2.6028 -1.7935
 1764TIP3    H226708   0.899   5.191  13.160  0.6197 -1.1251  1.4674
 1765TIP3   OH226709   1.676   3.506   5.801  0.6464  0.1597  0.0363
 1765TIP3    H126710   1.748   3.554   5.843  0.2938  0.5171  0.2377
 1765TIP3    H226711   1.719   3.435   5.754  1.1346  0.3744  0.1522
 1766TIP3   OH226712   4.763   3.238  13.448 -0.2047 -0.1240  0.8116
 1766TIP3    H126713   4.770   3.166  13.386 -0.6451  0.7969 -0.3561
 1766TIP3    H226714   4.708   3.204  13.519  0.0206 -1.0844  0.5393
 1767TIP3   OH226715   0.513   5.262   2.060  0.0263 -0.1330 -0.2496
 1767TIP3    H126716   0.446   5.329   2.076 -1.0303 -0.7909 -1.7053
 1767TIP3    H226717   0.594   5.312   2.051 -0.6958  0.9470 -1.0721
 1768TIP3   OH226718   5.545   5.014   0.802 -0.1174  0.2538 -0.5169
 1768TIP3    H126719   5.547   5.107   0.827  0.6941  0.4259 -1.1922
 1768TIP3    H226720   5.463   4.982   0.839  0.6481  0.6698  1.7430
 1769TIP3   OH226721   0.430   3.379  13.070 -0.1615  0.3085 -0.2689
 1769TIP3    H126722   0.338   3.399  13.052  0.2447  0.4559 -2.4642
 1769TIP3    H226723   0.456   3.442  13.136 -1.5403  0.4905  0.1257
 1770TIP3   OH226724   6.623   3.903   5.326 -0.2293 -0.3248  0.2891
 1770TIP3    H126725   6.531   3.879   5.337 -0.4529  0.2846 -0.1906
 1770TIP3    H226726   6.622   3.999   5.329  0.6299 -0.3239  2.1830
 1771TIP3   OH226727   2.874   0.417   0.798  0.2612  0.5146  0.0955
 1771TIP3    H126728   2.933   0.491   0.785  2.2891 -0.6240  1.9986
 1771TIP3    H226729   2.804   0.451   0.854 -1.0101  1.8920 -2.1991
 1772TIP3   OH226730   6.828   2.887  15.815  0.1790  0.6348 -0.6793
 1772TIP3    H126731   6.902   2.871  15.872  0.3407  0.5954 -0.9001
 1772TIP3    H226732   6.866   2.921  15.734 -0.2258  3.3603  0.2040
 1773TIP3   OH226733   3.184   5.865   5.652 -0.3764 -0.2662 -0.0289
 1773TIP3    H126734   3.130   5.794   5.688  1.4967 -1.7884 -0.0466
 1773TIP3    H226735   3.238   5.823   5.586 -1.4538  1.8692 -2.4240
 1774TIP3   OH226736   0.989   0.978  10.271 -0.2165  0.3688 -0.1061
 1774TIP3    H126737   1.043   1.023  10.206 -0.0869  1.0092  0.4426
 1774TIP3    H226738   1.036   0.896  10.288  0.4070  0.7627  0.1098
 1775TIP3   OH226739   5.527   1.161   2.847 -0.7283 -0.1426  0.2133
 1775TIP3    H126740   5.453   1.113   2.884 -1.3036  0.4195 -0.1972
 1775TIP3    H226741   5.600   1.143   2.907 -0.7082 -2.1560 -0.3417
 1776TIP3   OH226742   3.558   2.316   5.447  0.0230  0.1326 -0.4234
 1776TIP3    H126743   3.520   2.394   5.489 -0.7501 -0.1814 -0.5156
 1776TIP3    H226744   3.488   2.251   5.450  1.1980 -1.1365  1.1657
 1777TIP3   OH226745   3.704   3.393   3.959 -0.2120  0.0072  0.3434
 1777TIP3    H126746   3.728   3.375   4.049 -1.8074  1.2693  1.0755
 1777TIP3    H226747   3.629   3.335   3.942 -1.0336  1.0063  0.4481
 1778TIP3   OH226748   5.464   4.724   5.999  0.0414  0.2521 -0.1807
 1778TIP3    H126749   5.450   4.819   6.001  0.4271  0.3111 -0.2374
 1778TIP3    H226750   5.386   4.688   6.042  0.0097  0.6074  0.0694
 1779TIP3   OH226751   2.126   3.109  13.466  0.1774  0.2951  0.4848
 1779TIP3    H126752   2.182   3.031  13.465  0.5136  0.5224  1.0722
 1779TIP3    H226753   2.044   3.079  13.504  0.3325  0.2387  0.7795
 1780TIP3   OH226754   6.445   3.075   0.959  0.5039  0.4780  0.2064
 1780TIP3    H126755   6.511   3.139   0.930  1.1122 -0.1347  0.2068
 1780TIP3    H226756   6.414   3.110   1.042 -0.2381  1.5247 -0.4825
 1781TIP3   OH226757   1.618   1.128  14.761  0.3114 -0.2572  0.2486
 1781TIP3    H126758   1.646   1.123  14.852  1.2312 -0.9863 -0.0590
 1781TIP3    H226759   1.525   1.103  14.763  0.3045 -0.1972  0.9877
 1782TIP3   OH226760   5.287   6.606  10.550  0.0642  0.2490 -0.0200
 1782TIP3    H126761   5.253   6.679  10.499 -0.0491 -1.3111 -2.3169
 1782TIP3    H226762   5.382   6.620  10.551 -0.1304  1.7974  1.8805
 1783TIP3   OH226763   3.302   3.304  14.862  0.3033 -0.2848 -0.8407
 1783TIP3    H126764   3.395   3.328  14.862  0.5422 -1.1045  1.1538
 1783TIP3    H226765   3.260   3.374  14.810  1.8697  0.7067 -0.8394
 1784TIP3   OH226766   4.218   5.199   2.019 -0.1939 -0.8090 -0.0968
 1784TIP3    H126767   4.176   5.115   2.034 -0.1642 -1.0343 -1.2578
 1784TIP3    H226768   4.162   5.262   2.064 -1.0323 -1.2674 -0.4910
 1785TIP3   OH226769   4.932   4.520   3.303 -0.5250 -0.6547 -0.3157
 1785TIP3    H126770   4.949   4.550   3.393  1.2814  0.9879 -1.1218
 1785TIP3    H226771   5.015   4.480   3.276 -0.7781 -0.3999 -1.5088
 1786TIP3   OH226772   5.215   4.892  12.143 -0.1482 -0.0334  0.3547
 1786TIP3    H126773   5.199   4.986  12.150 -0.0863 -0.0500  0.7414
 1786TIP3    H226774   5.217   4.861  12.233  2.0737 -0.0166  0.3739
 1787TIP3   OH226775   4.926   6.566  11.201  0.0908  0.1742 -0.1745
 1787TIP3    H126776   4.843   6.573  11.248 -0.3913  0.0392 -0.9959
 1787TIP3    H226777   4.992   6.571  11.270 -0.5234  1.9521  0.3277
 1788TIP3   OH226778   3.863   1.174  16.312  0.3788  0.1180 -0.1816
 1788TIP3    H126779   3.905   1.094  16.280 -1.2082 -0.6561 -0.4324
 1788TIP3    H226780   3.830   1.217  16.234 -0.7108 -0.1412  0.1109
 1789TIP3   OH226781   0.990   1.971  14.477 -0.2045 -1.0242  0.7070
 1789TIP3    H126782   1.073   1.995  14.519  0.0177 -3.3519  1.7537
 1789TIP3    H226783   0.952   2.055  14.451  2.3669  0.1544  0.3544
 1790TIP3   OH226784   1.421   2.844  15.660  0.1705 -0.4797 -0.2798
 1790TIP3    H126785   1.478   2.864  15.586  0.5333 -0.0016  0.1260
 1790TIP3    H226786   1.333   2.865  15.630  0.3717  0.1908 -0.4055
 1791TIP3   OH226787   0.548   0.206   1.586 -0.1660 -0.2171 -0.6639
 1791TIP3    H126788   0.598   0.229   1.508 -0.5617  1.1551 -0.5313
 1791TIP3    H226789   0.596   0.132   1.623 -0.2533 -1.2524 -2.4662
 1792TIP3   OH226790   5.964   0.765  11.270  0.3778  0.0297  0.3319
 1792TIP3    H126791   6.004   0.823  11.205 -1.3785  0.0469 -0.7945
 1792TIP3    H226792   5.967   0.814  11.352  1.9728  0.2995  0.1478
 1793TIP3   OH226793   0.646   5.860  13.724  0.0543  0.0731  0.0603
 1793TIP3    H126794   0.694   5.786  13.686  2.2099  0.8716  1.0589
 1793TIP3    H226795   0.711   5.930  13.730 -1.7272  1.8146 -0.1114
 1794TIP3   OH226796   6.795   5.560   5.072  0.4095  0.1890 -0.4253
 1794TIP3    H126797   6.856   5.486   5.067  0.4685  0.1052  1.0587
 1794TIP3    H226798   6.732   5.545   5.002 -0.1246 -1.7889  0.4217
 1795TIP3   OH226799   2.550   0.870   5.298 -0.3130  0.3105 -0.5138
 1795TIP3    H126800   2.630   0.832   5.336 -0.9465  0.0403  0.5883
 1795TIP3    H226801   2.513   0.798   5.246  0.9954  0.9333 -2.4271
 1796TIP3   OH226802   0.510   0.224  15.806 -0.0712 -0.2932  0.1559
 1796TIP3    H126803   0.540   0.296  15.861  2.7900 -0.6898 -0.7326
 1796TIP3    H226804   0.457   0.265  15.738  3.3031  1.4153 -1.6554
 1797TIP3   OH226805   1.034   6.392  12.647 -0.8378  0.2559 -0.2693
 1797TIP3    H126806   1.115   6.401  12.598 -0.0420 -2.1724  0.4454
 1797TIP3    H226807   0.987   6.320  12.604 -1.3184 -0.1787  0.9218
 1798TIP3   OH226808   2.946   5.896   0.538  0.3791 -0.0783 -0.8587
 1798TIP3    H126809   3.009   5.883   0.609 -0.6636 -3.5978 -0.3576
 1798TIP3    H226810   2.981   5.844   0.466  0.2344  1.5543 -2.1454
 1799TIP3   OH226811   4.341   5.856   5.385 -0.4892  0.1652 -0.1043
 1799TIP3    H126812   4.374   5.914   5.453  0.7989  0.3666 -0.8550
 1799TIP3    H226813   4.280   5.797   5.430 -0.3538  0.8660  1.0299
 1800TIP3   OH226814   4.654   2.109   0.779  0.6824 -0.1103  0.1499
 1800TIP3    H126815   4.680   2.157   0.700 -0.0000  0.6461  0.3777
 1800TIP3    H226816   4.695   2.156   0.851 -0.3133  0.3960  0.4083
 1801TIP3   OH226817   6.576   4.557   1.273  0.4758 -0.0756  0.6720
 1801TIP3    H126818   6.622   4.557   1.357  3.7591  1.8042 -0.8959
 1801TIP3    H226819   6.560   4.650   1.255 -1.6364 -0.5319 -0.1248
 1802TIP3   OH226820   1.465   5.475  13.033  0.6818 -0.4213  0.4506
 1802TIP3    H126821   1.496   5.405  12.976  1.2504  1.1810 -1.3239
 1802TIP3    H226822   1.477   5.555  12.981 -1.0172  0.8824  1.9323
 1803TIP3   OH226823   0.387   3.660   0.082  0.6512 -0.2163 -0.4247
 1803TIP3    H126824   0.386   3.736   0.140  2.4744 -0.3569 -0.1625
 1803TIP3    H226825   0.461   3.674   0.024 -0.8314 -0.3097 -2.4755
 1804TIP3   OH226826   4.117   3.364   3.305 -0.0167 -0.0226  0.1964
 1804TIP3    H126827   4.106   3.415   3.385  0.2307  2.8579 -1.4597
 1804TIP3    H226828   4.036   3.313   3.298 -1.0215  1.3431  1.2153
 1805TIP3   OH226829   6.743   0.946   5.877  0.1053 -0.4022 -0.0721
 1805TIP3    H126830   6.821   0.943   5.822  0.0031  0.8918 -0.3189
 1805TIP3    H226831   6.733   1.038   5.900 -0.3994 -0.7813  1.3458
 1806TIP3   OH226832   1.731   5.135   3.153  0.7985  0.7833 -0.2930
 1806TIP3    H126833   1.801   5.082   3.189  0.7997 -0.6680 -2.2961
 1806TIP3    H226834   1.774   5.193   3.090  0.3335  0.3641 -1.0219
 1807TIP3   OH226835   6.744   2.208   3.098 -0.1146 -0.3876 -0.1051
 1807TIP3    H126836   6.723   2.287   3.049 -1.0801 -0.5036  0.0978
 1807TIP3    H226837   6.671   2.148   3.079  0.2744 -0.9845  0.2558
 1808TIP3   OH226838   1.137   5.361   3.400 -0.8401  0.1509 -0.3918
 1808TIP3    H126839   1.196   5.289   3.380 -0.4222  0.4064 -0.0766
 1808TIP3    H226840   1.057   5.318   3.432 -0.4228 -0.1599  0.2563
 1809TIP3   OH226841   3.488   1.878   4.387 -0.3782 -0.3072  0.2182
 1809TIP3    H126842   3.396   1.876   4.412 -0.4278  1.3007  0.2336
 1809TIP3    H226843   3.535   1.860   4.468 -0.6612 -0.1493  0.4188
 1810TIP3   OH226844   1.551   0.655  11.685 -0.2081  0.2940  0.4770
 1810TIP3    H126845   1.480   0.592  11.697 -0.4844  0.2478 -1.1666
 1810TIP3    H226846   1.507   0.740  11.686 -0.0742  0.3575  0.9798
 1811TIP3   OH226847   3.518   0.398  16.784  0.5924  0.1438  0.4662
 1811TIP3    H126848   3.464   0.328  16.748  0.9089 -0.5212  1.2445
 1811TIP3    H226849   3.461   0.474  16.787  0.5851  0.2592 -1.5088
 1812TIP3   OH226850   0.399   1.198   2.762 -0.5571  0.1640 -0.5247
 1812TIP3    H126851   0.363   1.216   2.849  0.9371 -0.5437  0.2959
 1812TIP3    H226852   0.451   1.276   2.741 -0.4115  0.0736 -0.5000
 1813TIP3   OH226853   0.997   2.705  14.141  0.9316 -0.0554 -0.0259
 1813TIP3    H126854   0.984   2.613  14.120 -0.4150  0.5492 -2.2244
 1813TIP3    H226855   1.058   2.736  14.074 -0.7977  1.2206 -1.0880
 1814TIP3   OH226856   2.644   5.302   5.021  0.2681 -0.2696  0.1332
 1814TIP3    H126857   2.589   5.259   5.087  0.2601 -0.1925  0.1769
 1814TIP3    H226858   2.727   5.255   5.023  0.5538  0.2482  0.7729
 1815TIP3   OH226859   2.353   5.547  16.708  0.1015 -0.4503 -0.0752
 1815TIP3    H126860   2.415   5.548  16.636  0.4853 -0.3472  0.2560
 1815TIP3    H226861   2.394   5.598  16.777 -1.1976  1.3152 -0.5326
 1816TIP3   OH226862   4.595   5.879  12.595  0.0649  0.0912  0.0598
 1816TIP3    H126863   4.674   5.872  12.542 -0.0631 -2.1722  0.0531
 1816TIP3    H226864   4.602   5.805  12.656 -1.2707  0.8245  1.1307
 1817TIP3   OH226865   3.294   1.872  16.542 -0.5056  0.4296  0.5132
 1817TIP3    H126866   3.274   1.779  16.551 -0.5496 -0.2366 -3.9440
 1817TIP3    H226867   3.209   1.915  16.551 -0.9417 -0.2880 -0.0175
 1818TIP3   OH226868   5.390   3.262  13.708 -0.5746  0.5502  1.1867
 1818TIP3    H126869   5.357   3.181  13.668 -2.3279  1.5903  0.4285
 1818TIP3    H226870   5.345   3.267  13.792  2.0287 -0.8906  2.7956
 1819TIP3   OH226871   3.142   0.387  10.119  0.3024  0.0034  0.3227
 1819TIP3    H126872   3.193   0.330  10.177 -1.2281 -1.4987  0.2630
 1819TIP3    H226873   3.165   0.476  10.146  2.9023 -0.5855  0.3095
 1820TIP3   OH226874   1.002   4.970  12.221 -1.0091  0.1281 -0.7191
 1820TIP3    H126875   1.092   4.939  12.211 -0.8874 -0.3002  1.3250
 1820TIP3    H226876   0.948   4.898  12.189 -0.6571 -1.0258  1.1611
 1821TIP3   OH226877   1.867   4.804  11.756 -0.0146 -0.0224 -0.5848
 1821TIP3    H126878   1.944   4.781  11.704  0.6752  0.2022  0.3227
 1821TIP3    H226879   1.856   4.898  11.742 -0.1807 -0.0742 -0.7953
 1822TIP3   OH226880   2.017   6.043  12.474 -0.5538 -0.3721 -0.0570
 1822TIP3    H126881   1.940   6.101  12.475 -0.2941 -0.0116  1.2675
 1822TIP3    H226882   1.980   5.955  12.478 -0.9164 -0.2198  0.0404
 1823TIP3   OH226883   3.155   0.417  16.393  0.5642  0.3557 -0.0588
 1823TIP3    H126884   3.138   0.379  16.479 -1.1504  1.3229  0.0891
 1823TIP3    H226885   3.249   0.433  16.391  0.6640  0.0970  1.5357
 1824TIP3   OH226886   1.408   0.131  13.674  0.5208 -0.0973  0.0206
 1824TIP3    H126887   1.467   0.116  13.600  1.5813  0.5662  0.7003
 1824TIP3    H226888   1.356   0.207  13.648  1.3339  0.5340  0.1984
 1825TIP3   OH226889   0.849   1.102   4.029  0.7641 -0.1169 -0.4245
 1825TIP3    H126890   0.941   1.117   4.006  0.7668  0.3572 -0.1149
 1825TIP3    H226891   0.835   1.009   4.011  1.3036 -0.1954 -0.4689
 1826TIP3   OH226892   4.098   0.382  14.942  0.3388 -0.3321  0.5015
 1826TIP3    H126893   4.058   0.457  14.899 -3.9366 -1.7126  1.5820
 1826TIP3    H226894   4.096   0.312  14.876  2.2465 -0.1604  0.2031
 1827TIP3   OH226895   6.444   1.645  16.407  0.2233 -0.0623  0.1038
 1827TIP3    H126896   6.460   1.640  16.501  2.0863 -1.2256 -0.2317
 1827TIP3    H226897   6.437   1.554  16.378  1.5645  0.1937 -1.1520
 1828TIP3   OH226898   0.850   2.141  15.013  0.0085 -0.0511  0.4352
 1828TIP3    H126899   0.927   2.103  14.970 -0.2382 -1.4011  1.1527
 1828TIP3    H226900   0.813   2.201  14.948  0.4067 -1.0437 -0.7277
 1829TIP3   OH226901   4.710   3.238   4.816  0.5194 -0.6444  0.4170
 1829TIP3    H126902   4.699   3.301   4.744 -1.3561 -0.9373  0.4004
 1829TIP3    H226903   4.776   3.277   4.872  1.2454  0.1050 -0.9182
 1830TIP3   OH226904   2.302   0.898   9.901  0.2095 -0.1205  0.5663
 1830TIP3    H126905   2.329   0.990   9.900 -1.0892  0.2998 -1.1700
 1830TIP3    H226906   2.220   0.898   9.951  0.7104 -0.5110  1.3970
 1831TIP3   OH226907   4.810   0.692   4.768  0.4133 -0.0835 -0.1462
 1831TIP3    H126908   4.810   0.730   4.680  0.1915 -1.2696 -0.6814
 1831TIP3    H226909   4.902   0.669   4.784  0.2339 -1.4137 -0.8017
 1832TIP3   OH226910   3.089   2.571   1.161 -0.5734 -0.0681 -0.7536
 1832TIP3    H126911   3.059   2.515   1.089 -0.0943 -0.6583 -0.4993
 1832TIP3    H226912   3.183   2.581   1.146 -0.9636  2.4769 -2.0283
 1833TIP3   OH226913   0.278   1.182   4.443 -0.5938  0.0890 -0.0169
 1833TIP3    H126914   0.258   1.187   4.537 -2.8838 -1.6477 -0.3105
 1833TIP3    H226915   0.198   1.146   4.404 -0.5734  2.8154 -2.9851
 1834TIP3   OH226916   3.268   3.822   5.075 -0.0904 -0.0996 -0.0695
 1834TIP3    H126917   3.293   3.831   5.167  0.7974 -2.5505  0.0079
 1834TIP3    H226918   3.347   3.790   5.031 -1.1158 -1.2137 -1.1975
 1835TIP3   OH226919   4.620   3.709  11.457 -0.4510  0.2797 -0.0780
 1835TIP3    H126920   4.643   3.761  11.380  0.4278  0.1320  0.0751
 1835TIP3    H226921   4.589   3.626  11.420 -1.8898  0.8878 -0.3242
 1836TIP3   OH226922   6.551   2.716  15.974 -0.5950 -0.5711 -0.1038
 1836TIP3    H126923   6.507   2.800  15.986 -1.2921 -1.0047  0.5663
 1836TIP3    H226924   6.637   2.728  16.014 -0.5316 -0.0494 -0.3943
 1837TIP3   OH226925   1.961   5.506  11.491 -0.0207 -0.1820  0.5085
 1837TIP3    H126926   1.971   5.590  11.538 -0.9135  0.2168  0.0090
 1837TIP3    H226927   1.889   5.521  11.430 -0.1515 -1.3043  0.3651
 1838TIP3   OH226928   4.583   2.817   5.597  0.0988 -0.0925  0.2397
 1838TIP3    H126929   4.675   2.812   5.624 -0.5318  0.1639  2.7283
 1838TIP3    H226930   4.584   2.795   5.504  2.8210  1.1705 -0.1541
 1839TIP3   OH226931   4.059   5.853  15.608 -0.7531 -0.3837  0.4101
 1839TIP3    H126932   3.966   5.871  15.619 -1.4756 -2.3063 -1.7821
 1839TIP3    H226933   4.094   5.933  15.567 -1.3071  0.5213  1.6466
 1840TIP3   OH226934   2.661   6.596   3.574 -0.5763 -0.0213  0.2561
 1840TIP3    H126935   2.724   6.525   3.565  0.6577  1.0861  0.0258
 1840TIP3    H226936   2.672   6.626   3.664  0.7148  1.5304 -0.3912
 1841TIP3   OH226937   4.518   3.667  12.743 -0.2150 -0.1498 -0.1844
 1841TIP3    H126938   4.592   3.725  12.758 -0.2675  0.5300 -2.3191
 1841TIP3    H226939   4.517   3.609  12.820 -0.3741  2.8034  2.2148
 1842TIP3   OH226940   5.306   4.441  16.647 -0.4087 -0.5545  0.3646
 1842TIP3    H126941   5.370   4.389  16.695  0.3421 -2.7925 -2.6835
 1842TIP3    H226942   5.357   4.511  16.607  0.3808 -2.3410 -2.0702
 1843TIP3   OH226943   3.261   3.873  15.795 -0.4024 -0.0863 -0.3347
 1843TIP3    H126944   3.345   3.873  15.840  0.3842 -0.5317 -1.7230
 1843TIP3    H226945   3.271   3.935  15.723 -0.4419 -1.7734 -1.8772
 1844TIP3   OH226946   5.644   3.841   2.237  0.5562 -0.5370  0.4017
 1844TIP3    H126947   5.639   3.815   2.145 -0.4710 -0.8307  0.5360
 1844TIP3    H226948   5.554   3.835   2.269  0.5626  1.4346  0.9183
 1845TIP3   OH226949   2.227   2.386   3.991 -0.6596 -0.8710  0.2477
 1845TIP3    H126950   2.308   2.424   3.956 -0.4919 -0.5300  0.9765
 1845TIP3    H226951   2.230   2.405   4.085 -1.9063 -0.2614  0.1884
 1846TIP3   OH226952   2.558   5.722   4.813  0.3897  0.2535 -0.3664
 1846TIP3    H126953   2.522   5.752   4.729  1.7471  1.4255 -0.5588
 1846TIP3    H226954   2.525   5.633   4.822  1.8791 -0.7235 -3.1929
 1847TIP3   OH226955   2.953   4.770   4.272  0.3352 -0.2009  0.3278
 1847TIP3    H126956   2.934   4.681   4.243 -0.6027  0.4198 -1.0889
 1847TIP3    H226957   2.875   4.797   4.321  0.2675  0.1119  0.0541
 1848TIP3   OH226958   2.845   4.124   1.477  0.0781 -0.2207 -0.5186
 1848TIP3    H126959   2.860   4.219   1.478  0.4141 -0.2689 -0.6841
 1848TIP3    H226960   2.850   4.101   1.384 -3.3797  0.1158 -0.9081
 1849TIP3   OH226961   4.073   0.521   6.008  0.6633 -0.4919  0.5096
 1849TIP3    H126962   4.081   0.591   6.073 -3.2321 -1.7230  2.6776
 1849TIP3    H226963   4.159   0.516   5.967  1.9220  3.6793  2.0991
 1850TIP3   OH226964   3.559   2.267   4.474 -0.4026  0.3760 -0.1680
 1850TIP3    H126965   3.604   2.351   4.463  1.3389 -0.4610  0.3116
 1850TIP3    H226966   3.615   2.217   4.533 -1.2247 -1.2742 -0.7328
 1851TIP3   OH226967   2.967   5.751  16.591 -0.2119 -0.7335 -0.0188
 1851TIP3    H126968   2.924   5.814  16.533 -1.2369  0.8731  2.3333
 1851TIP3    H226969   2.982   5.674  16.536 -1.1506  0.6601 -2.3634
 1852TIP3   OH226970   4.356   3.238   5.567 -0.4128 -0.0799  0.4514
 1852TIP3    H126971   4.354   3.322   5.521 -0.8541 -0.0820  0.4633
 1852TIP3    H226972   4.449   3.218   5.575 -0.3256  0.0115 -0.2703
 1853TIP3   OH226973   6.052   0.872  11.992  0.0888  0.5281  0.2854
 1853TIP3    H126974   6.062   0.834  12.080  0.4648  1.0012  0.4476
 1853TIP3    H226975   5.990   0.944  12.004  0.7969  1.1462  0.3354
 1854TIP3   OH226976   6.345   0.444   2.651 -0.0054 -0.5503  0.3438
 1854TIP3    H126977   6.304   0.522   2.613 -1.9916 -1.7509 -0.0733
 1854TIP3    H226978   6.431   0.475   2.679 -0.8404  1.8717  0.4923
 1855TIP3   OH226979   6.310   6.497   1.796  0.0246 -0.2663  0.8295
 1855TIP3    H126980   6.345   6.578   1.831  2.2387 -0.8615  0.1524
 1855TIP3    H226981   6.250   6.465   1.864 -0.3562  1.5322  1.4032
 1856TIP3   OH226982   0.457   5.506  16.649  0.4393 -0.1176  0.5064
 1856TIP3    H126983   0.500   5.534  16.730  0.2023  0.6619  0.3765
 1856TIP3    H226984   0.367   5.487  16.675  0.3785  0.0757  0.4410
 1857TIP3   OH226985   2.187   4.627  15.521 -0.9258 -0.6054 -0.1151
 1857TIP3    H126986   2.109   4.663  15.479 -0.7773 -2.9171 -2.6369
 1857TIP3    H226987   2.256   4.689  15.499 -1.2998 -0.6347 -1.5240
 1858TIP3   OH226988   2.309   4.253  14.507 -0.0851  0.7890 -0.5525
 1858TIP3    H126989   2.281   4.176  14.556  1.2119  0.7434  0.1617
 1858TIP3    H226990   2.308   4.225  14.416 -1.3281  0.4842 -0.4576
 1859TIP3   OH226991   3.380   0.484   0.883 -0.0814 -0.2049 -0.0939
 1859TIP3    H126992   3.421   0.546   0.823 -1.0124  0.7933  0.2666
 1859TIP3    H226993   3.419   0.399   0.861  0.8205  0.4123 -0.9590
 1860TIP3   OH226994   4.973   4.669  12.783  0.3132 -0.5116 -0.2433
 1860TIP3    H126995   4.927   4.617  12.849 -0.7893  0.1198 -0.4747
 1860TIP3    H226996   5.002   4.606  12.718  1.0780 -1.0992  0.6443
 1861TIP3   OH226997   2.650   1.487  13.752  0.2826  0.1796 -0.1814
 1861TIP3    H126998   2.683   1.410  13.706 -0.6253 -1.0856  1.1854
 1861TIP3    H226999   2.719   1.510  13.814  0.0569 -0.3229  0.2671
 1862TIP3   OH227000   0.927   0.427  15.380  0.0985  0.3343 -0.2317
 1862TIP3    H127001   0.873   0.363  15.334  0.0198 -0.7579  1.3246
 1862TIP3    H227002   1.007   0.379  15.401  0.4913  1.0848  0.0027
 1863TIP3   OH227003   2.813   1.883   3.613 -0.2069  0.3435 -0.1376
 1863TIP3    H127004   2.846   1.903   3.700  1.5485  1.0478 -0.9190
 1863TIP3    H227005   2.832   1.790   3.601  3.3003  1.0621 -1.2069
 1864TIP3   OH227006   1.394   6.223  15.633 -0.1227 -0.2870 -0.2696
 1864TIP3    H127007   1.416   6.228  15.727  1.2028  1.3979 -0.6148
 1864TIP3    H227008   1.434   6.141  15.604  3.1940  1.0936 -0.1497
 1865TIP3   OH227009   5.420   0.253  15.483 -0.3646  0.9165  0.4105
 1865TIP3    H127010   5.364   0.316  15.436 -1.2526 -0.1959 -0.0612
 1865TIP3    H227011   5.506   0.263  15.443 -0.3540  2.1987  0.7023
 1866TIP3   OH227012   6.478   6.728  12.983  0.0107 -0.5865 -0.1540
 1866TIP3    H127013   6.512   6.672  13.053 -0.0475 -0.6601 -0.1857
 1866TIP3    H227014   6.421   6.791  13.029  1.8817  0.9372  0.2093
 1867TIP3   OH227015   0.275   1.395  13.996 -0.3355 -0.8047 -0.3397
 1867TIP3    H127016   0.247   1.409  13.906  1.3742  0.4121 -0.7363
 1867TIP3    H227017   0.349   1.454  14.007 -0.8660 -0.4924  2.0592
 1868TIP3   OH227018   6.341   5.196  16.472  0.2255  0.8632  0.2368
 1868TIP3    H127019   6.402   5.269  16.468  0.2422  0.8241 -0.4280
 1868TIP3    H227020   6.291   5.209  16.553  0.9192  1.0484  0.6398
 1869TIP3   OH227021   3.168   6.558  14.189 -0.1899 -0.3534  0.3552
 1869TIP3    H127022   3.218   6.585  14.266 -0.7155  1.7196  0.0500
 1869TIP3    H227023   3.079   6.545  14.221 -0.7068  1.7669 -0.0190
 1870TIP3   OH227024   5.004   0.505   4.675  0.5675 -0.2481  0.3591
 1870TIP3    H127025   4.942   0.511   4.602  0.6625  0.7307  0.3503
 1870TIP3    H227026   5.058   0.429   4.653  0.3539 -0.1924 -0.4089
 1871TIP3   OH227027   2.448   3.005   3.015 -0.4918 -0.5640 -0.1289
 1871TIP3    H127028   2.458   3.028   2.923  1.9588 -0.1551  0.1790
 1871TIP3    H227029   2.368   3.051   3.043  0.6262  2.2014 -1.1772
 1872TIP3   OH227030   4.204   0.374   1.908 -0.0676  0.1952  0.2228
 1872TIP3    H127031   4.134   0.310   1.901 -0.1440  0.2125  0.7785
 1872TIP3    H227032   4.241   0.360   1.995 -0.3164  1.1391  0.4914
 1873TIP3   OH227033   6.276   6.207   1.336  0.4320  0.2582  0.5093
 1873TIP3    H127034   6.200   6.249   1.294 -1.3099 -0.7429  2.4384
 1873TIP3    H227035   6.345   6.210   1.270 -0.8535  2.4220 -0.8842
 1874TIP3   OH227036   1.800   0.090   5.204  0.0037  0.1744 -0.2563
 1874TIP3    H127037   1.783   0.080   5.298  1.3271  1.6778  0.1827
 1874TIP3    H227038   1.714   0.081   5.163 -1.1000  2.3295  1.3772
 1875TIP3   OH227039   0.331   3.474   0.534 -0.4141  0.0226 -0.1111
 1875TIP3    H127040   0.272   3.401   0.554  2.2239 -2.0420  0.7656
 1875TIP3    H227041   0.347   3.466   0.440  2.2259 -2.6271  0.4342
 1876TIP3   OH227042   1.562   4.752   1.080  0.3098 -0.5901  0.5087
 1876TIP3    H127043   1.507   4.778   1.154  1.0944 -0.6253  1.1183
 1876TIP3    H227044   1.549   4.657   1.073  0.1382 -0.5682  0.5211
 1877TIP3   OH227045   1.582   5.016  16.382 -0.0352  0.1827  0.5211
 1877TIP3    H127046   1.519   4.990  16.315  1.3415  0.5301 -0.9705
 1877TIP3    H227047   1.531   5.064  16.447 -1.2365  0.8372 -0.8631
 1878TIP3   OH227048   5.787   0.833  15.518 -0.2226 -0.2854  0.2592
 1878TIP3    H127049   5.757   0.744  15.497  4.2355 -2.7755  2.7472
 1878TIP3    H227050   5.735   0.858  15.594 -1.7391 -0.5949 -0.6412
 1879TIP3   OH227051   3.752   4.147  10.031  0.1177  0.4091  0.2318
 1879TIP3    H127052   3.697   4.218  10.064  1.0591  0.9038  0.7727
 1879TIP3    H227053   3.758   4.086  10.105 -2.9205 -1.7124 -1.0089
 1880TIP3   OH227054   2.040   0.168   5.765  0.3977  0.3861 -0.1049
 1880TIP3    H127055   2.005   0.257   5.759  0.3048  0.6077  2.3981
 1880TIP3    H227056   1.964   0.111   5.757  0.1954  0.6221  0.1121
 1881TIP3   OH227057   2.446   4.891   0.053 -0.4801 -0.2454 -0.7617
 1881TIP3    H127058   2.404   4.963   0.006 -0.5996  0.0944 -0.1344
 1881TIP3    H227059   2.529   4.878   0.006 -0.5744  0.1227 -1.0376
 1882TIP3   OH227060   3.828   1.420   2.271  0.1457 -0.0783  0.3895
 1882TIP3    H127061   3.870   1.336   2.291 -2.4089 -1.7445 -0.7875
 1882TIP3    H227062   3.869   1.481   2.331  2.0650 -2.1526  1.3629
 1883TIP3   OH227063   1.439   3.533  15.875  0.2338  0.0286  0.0235
 1883TIP3    H127064   1.394   3.572  15.950 -0.4091 -0.6501  0.0029
 1883TIP3    H227065   1.532   3.536  15.898  0.0844  0.3686  0.5885
 1884TIP3   OH227066   4.509   4.389   2.299 -0.3980  0.5599  0.3064
 1884TIP3    H127067   4.575   4.394   2.230 -0.0777 -0.7091  0.5007
 1884TIP3    H227068   4.513   4.299   2.330 -0.6898  1.0383  1.8350
 1885TIP3   OH227069   0.695   5.860   0.827 -0.1859 -0.1784 -0.1757
 1885TIP3    H127070   0.622   5.847   0.887 -0.8786 -0.1862 -1.0082
 1885TIP3    H227071   0.754   5.920   0.873 -1.4712  1.0815 -0.1261
 1886TIP3   OH227072   4.470   2.038   2.197 -0.2310  0.5900 -0.2568
 1886TIP3    H127073   4.465   2.025   2.102  1.4560 -0.4771 -0.2430
 1886TIP3    H227074   4.419   2.117   2.213 -1.5357  0.1327 -1.8940
 1887TIP3   OH227075   5.016   6.800   5.569 -0.0630  0.2689  0.1251
 1887TIP3    H127076   5.017   6.796   5.473  0.0240  0.4692  0.1173
 1887TIP3    H227077   5.011   6.708   5.597 -2.7270  0.2755 -0.0814
 1888TIP3   OH227078   5.985   5.261  13.811 -0.4905 -0.6301  0.2400
 1888TIP3    H127079   6.060   5.319  13.821 -1.0763  0.1469  0.2635
 1888TIP3    H227080   5.943   5.290  13.730 -0.5256 -1.3452 -0.0098
 1889TIP3   OH227081   4.377   3.101   4.742 -0.1730  0.2014  0.1401
 1889TIP3    H127082   4.432   3.052   4.803 -1.0942 -2.2645 -0.8632
 1889TIP3    H227083   4.380   3.050   4.661  1.2650  3.5026 -2.1113
 1890TIP3   OH227084   1.700   3.187  14.911  0.3658 -0.2235  0.4873
 1890TIP3    H127085   1.739   3.111  14.954 -2.0223 -0.9885  1.5033
 1890TIP3    H227086   1.606   3.175  14.923 -0.5123 -0.0917 -4.3337
 1891TIP3   OH227087   0.840   5.628   5.614  0.1595  0.7021 -0.8714
 1891TIP3    H127088   0.755   5.596   5.584  0.9306 -2.0964 -0.3933
 1891TIP3    H227089   0.826   5.649   5.706 -0.3638  1.8021 -1.1874
 1892TIP3   OH227090   6.044   2.805  16.362  0.1853  0.1719  0.0431
 1892TIP3    H127091   6.082   2.881  16.319  0.3053  1.2895  2.0325
 1892TIP3    H227092   5.949   2.814  16.347  0.1617  0.9610  0.6335
 1893TIP3   OH227093   4.162   1.537  15.983  0.5316 -0.3711  0.2481
 1893TIP3    H127094   4.212   1.578  15.912 -1.0717 -0.6263 -1.1099
 1893TIP3    H227095   4.174   1.595  16.058  1.6193  0.3511 -0.4450
 1894TIP3   OH227096   1.372   0.809   0.720 -0.2787  1.0199 -0.1598
 1894TIP3    H127097   1.322   0.838   0.797  1.6181  2.7286  0.5106
 1894TIP3    H227098   1.450   0.768   0.757 -0.6206 -0.6771 -1.2037
 1895TIP3   OH227099   0.069   4.553  11.440  0.4594 -0.0488 -0.5330
 1895TIP3    H127100   0.142   4.538  11.381  0.4585  0.8210 -0.7681
 1895TIP3    H227101   0.014   4.475  11.431  2.4539 -1.7995  1.3266
 1896TIP3   OH227102   3.211   6.136   0.121 -0.1158  0.2100  0.3788
 1896TIP3    H127103   3.173   6.150   0.208 -1.7099  0.9985 -0.4188
 1896TIP3    H227104   3.292   6.187   0.122  1.0308 -1.4834  2.0989
 1897TIP3   OH227105   3.380   1.540  15.024  0.1141  0.7133 -0.2464
 1897TIP3    H127106   3.370   1.461  15.076  0.1741 -0.1814 -1.5701
 1897TIP3    H227107   3.305   1.595  15.049 -0.6335 -0.2893 -0.2325
 1898TIP3   OH227108   5.493   1.739   0.295  0.4121 -0.1720 -0.5482
 1898TIP3    H127109   5.519   1.648   0.307  2.3326  0.3473 -0.4574
 1898TIP3    H227110   5.477   1.748   0.201 -0.1336 -0.6722 -0.5095
 1899TIP3   OH227111   4.161   1.442   5.601 -0.2032  0.3692  0.2283
 1899TIP3    H127112   4.121   1.357   5.621 -0.2848  0.3533  0.0029
 1899TIP3    H227113   4.251   1.435   5.631  0.0253 -0.0861 -0.5378
 1900TIP3   OH227114   4.514   6.308   2.351  0.1473 -0.5176  0.1307
 1900TIP3    H127115   4.605   6.337   2.341 -0.1770  0.7034  0.5060
 1900TIP3    H227116   4.474   6.324   2.266  0.2268 -0.8775  0.0227
 1901TIP3   OH227117   3.236   3.470  16.224 -0.9313 -0.4523  0.7478
 1901TIP3    H127118   3.156   3.500  16.181  0.1402 -0.6789 -1.5137
 1901TIP3    H227119   3.277   3.412  16.161  2.5314  1.9838  0.5065
 1902TIP3   OH227120   3.468   0.203  14.358  0.1837  0.5062  0.1326
 1902TIP3    H127121   3.548   0.153  14.344  0.5624  0.1433  3.0384
 1902TIP3    H227122   3.476   0.278  14.298  1.4503 -0.8181 -1.4480
 1903TIP3   OH227123   5.419   3.979   0.779 -0.6002  0.1210 -0.1967
 1903TIP3    H127124   5.423   4.033   0.699 -2.7031  0.8575  0.1266
 1903TIP3    H227125   5.330   3.945   0.780  0.3654 -2.6066  0.1687
 1904TIP3   OH227126   5.128   6.829  13.023  0.1758 -0.3664 -0.3026
 1904TIP3    H127127   5.052   6.775  13.002 -0.0706 -0.3198  0.4426
 1904TIP3    H227128   5.152   6.803  13.112  0.3931  0.3524 -0.1423
 1905TIP3   OH227129   6.069   0.450   2.260 -0.4026 -0.4420  0.3866
 1905TIP3    H127130   6.051   0.440   2.353  0.4721 -0.2335  0.5788
 1905TIP3    H227131   6.070   0.545   2.246  0.1721 -0.4610  0.3028
 1906TIP3   OH227132   3.830   4.834  12.282  0.0562 -0.8310 -0.2492
 1906TIP3    H127133   3.787   4.909  12.323 -0.4474 -1.9776  1.4488
 1906TIP3    H227134   3.759   4.772  12.265  0.4542 -0.9326 -1.6971
 1907TIP3   OH227135   1.095   2.467   0.008 -0.1235  0.5703  0.3811
 1907TIP3    H127136   1.051   2.466  -0.077 -1.9204 -1.3080  1.2482
 1907TIP3    H227137   1.188   2.477  -0.013 -0.6182  1.2449 -1.7121
 1908TIP3   OH227138   1.947   3.164  12.402  0.1851 -0.2220  0.0487
 1908TIP3    H127139   1.916   3.232  12.342  0.4282 -1.7118 -1.9069
 1908TIP3    H227140   1.929   3.198  12.489 -1.0573  1.6843 -0.8801
 1909TIP3   OH227141   4.075   1.583  11.906 -0.5237  0.5846  0.2276
 1909TIP3    H127142   4.120   1.664  11.882 -0.1636  0.3331  0.0489
 1909TIP3    H227143   4.030   1.556  11.826  0.4827 -0.1266 -0.1102
 1910TIP3   OH227144   5.102   1.068  12.975  0.1602 -0.4394 -0.3390
 1910TIP3    H127145   5.136   0.999  13.033 -0.3456 -0.8631 -0.5365
 1910TIP3    H227146   5.082   1.141  13.033 -0.0268 -0.7417 -0.0172
 1911TIP3   OH227147   6.183   4.915   5.009 -0.3753  0.1629  0.2255
 1911TIP3    H127148   6.276   4.902   5.026 -0.4725 -0.9256  0.0091
 1911TIP3    H227149   6.149   4.827   4.994 -0.9696  0.7149 -2.1062
 1912TIP3   OH227150   6.514   3.208   5.647 -0.4825  0.2978  0.1805
 1912TIP3    H127151   6.560   3.143   5.594 -1.9532  0.4054 -1.2807
 1912TIP3    H227152   6.553   3.199   5.734 -0.1371 -2.0212 -0.1576
 1913TIP3   OH227153   5.657   6.506  16.410  0.3801 -0.0137 -0.6047
 1913TIP3    H127154   5.737   6.527  16.362  0.8576  0.2952  0.2940
 1913TIP3    H227155   5.651   6.574  16.477 -2.3090  1.8401 -2.5426
 1914TIP3   OH227156   3.247   5.907  14.622 -0.1784 -0.2924 -0.3576
 1914TIP3    H127157   3.230   5.991  14.578 -1.3220 -0.1633  0.2850
 1914TIP3    H227158   3.183   5.847  14.585  0.8642 -1.0065 -1.0670
 1915TIP3   OH227159   2.971   4.690  13.233 -0.1662  0.0633 -0.2910
 1915TIP3    H127160   2.890   4.732  13.204 -0.0619  0.2410 -0.3259
 1915TIP3    H227161   3.026   4.686  13.154 -0.5641 -1.0637 -0.5350
 1916TIP3   OH227162   5.664   4.617   2.203 -0.4973  0.2206  0.4887
 1916TIP3    H127163   5.729   4.556   2.167  1.1224  1.5501  1.0027
 1916TIP3    H227164   5.598   4.561   2.243 -0.6087 -1.2279 -1.5859
 1917TIP3   OH227165   5.175   2.634  15.603 -0.2812 -0.1245  0.3601
 1917TIP3    H127166   5.184   2.626  15.508  1.4456  0.8139  0.4071
 1917TIP3    H227167   5.179   2.728  15.619 -0.5963 -0.2730  1.3628
 1918TIP3   OH227168   0.627   5.846  11.253 -0.3356  0.4016  0.3172
 1918TIP3    H127169   0.714   5.883  11.242 -0.4577  1.2328  1.8647
 1918TIP3    H227170   0.593   5.837  11.164  1.6523 -0.8081 -0.3834
 1919TIP3   OH227171   4.539   5.614  10.959  0.7880 -0.0863 -0.5882
 1919TIP3    H127172   4.510   5.634  10.870  1.9159  3.0801 -0.3734
 1919TIP3    H227173   4.458   5.609  11.010  0.2163 -0.2311 -1.4900
 1920TIP3   OH227174   0.524   4.605   3.035 -0.0205  0.2161 -0.0125
 1920TIP3    H127175   0.493   4.681   2.987 -0.4958 -0.4138 -0.7170
 1920TIP3    H227176   0.444   4.564   3.070  0.3535  1.2687  2.2985
 1921TIP3   OH227177   3.461   6.567   5.025 -0.4068 -0.1138 -0.1188
 1921TIP3    H127178   3.465   6.599   5.115  0.4345 -0.4280 -0.0324
 1921TIP3    H227179   3.514   6.630   4.975 -0.0115 -0.5116 -0.2071
 1922TIP3   OH227180   3.052   1.222  16.400 -0.9745 -1.0099  0.3360
 1922TIP3    H127181   2.977   1.280  16.409 -0.8858 -0.8184 -0.1516
 1922TIP3    H227182   3.015   1.134  16.398 -1.3606 -0.8503 -1.6833
 1923TIP3   OH227183   0.761   4.271  11.622 -0.5000  0.0420 -0.1612
 1923TIP3    H127184   0.785   4.313  11.539 -2.0596 -0.1447 -0.7284
 1923TIP3    H227185   0.731   4.184  11.597 -1.9410  0.3257  0.4759
 1924TIP3   OH227186   4.084   6.065  15.410  0.1043  0.4145 -0.0725
 1924TIP3    H127187   4.086   6.052  15.316  0.4408  2.5179 -0.4063
 1924TIP3    H227188   3.991   6.078  15.431  0.0551  0.1983 -0.1635
 1925TIP3   OH227189   0.717   4.868  11.279 -0.5726 -0.3302 -0.0478
 1925TIP3    H127190   0.748   4.779  11.295 -1.0538 -0.4463  0.2540
 1925TIP3    H227191   0.682   4.867  11.190  1.5091  0.1475 -0.9423
 1926TIP3   OH227192   2.966   5.662  12.876 -0.1703  0.1555 -0.3837
 1926TIP3    H127193   3.034   5.607  12.836 -1.1204 -1.7440  0.4803
 1926TIP3    H227194   3.014   5.736  12.913  1.4265 -1.0364  0.0485
 1927TIP3   OH227195   4.882   1.244   1.312 -0.2979 -0.0537 -0.5494
 1927TIP3    H127196   4.874   1.224   1.406  1.0601  0.8695 -0.2187
 1927TIP3    H227197   4.951   1.185   1.281 -0.8501 -0.4665 -1.0251
 1928TIP3   OH227198   0.684   2.384   3.337 -0.5917  0.7265 -0.8477
 1928TIP3    H127199   0.687   2.407   3.244 -0.1506  3.2614 -0.3020
 1928TIP3    H227200   0.610   2.435   3.372 -1.1630 -0.6826  0.1110
 1929TIP3   OH227201   0.869   4.431   4.254 -1.1137 -0.2194  0.0274
 1929TIP3    H127202   0.884   4.502   4.316 -0.1806 -0.2459 -0.1553
 1929TIP3    H227203   0.902   4.353   4.299 -1.9393 -0.5207  0.1435
 1930TIP3   OH227204   3.141   6.720   3.531 -0.6072 -0.3295  0.1139
 1930TIP3    H127205   3.217   6.765   3.566 -0.1774 -1.8193  1.1670
 1930TIP3    H227206   3.066   6.760   3.575 -0.4408  0.9028 -0.6741
 1931TIP3   OH227207   6.621   2.164   3.598 -0.1107  0.0786 -0.8912
 1931TIP3    H127208   6.653   2.210   3.675 -0.2687 -1.6501  0.2426
 1931TIP3    H227209   6.605   2.234   3.534 -0.0551  1.5607  0.6439
 1932TIP3   OH227210   6.271   1.866   3.958  0.0136  0.0585  0.1634
 1932TIP3    H127211   6.224   1.887   3.878  0.2822 -1.1171 -0.3255
 1932TIP3    H227212   6.279   1.950   4.004 -1.0450  0.5688 -0.5395
 1933TIP3   OH227213   0.100   2.342  12.926 -0.4881  0.7611  0.3475
 1933TIP3    H127214   0.112   2.391  13.008  0.0088  1.2412 -0.0049
 1933TIP3    H227215   0.183   2.295  12.915 -0.6929  0.4144  0.3088
 1934TIP3   OH227216   3.757   1.627  11.812  0.0350 -0.0819 -0.1783
 1934TIP3    H127217   3.744   1.534  11.831  0.9966 -0.2906 -0.4954
 1934TIP3    H227218   3.705   1.644  11.734 -1.4372  0.0418  0.7908
 1935TIP3   OH227219   6.618   5.049   3.465  0.3778  0.5839  0.1364
 1935TIP3    H127220   6.615   5.087   3.377  2.5014 -0.4322 -0.4327
 1935TIP3    H227221   6.656   5.119   3.520  1.2451  0.4302 -0.2500
 1936TIP3   OH227222   4.738   4.343   3.224  0.1895  0.4874  0.2064
 1936TIP3    H127223   4.769   4.332   3.134  1.3256  3.9831  0.0142
 1936TIP3    H227224   4.797   4.408   3.262 -0.6088 -0.4420  3.3543
 1937TIP3   OH227225   3.265   4.464   6.079 -0.1162 -0.2048 -0.4576
 1937TIP3    H127226   3.242   4.495   5.991 -0.9601 -1.0762 -0.5652
 1937TIP3    H227227   3.185   4.421   6.111 -0.2575  1.2579  1.2833
 1938TIP3   OH227228   1.438   5.464   0.495 -0.1324 -0.1309  0.3193
 1938TIP3    H127229   1.381   5.399   0.453 -0.7193  0.3640  0.3390
 1938TIP3    H227230   1.499   5.411   0.547  0.5695 -0.7590 -1.0727
 1939TIP3   OH227231   1.001   0.660   0.227  0.1204 -0.1799  0.2216
 1939TIP3    H127232   1.069   0.698   0.172 -0.0734 -1.7076 -1.1627
 1939TIP3    H227233   0.947   0.734   0.254  0.3737  0.6490 -1.4481
 1940TIP3   OH227234   3.760   0.012  15.051 -0.5355  0.4485  0.2064
 1940TIP3    H127235   3.694  -0.018  14.989  0.4393  1.3274 -1.3026
 1940TIP3    H227236   3.766   0.106  15.036  1.1515  0.3629  0.2084
 1941TIP3   OH227237   3.879   4.926   3.707 -0.2964 -0.3402 -0.0860
 1941TIP3    H127238   3.883   4.851   3.766 -2.6943 -0.3946  0.1339
 1941TIP3    H227239   3.848   4.998   3.762  3.6500  1.4134  0.1422
 1942TIP3   OH227240   4.721   6.243  11.170 -0.2420 -0.2750  0.0965
 1942TIP3    H127241   4.800   6.255  11.117 -0.8036 -2.4497 -1.3538
 1942TIP3    H227242   4.754   6.228  11.259  0.8041  1.4444  0.0574
 1943TIP3   OH227243   4.390   4.222  15.689  0.1403 -0.1534 -0.6034
 1943TIP3    H127244   4.303   4.189  15.715 -0.5499  1.2616 -1.0084
 1943TIP3    H227245   4.396   4.201  15.596 -0.3033  0.7920 -0.8636
 1944TIP3   OH227246   4.456   5.238  10.374  0.2672 -0.6056  0.2305
 1944TIP3    H127247   4.360   5.240  10.364  0.2455 -1.3311  0.2321
 1944TIP3    H227248   4.483   5.157  10.331  0.7545 -0.9899  1.2318
 1945TIP3   OH227249   4.807   3.800  11.832  0.4362  0.0409 -0.4108
 1945TIP3    H127250   4.806   3.863  11.760  1.1839  1.6628  0.9226
 1945TIP3    H227251   4.722   3.756  11.828  0.5414 -0.0329 -2.3649
 1946TIP3   OH227252   0.787   2.986  12.388 -0.7819  0.1375  0.1435
 1946TIP3    H127253   0.809   3.051  12.455 -1.5007  0.1461  0.3785
 1946TIP3    H227254   0.807   2.902  12.429  1.8873  0.2219 -0.7907
 1947TIP3   OH227255   4.610   2.931   2.595  0.4324  0.7703  0.0043
 1947TIP3    H127256   4.591   3.018   2.630 -1.2659  1.2869 -1.9907
 1947TIP3    H227257   4.529   2.882   2.605  1.0128 -0.2163  0.0360
 1948TIP3   OH227258   2.199   2.874   4.493  0.1843  0.1338 -0.7508
 1948TIP3    H127259   2.276   2.824   4.519  1.6764  1.6655 -2.0026
 1948TIP3    H227260   2.185   2.849   4.402  0.4595  1.3526 -1.1407
 1949TIP3   OH227261   0.351   6.502   1.200 -0.0336 -0.7609 -0.5418
 1949TIP3    H127262   0.375   6.422   1.247 -1.2091 -1.3548 -0.9038
 1949TIP3    H227263   0.277   6.476   1.146 -0.9293  0.7610 -0.0982
 1950TIP3   OH227264   0.472   3.616  16.168  0.2145  0.0246  0.7789
 1950TIP3    H127265   0.565   3.638  16.170  0.3096 -0.1033 -0.9309
 1950TIP3    H227266   0.429   3.697  16.143 -0.0807 -0.0716  0.9705
 1951TIP3   OH227267   4.019   0.170   2.296 -0.3988  0.2716  0.4561
 1951TIP3    H127268   4.075   0.130   2.362  0.8339  2.0797  0.5597
 1951TIP3    H227269   4.069   0.164   2.214  0.5930  2.9927  0.7758
 1952TIP3   OH227270   3.799   5.076   0.095  0.3513 -0.4664  0.0181
 1952TIP3    H127271   3.709   5.104   0.114  0.9070 -0.0613  2.3663
 1952TIP3    H227272   3.813   5.103   0.004 -2.0032 -0.8868 -0.5466
 1953TIP3   OH227273   5.171   0.183  14.559  0.9771  0.0183 -0.5064
 1953TIP3    H127274   5.213   0.267  14.540  2.2934 -0.2732  0.9067
 1953TIP3    H227275   5.237   0.118  14.536  0.6736 -0.5386  0.1755
 1954TIP3   OH227276   4.205   0.989   3.953 -0.6925 -0.2714 -0.4977
 1954TIP3    H127277   4.154   1.055   3.906 -2.4614 -1.3354 -0.1394
 1954TIP3    H227278   4.193   1.011   4.045  0.0906 -0.1209 -0.4253
 1955TIP3   OH227279   1.534   0.732  11.209  0.7310  0.1212 -0.2151
 1955TIP3    H127280   1.573   0.761  11.127  2.6735 -0.5238  0.4133
 1955TIP3    H227281   1.545   0.637  11.209  1.6436  0.1965  1.1714
 1956TIP3   OH227282   0.764   3.576  14.967 -1.1655 -0.2990 -0.4160
 1956TIP3    H127283   0.712   3.508  14.923  0.3361 -1.1065 -1.0394
 1956TIP3    H227284   0.837   3.528  15.006  0.1698  0.9999 -1.2228
 1957TIP3   OH227285   2.568   3.531   3.701  0.6626  0.5401  0.2448
 1957TIP3    H127286   2.534   3.473   3.770 -0.7475  0.8122 -0.1906
 1957TIP3    H227287   2.496   3.540   3.640  2.1268 -0.3223 -1.7334
 1958TIP3   OH227288   3.902   5.487  14.458  0.1563 -1.1866  0.0316
 1958TIP3    H127289   3.818   5.495  14.503  1.2318  0.8536  1.8806
 1958TIP3    H227290   3.951   5.424  14.510  0.7933 -0.1077  0.7820
 1959TIP3   OH227291   6.404   1.876  11.762  0.4241 -0.5182 -0.0239
 1959TIP3    H127292   6.402   1.968  11.735 -0.0891 -1.2493 -2.7772
 1959TIP3    H227293   6.430   1.879  11.854  0.0977  2.3826  0.0744
 1960TIP3   OH227294   5.199   1.166  11.602  0.4870  0.0982  0.5282
 1960TIP3    H127295   5.247   1.228  11.547 -0.1933  0.4392  0.3128
 1960TIP3    H227296   5.118   1.211  11.625 -0.1542 -0.8080  0.1235
 1961TIP3   OH227297   2.374   5.616  11.658  0.0441  0.2542  0.1851
 1961TIP3    H127298   2.362   5.594  11.566  0.3411 -0.7835  0.3817
 1961TIP3    H227299   2.397   5.533  11.700 -0.7540  0.5739  1.3160
 1962TIP3   OH227300   5.896   0.351  13.095  0.0720  0.4515 -0.0876
 1962TIP3    H127301   5.931   0.362  13.007 -0.0047  1.9543  0.0428
 1962TIP3    H227302   5.914   0.434  13.139 -0.7052  0.0617  1.0290
 1963TIP3   OH227303   3.820   3.931   3.324  0.3099  0.1545  0.7810
 1963TIP3    H127304   3.740   3.932   3.377  0.5217 -2.0788  1.2563
 1963TIP3    H227305   3.891   3.950   3.386  0.3613 -0.3905  0.8975
 1964TIP3   OH227306   2.578   2.388  12.917  0.3752 -0.1767 -0.2200
 1964TIP3    H127307   2.492   2.345  12.920  0.7041 -0.8094  1.3534
 1964TIP3    H227308   2.557   2.481  12.906 -0.3779 -0.5723 -2.7116
 1965TIP3   OH227309   4.337   4.988  15.212 -0.3341  0.6052 -0.0909
 1965TIP3    H127310   4.384   5.013  15.291 -0.9758 -0.1735  0.5671
 1965TIP3    H227311   4.244   4.992  15.237 -0.5080 -1.5456 -0.1639
 1966TIP3   OH227312   0.814   0.667   9.980  0.0438 -0.2206  0.2452
 1966TIP3    H127313   0.778   0.734   9.922 -0.3112  0.9219  1.7323
 1966TIP3    H227314   0.904   0.695   9.996  0.0484 -0.3663  0.4826
 1967TIP3   OH227315   6.348   5.288  12.679 -0.4954  0.1553  0.0603
 1967TIP3    H127316   6.303   5.205  12.690  0.0783 -0.0651  0.7918
 1967TIP3    H227317   6.437   5.272  12.710 -0.1014  0.7759 -0.7046
 1968TIP3   OH227318   1.846   2.598  16.408 -0.4037  0.1429  0.1159
 1968TIP3    H127319   1.918   2.550  16.366  0.6672  0.4526  1.5577
 1968TIP3    H227320   1.781   2.530  16.427  0.6900 -0.6208  1.2733
 1969TIP3   OH227321   6.638   5.027   4.778 -0.0830  0.7875 -0.9379
 1969TIP3    H127322   6.618   4.975   4.856 -0.0482  2.9707  0.6034
 1969TIP3    H227323   6.564   5.010   4.719 -0.3616 -0.5147 -0.2542
 1970TIP3   OH227324   6.517   3.295   1.109 -0.2551  0.0757 -0.4850
 1970TIP3    H127325   6.587   3.236   1.135 -1.6249 -0.5752  2.1585
 1970TIP3    H227326   6.561   3.373   1.076  1.6727 -0.7274  0.0915
 1971TIP3   OH227327   4.260   2.787   1.815 -0.0721 -0.3431 -0.0402
 1971TIP3    H127328   4.250   2.804   1.721 -1.2582  0.1538  0.1611
 1971TIP3    H227329   4.233   2.696   1.827  0.1595 -0.4313 -0.1945
 1972TIP3   OH227330   5.219   3.320   4.539  0.4668 -0.1327 -0.1553
 1972TIP3    H127331   5.246   3.255   4.603  0.6178  2.1287  2.2292
 1972TIP3    H227332   5.128   3.340   4.561  0.2571  0.1032 -1.1721
 1973TIP3   OH227333   6.718   0.657  13.453  0.2524 -0.7048  0.0020
 1973TIP3    H127334   6.705   0.636  13.360 -2.0942  0.2784  0.0310
 1973TIP3    H227335   6.745   0.749  13.452 -1.4561 -0.1641  0.3062
 1974TIP3   OH227336   6.362   1.725  14.665  0.9971  0.6005  0.1580
 1974TIP3    H127337   6.365   1.658  14.597  0.3805  1.5302 -0.8111
 1974TIP3    H227338   6.400   1.803  14.624 -1.5124  1.8517  0.0728
 1975TIP3   OH227339   1.773   3.344  12.239  0.6567 -0.3724 -0.3522
 1975TIP3    H127340   1.717   3.281  12.285  0.5210 -0.4177 -0.5780
 1975TIP3    H227341   1.730   3.357  12.154 -0.0289  0.9939  0.1656
 1976TIP3   OH227342   6.631   3.267   4.355  0.2004  0.9308  0.3692
 1976TIP3    H127343   6.569   3.203   4.389  0.8558  0.5449  0.8670
 1976TIP3    H227344   6.670   3.307   4.433  2.3154 -0.5460  0.1562
 1977TIP3   OH227345   5.143   5.456   3.094  0.0432  0.4403 -0.0943
 1977TIP3    H127346   5.150   5.414   3.008  0.7003  1.9401 -0.8016
 1977TIP3    H227347   5.116   5.545   3.075 -0.6264  0.5727  1.3324
 1978TIP3   OH227348   3.200   6.079   2.560  0.7077  0.1086 -0.2691
 1978TIP3    H127349   3.164   6.135   2.491  1.7756  0.6738 -0.3965
 1978TIP3    H227350   3.203   5.992   2.522  0.6719  0.2939 -0.7029
 1979TIP3   OH227351   4.342   0.637  13.993  0.6205 -0.1006  0.1786
 1979TIP3    H127352   4.321   0.585  13.915  0.4019 -0.2030  0.3066
 1979TIP3    H227353   4.436   0.652  13.986  0.1287  2.7904 -1.8979
 1980TIP3   OH227354   1.352   5.895  15.759 -0.5748  0.4661  0.1590
 1980TIP3    H127355   1.265   5.930  15.780 -0.4442  0.3217  0.9799
 1980TIP3    H227356   1.413   5.957  15.800 -0.2809  0.6487 -0.5407
 1981TIP3   OH227357   1.585   4.856  13.496  0.2218  0.0605 -0.0633
 1981TIP3    H127358   1.671   4.834  13.459  0.4749  0.8718  0.0089
 1981TIP3    H227359   1.606   4.902  13.577 -0.3215 -1.3614  0.9197
 1982TIP3   OH227360   1.840   6.272   4.196 -0.2787  0.0360 -0.3313
 1982TIP3    H127361   1.917   6.219   4.218  0.2984  1.4814  1.4458
 1982TIP3    H227362   1.864   6.361   4.224 -3.8311  0.0400  3.7254
 1983TIP3   OH227363   4.153   3.802  15.068  0.1576 -0.6278 -0.0814
 1983TIP3    H127364   4.152   3.839  15.156 -0.2175 -0.4682 -0.1493
 1983TIP3    H227365   4.207   3.724  15.075  2.5995  0.9283 -0.3536
 1984TIP3   OH227366   2.366   4.464  14.869 -0.5458 -0.2160  0.1278
 1984TIP3    H127367   2.397   4.374  14.884  0.3793  0.1465  0.5088
 1984TIP3    H227368   2.434   4.519  14.909 -1.1107  0.6541 -0.0866
 1985TIP3   OH227369   3.024   0.492   4.518 -0.1456  0.0547 -0.3314
 1985TIP3    H127370   3.045   0.531   4.433  0.6609  1.0282  0.2876
 1985TIP3    H227371   2.945   0.537   4.546 -0.2180 -0.0232 -0.4093
 1986TIP3   OH227372   4.145   5.129   1.222 -0.8189 -0.3388 -0.2349
 1986TIP3    H127373   4.170   5.039   1.200  0.8803  0.5239 -2.1880
 1986TIP3    H227374   4.057   5.121   1.258 -2.1473 -2.5168 -3.4528
 1987TIP3   OH227375   3.533   5.050   0.984  0.4211 -0.1248 -0.2402
 1987TIP3    H127376   3.537   5.004   0.900  0.8918  1.8005 -1.3262
 1987TIP3    H227377   3.482   4.992   1.040 -1.0087 -0.9083 -2.2261
 1988TIP3   OH227378   0.459   5.205   0.646 -0.8677  0.1923 -1.0279
 1988TIP3    H127379   0.395   5.137   0.625 -1.3206  0.0799  0.5634
 1988TIP3    H227380   0.513   5.167   0.715 -0.1216  0.8949 -1.2092
 1989TIP3   OH227381   6.498   2.822  12.136  0.0696 -0.0779 -0.2163
 1989TIP3    H127382   6.555   2.896  12.156 -0.4443 -0.1321  1.6420
 1989TIP3    H227383   6.550   2.766  12.080  0.2794  1.9360 -2.1808
 1990TIP3   OH227384   5.540   5.481   0.389 -0.1338  0.9523 -0.2697
 1990TIP3    H127385   5.483   5.558   0.398 -0.4699  0.4869  2.7261
 1990TIP3    H227386   5.485   5.414   0.350 -0.9310  1.2290  0.3513
 1991TIP3   OH227387   6.138   5.811  12.458  0.1633 -0.6352  0.0958
 1991TIP3    H127388   6.162   5.737  12.513  0.4757  0.0872  0.9676
 1991TIP3    H227389   6.049   5.833  12.485 -0.6882 -1.8858 -1.5330
 1992TIP3   OH227390   1.582   5.781   5.205  0.4178  0.2423  0.6565
 1992TIP3    H127391   1.506   5.834   5.231 -2.8181 -3.5442 -0.0085
 1992TIP3    H227392   1.630   5.767   5.287 -2.1813 -0.7258  2.1827
 1993TIP3   OH227393   5.254   2.178   2.089  0.1846  0.2605  0.1705
 1993TIP3    H127394   5.303   2.225   2.021 -0.6441  0.2828 -0.4326
 1993TIP3    H227395   5.211   2.247   2.139  0.1322  0.2102  0.1947
 1994TIP3   OH227396   1.245   4.135   3.202 -0.3137 -0.3152 -0.8619
 1994TIP3    H127397   1.298   4.147   3.282  1.3587 -1.2673 -1.7625
 1994TIP3    H227398   1.174   4.198   3.211 -0.4539 -0.7073  1.5957
 1995TIP3   OH227399   6.392   4.089  13.997 -0.1004  0.0135  0.2386
 1995TIP3    H127400   6.475   4.044  13.982 -0.9885 -1.2753 -1.0937
 1995TIP3    H227401   6.329   4.019  14.015 -1.5448  0.6474 -1.9712
 1996TIP3   OH227402   3.776   3.973  16.751  0.2598 -0.1781  0.2554
 1996TIP3    H127403   3.786   3.982  16.656  0.0249  2.0223  0.3875
 1996TIP3    H227404   3.826   4.045  16.787  0.8332 -1.3264  1.8691
 1997TIP3   OH227405   6.058   3.060   2.099  0.3694 -0.2200 -0.2643
 1997TIP3    H127406   6.123   3.128   2.116 -1.9394  1.8416  0.7263
 1997TIP3    H227407   6.083   3.025   2.013  1.9806  1.4361 -0.5349
 1998TIP3   OH227408   4.501   1.897  14.662 -0.2204 -0.0814 -0.6535
 1998TIP3    H127409   4.498   1.826  14.726 -1.1152 -0.6617 -1.3089
 1998TIP3    H227410   4.483   1.854  14.578 -1.9711  1.0794 -0.9269
 1999TIP3   OH227411   1.864   1.566   2.138 -0.1004 -0.0625 -0.0357
 1999TIP3    H127412   1.769   1.574   2.147 -0.0788 -1.5397  2.4943
 1999TIP3    H227413   1.898   1.645   2.182 -0.1532 -0.3678  0.5602
 2000TIP3   OH227414   6.634   6.782   4.075  0.1593 -0.0241 -0.3543
 2000TIP3    H127415   6.725   6.754   4.087  0.3053 -0.5337 -2.2885
 2000TIP3    H227416   6.585   6.733   4.141  1.1852 -0.3126  0.2202
 2001TIP3   OH227417   5.470   0.161   2.154  0.5400 -0.2022  0.3077
 2001TIP3    H127418   5.386   0.151   2.109 -0.0312 -0.3977  1.3783
 2001TIP3    H227419   5.483   0.256   2.159 -0.1783 -0.1250  1.0961
 2002TIP3   OH227420   2.466   0.051  10.570  0.4132  0.2713  0.3158
 2002TIP3    H127421   2.390   0.098  10.533  0.1532  0.4731  1.0884
 2002TIP3    H227422   2.514   0.020  10.493 -0.1169  0.6804 -0.1960
 2003TIP3   OH227423   4.872   3.638  14.812 -0.3401  0.3011 -0.0653
 2003TIP3    H127424   4.859   3.723  14.769 -0.9695 -0.1855 -0.8581
 2003TIP3    H227425   4.856   3.574  14.743 -0.9195 -0.4914  0.7839
 2004TIP3   OH227426   4.915   2.428   5.676 -0.3161 -0.3138  0.1644
 2004TIP3    H127427   4.869   2.437   5.592  1.3222 -0.9951 -0.8683
 2004TIP3    H227428   4.912   2.515   5.715 -0.3749  0.2356 -1.0154
 2005TIP3   OH227429   1.574   0.381  14.744  0.4308 -0.1293  0.6049
 2005TIP3    H127430   1.616   0.401  14.828  0.1953 -2.1573  1.2488
 2005TIP3    H227431   1.480   0.387  14.762  0.3843 -0.1462  0.3728
 2006TIP3   OH227432   3.211   4.576   3.411  0.4345 -0.3033 -0.4177
 2006TIP3    H127433   3.198   4.633   3.486 -0.4218  0.0822 -0.8391
 2006TIP3    H227434   3.306   4.574   3.397  0.4683  1.1654 -0.5077
 2007TIP3   OH227435   2.188   2.847   3.235  0.2278  0.3000 -0.2209
 2007TIP3    H127436   2.231   2.902   3.170  1.1550 -0.8011 -0.5757
 2007TIP3    H227437   2.100   2.884   3.243 -0.4354 -0.3397 -3.1685
 2008TIP3   OH227438   1.495   1.681  16.684 -1.1461 -0.7622  0.5223
 2008TIP3    H127439   1.489   1.620  16.610 -1.6290 -0.0576 -0.0322
 2008TIP3    H227440   1.485   1.625  16.762 -0.2961 -1.5490  0.0723
 2009TIP3   OH227441   2.583   5.449   0.710  0.8447 -0.4092 -0.2585
 2009TIP3    H127442   2.632   5.527   0.737 -1.6974  1.1321  0.2195
 2009TIP3    H227443   2.568   5.401   0.792 -1.0032  0.7469  0.1499
 2010TIP3   OH227444   0.174   0.769   5.565  0.0356  0.0179  0.3700
 2010TIP3    H127445   0.124   0.817   5.631  1.3750  1.4439  0.4195
 2010TIP3    H227446   0.255   0.744   5.610  1.0525  1.1771 -0.7194
 2011TIP3   OH227447   0.207   0.950  13.532  0.2806 -0.2677 -0.7607
 2011TIP3    H127448   0.117   0.922  13.511  0.3120  0.0527 -1.3462
 2011TIP3    H227449   0.197   1.007  13.608  0.2683 -2.3072  0.8751
 2012TIP3   OH227450   0.818   5.050   5.312  0.2889  0.5015 -0.7167
 2012TIP3    H127451   0.887   5.042   5.246  0.8235 -2.4850  0.0678
 2012TIP3    H227452   0.865   5.050   5.395 -0.5725 -3.1723 -0.0781
 2013TIP3   OH227453   6.342   5.962  14.154  0.3582 -0.4378  0.2207
 2013TIP3    H127454   6.383   6.046  14.176  0.5370 -0.6901  0.8768
 2013TIP3    H227455   6.399   5.896  14.194 -0.0087 -0.8501  0.0697
 2014TIP3   OH227456   4.120   3.526   0.318  0.2113 -0.3904  0.2790
 2014TIP3    H127457   4.067   3.455   0.281  0.6121 -1.3403  1.4634
 2014TIP3    H227458   4.057   3.595   0.338 -0.1717 -0.3340 -1.0014
 2015TIP3   OH227459   6.690   1.903   3.540 -0.0642  0.3976 -0.0673
 2015TIP3    H127460   6.776   1.922   3.502  0.4268  5.0878  2.5233
 2015TIP3    H227461   6.651   1.990   3.555 -2.9458 -1.2595  3.7508
 2016TIP3   OH227462   0.683   5.532  15.110  0.2151  0.4833  0.0020
 2016TIP3    H127463   0.638   5.568  15.034 -1.7603  1.3019  1.4875
 2016TIP3    H227464   0.708   5.609  15.162 -1.6109 -0.0766  1.8594
 2017TIP3   OH227465   2.377   0.298   1.604 -0.2195  0.1052  0.6510
 2017TIP3    H127466   2.336   0.303   1.690 -1.1224  1.4656  0.1657
 2017TIP3    H227467   2.469   0.317   1.620 -0.4740  0.8810  1.2513
 2018TIP3   OH227468   6.005   3.187  15.356  0.2199 -0.0723  0.0476
 2018TIP3    H127469   6.059   3.145  15.422  0.8031 -0.0442 -0.4070
 2018TIP3    H227470   5.951   3.116  15.320 -0.7978  0.0806  1.2080
 2019TIP3   OH227471   5.698   2.754  13.095 -0.3232 -0.1155 -0.1534
 2019TIP3    H127472   5.754   2.677  13.089  1.4643  1.0695  0.5051
 2019TIP3    H227473   5.618   2.722  13.139 -0.4798 -1.9653 -1.6527
 2020TIP3   OH227474   3.900   6.827   5.825  0.3250 -0.8518  0.0809
 2020TIP3    H127475   3.819   6.779   5.841  0.0976 -0.4650  0.1129
 2020TIP3    H227476   3.871   6.917   5.809  0.5561 -1.0745 -1.9136
 2021TIP3   OH227477   2.502   0.081   1.833 -0.2510 -0.3545 -0.3237
 2021TIP3    H127478   2.540   0.110   1.750 -2.1751  1.1679 -0.7453
 2021TIP3    H227479   2.537  -0.008   1.845  1.7712  0.1922 -1.6361
 2022TIP3   OH227480   4.199   3.507   0.070  0.0663 -0.0488  0.1047
 2022TIP3    H127481   4.291   3.516   0.044  0.1530 -1.0366  0.0305
 2022TIP3    H227482   4.204   3.477   0.161 -0.1704 -0.8264 -0.1362
 2023TIP3   OH227483   5.499   3.095   4.684 -0.3526  0.6721  0.6004
 2023TIP3    H127484   5.471   3.013   4.645 -0.0375  1.6284 -1.8461
 2023TIP3    H227485   5.417   3.141   4.704 -0.6293  1.3950 -1.8641
 2024TIP3   OH227486   6.615   2.055  11.262  0.1361 -0.2475  0.3180
 2024TIP3    H127487   6.700   2.077  11.301  1.0239  0.8806 -2.0712
 2024TIP3    H227488   6.617   2.097  11.176 -3.1243  0.3847  0.4303
 2025TIP3   OH227489   6.521   2.062   4.732  0.1972  0.5517 -0.0436
 2025TIP3    H127490   6.519   2.052   4.637  1.5063  1.1404 -0.1630
 2025TIP3    H227491   6.509   1.974   4.767  2.8056 -0.2131 -0.8492
 2026TIP3   OH227492   5.851   4.454  13.055 -0.3553  0.2738 -0.4604
 2026TIP3    H127493   5.869   4.372  13.008 -0.6935 -1.7139  2.5193
 2026TIP3    H227494   5.822   4.425  13.142 -2.9649  3.5634 -0.0239
 2027TIP3   OH227495   3.300   5.433  13.292  0.1651 -0.4179  0.7112
 2027TIP3    H127496   3.320   5.417  13.384 -1.1752  2.6365  1.6857
 2027TIP3    H227497   3.376   5.480  13.258  0.2809 -0.7492  0.5064
 2028TIP3   OH227498   3.467   1.383  16.200 -0.2893 -0.0166  0.6164
 2028TIP3    H127499   3.419   1.462  16.224  1.2128  1.2417 -0.3488
 2028TIP3    H227500   3.535   1.374  16.267  1.0846  0.9529 -0.5938
 2029TIP3   OH227501   5.697   6.603  14.544 -0.9087  0.3335 -0.0065
 2029TIP3    H127502   5.754   6.551  14.599 -1.1058  1.2424  1.0909
 2029TIP3    H227503   5.673   6.545  14.471  1.3751 -0.0679 -0.4871
 2030TIP3   OH227504   5.348   4.741  13.568 -0.6142 -0.4531  0.7231
 2030TIP3    H127505   5.328   4.835  13.567  0.4364 -0.2240  0.5493
 2030TIP3    H227506   5.264   4.699  13.547 -0.3668  0.5764 -3.1134
 2031TIP3   OH227507   5.730   5.458  15.613  0.0950 -0.0200  0.0855
 2031TIP3    H127508   5.785   5.431  15.688 -0.0827 -0.6498 -0.0021
 2031TIP3    H227509   5.640   5.450  15.646  0.0522  1.2968  0.3235
 2032TIP3   OH227510   3.706   2.531   4.806  0.6014 -0.2322  0.0660
 2032TIP3    H127511   3.664   2.605   4.761  1.2706 -0.9647 -1.8643
 2032TIP3    H227512   3.675   2.537   4.896 -1.6366  0.7385 -0.6998
 2033TIP3   OH227513   2.674   3.708   2.952 -0.1485 -0.5647  0.3252
 2033TIP3    H127514   2.614   3.701   2.878 -1.6809  1.3793  1.2721
 2033TIP3    H227515   2.762   3.704   2.913 -0.9127  0.0870 -1.5590
 2034TIP3   OH227516   5.370   1.871   4.906 -0.1906 -0.2303  0.5324
 2034TIP3    H127517   5.419   1.793   4.929 -0.7678 -1.1015 -1.0288
 2034TIP3    H227518   5.401   1.894   4.818 -0.6173  0.8213  0.6376
 2035TIP3   OH227519   3.329   5.928   2.328  0.0755  0.2345  0.0274
 2035TIP3    H127520   3.270   5.915   2.253 -2.1013  0.0856  1.6657
 2035TIP3    H227521   3.351   5.839   2.356  1.3615  0.2881 -0.7380
 2036TIP3   OH227522   4.582   4.360  11.311  0.3201 -0.1060  0.0848
 2036TIP3    H127523   4.585   4.385  11.219 -0.4635  0.9038  0.3169
 2036TIP3    H227524   4.512   4.414  11.349 -0.4933 -1.6717  0.9272
 2037TIP3   OH227525   0.558   5.158   4.622  0.4841  0.5075 -0.4707
 2037TIP3    H127526   0.563   5.237   4.676 -1.4178 -0.2951  0.9719
 2037TIP3    H227527   0.505   5.184   4.547  0.3066  0.7362 -0.2688
 2038TIP3   OH227528   2.204   5.063  11.148  0.3798 -0.3709 -0.4255
 2038TIP3    H127529   2.174   5.149  11.119  0.3642 -0.4432 -0.6203
 2038TIP3    H227530   2.287   5.050  11.102  2.1285  1.0044  2.0885
 2039TIP3   OH227531   3.236   5.712   1.553  0.3104  0.0035  0.0653
 2039TIP3    H127532   3.234   5.624   1.591  0.5732 -0.5623 -1.1753
 2039TIP3    H227533   3.328   5.739   1.556  0.1136  0.6046  1.2153
 2040TIP3   OH227534   2.431   5.209   5.467  0.5084  0.5789  0.6347
 2040TIP3    H127535   2.425   5.186   5.374  1.1726 -0.5159  0.8391
 2040TIP3    H227536   2.467   5.298   5.467  0.3910  0.6332 -0.1599
 2041TIP3   OH227537   2.590   1.870   4.750  0.1934 -0.1961  0.8051
 2041TIP3    H127538   2.676   1.849   4.715 -0.3641 -0.4948 -0.4364
 2041TIP3    H227539   2.590   1.965   4.760  0.0209  0.0206 -1.0148
 2042TIP3   OH227540   5.759   2.752  11.758  0.1267 -0.5933  0.6469
 2042TIP3    H127541   5.772   2.825  11.819 -1.3655 -0.9545  1.4456
 2042TIP3    H227542   5.706   2.790  11.687  0.5963 -0.5407  0.3238
 2043TIP3   OH227543   6.033   2.357  14.254  0.0211  0.5429 -0.1690
 2043TIP3    H127544   6.040   2.263  14.272 -0.5419  0.5379  0.0277
 2043TIP3    H227545   6.107   2.375  14.195 -0.2556 -0.1575 -0.7544
 2044TIP3   OH227546   0.541   1.334  12.931  0.1322  0.0106  0.1894
 2044TIP3    H127547   0.545   1.290  13.016  0.5224  0.9471  0.6604
 2044TIP3    H227548   0.555   1.264  12.868  0.0159 -0.6671  0.8974
 2045TIP3   OH227549   5.150   4.429  13.091  0.5574  0.4028 -0.3372
 2045TIP3    H127550   5.076   4.413  13.149  1.2558 -1.3429  0.1513
 2045TIP3    H227551   5.175   4.520  13.108 -1.3744  0.9925 -0.4508
 2046TIP3   OH227552   3.835   6.316  14.305 -0.4902  0.7418  0.6337
 2046TIP3    H127553   3.849   6.293  14.213  0.4669 -1.7434  1.3131
 2046TIP3    H227554   3.922   6.342  14.337 -0.8095  1.5462  0.8821
 2047TIP3   OH227555   5.718   5.206  16.280 -0.6068 -0.5112  0.1726
 2047TIP3    H127556   5.812   5.187  16.272 -0.1002  1.6057  0.3927
 2047TIP3    H227557   5.715   5.296  16.314 -2.6641  1.1064 -3.6835
 2048TIP3   OH227558   5.053   3.113  15.380 -0.7845  0.2665  0.7531
 2048TIP3    H127559   5.140   3.087  15.351 -0.6705 -1.1975  2.2350
 2048TIP3    H227560   5.006   3.134  15.300  0.5829 -0.0473 -0.1645
 2049TIP3   OH227561   0.545   2.495  11.615  0.1838 -0.0627 -0.2065
 2049TIP3    H127562   0.501   2.580  11.617 -0.5075 -0.3531  3.3494
 2049TIP3    H227563   0.481   2.436  11.574 -2.3078 -0.1187  3.3278
 2050TIP3   OH227564   3.624   0.905   3.910  0.7053 -0.4090 -0.1395
 2050TIP3    H127565   3.568   0.971   3.951  0.9229  0.5584 -1.3426
 2050TIP3    H227566   3.694   0.890   3.974 -0.2467 -0.7529  0.8673
 2051TIP3   OH227567   3.707   3.081   3.774  0.1858  0.3912 -1.1539
 2051TIP3    H127568   3.735   3.156   3.723 -1.1428  0.3071 -2.0641
 2051TIP3    H227569   3.759   3.008   3.740 -1.2765  0.1641 -3.0628
 2052TIP3   OH227570   4.048   6.749  12.222  0.4589 -0.5796 -0.2681
 2052TIP3    H127571   4.058   6.772  12.130  0.3549  1.0923  0.1121
 2052TIP3    H227572   4.006   6.663  12.221 -1.8112  0.4541 -1.7850
 2053TIP3   OH227573   5.709   0.019   3.582 -0.0281 -0.2777 -1.0685
 2053TIP3    H127574   5.758   0.033   3.664 -1.3938 -0.8606 -0.1119
 2053TIP3    H227575   5.764   0.057   3.514  1.3347 -0.1300  0.0758
 2054TIP3   OH227576   5.251   5.312   5.134  0.3101 -0.3275  0.1837
 2054TIP3    H127577   5.340   5.327   5.164  0.4614  1.8462 -1.1528
 2054TIP3    H227578   5.258   5.238   5.074  1.2709  0.0234 -0.1533
 2055TIP3   OH227579   6.724   4.954   6.206 -0.8152 -0.0365 -0.0389
 2055TIP3    H127580   6.653   5.018   6.213 -1.3851 -0.6537 -0.0799
 2055TIP3    H227581   6.688   4.886   6.149 -0.5075 -0.7869  0.6612
 2056TIP3   OH227582   5.829   4.543  11.867  0.9321 -0.5497 -0.4493
 2056TIP3    H127583   5.808   4.630  11.901  0.0871 -1.0454  0.3361
 2056TIP3    H227584   5.857   4.559  11.777  2.2567  0.6798  0.1501
 2057TIP3   OH227585   0.165   6.142  10.734  0.0870 -0.1771  0.6803
 2057TIP3    H127586   0.109   6.128  10.810 -0.5723  0.4880  0.3347
 2057TIP3    H227587   0.104   6.162  10.663  0.6709 -1.0762 -0.1038
 2058TIP3   OH227588   1.029   1.460  13.537  0.4814  0.6237 -0.2753
 2058TIP3    H127589   1.046   1.366  13.534 -0.0490  0.5284 -0.3007
 2058TIP3    H227590   1.058   1.492  13.451  0.5573  0.4660 -0.3082
 2059TIP3   OH227591   4.098   1.165   1.947  0.6313  0.4908  0.3509
 2059TIP3    H127592   4.030   1.228   1.969  0.7094  0.3124  1.1220
 2059TIP3    H227593   4.067   1.123   1.866 -0.0587  0.5590  0.5765
 2060TIP3   OH227594   5.680   4.092  11.305 -0.0109  0.3123 -1.0567
 2060TIP3    H127595   5.666   4.071  11.213 -1.0611  2.8970 -1.5922
 2060TIP3    H227596   5.775   4.102  11.313  0.2423 -1.5199 -1.4176
 2061TIP3   OH227597   2.442   0.463  16.704 -0.3099  0.1711  0.1213
 2061TIP3    H127598   2.422   0.442  16.795  0.4826 -1.9501 -0.1486
 2061TIP3    H227599   2.531   0.500  16.708 -1.1296  2.2811  0.4133
 2062TIP3   OH227600   5.981   5.946  14.037  0.3330  0.1092  0.0820
 2062TIP3    H127601   6.024   5.864  14.061  3.5199  1.8800  1.0113
 2062TIP3    H227602   5.970   5.993  14.120 -0.4059  1.1112 -0.5502
 2063TIP3   OH227603   0.092   4.681   2.621 -0.4209  0.1283 -0.1591
 2063TIP3    H127604   0.098   4.775   2.606 -2.6923  0.2527 -0.5136
 2063TIP3    H227605   0.081   4.642   2.534 -1.2928 -0.2890  0.1273
 2064TIP3   OH227606   2.696   3.316   5.614  0.1859 -0.2539  0.3006
 2064TIP3    H127607   2.700   3.306   5.519 -0.3297 -0.1516  0.2626
 2064TIP3    H227608   2.616   3.268   5.639  0.8667 -1.1567  0.8052
 2065TIP3   OH227609   6.118   4.330   3.684 -0.8350  0.5771 -0.3988
 2065TIP3    H127610   6.048   4.301   3.742 -2.7925  2.8853 -1.4192
 2065TIP3    H227611   6.116   4.267   3.611 -1.4518  0.2732 -0.1272
 2066TIP3   OH227612   2.782   0.786   1.401 -0.3110 -0.1077 -0.5912
 2066TIP3    H127613   2.866   0.751   1.431 -0.6229  1.9775  3.3221
 2066TIP3    H227614   2.806   0.854   1.337  1.0853  0.8316  0.8650
 2067TIP3   OH227615   2.782   1.615   3.625 -0.2766  0.3952  0.3455
 2067TIP3    H127616   2.846   1.597   3.694  1.0511 -0.4107 -1.0335
 2067TIP3    H227617   2.737   1.531   3.612  2.3935 -0.7827 -2.5673
 2068TIP3   OH227618   0.821   3.121  13.471 -0.4587 -0.6469 -0.8985
 2068TIP3    H127619   0.891   3.170  13.514  0.1503  0.2209 -2.7318
 2068TIP3    H227620   0.855   3.032  13.463  1.1538  0.0772 -3.0574
 2069TIP3   OH227621   2.100   6.173   0.168  0.0764  0.9393  0.0518
 2069TIP3    H127622   2.012   6.137   0.173  0.0558  0.8317 -1.0161
 2069TIP3    H227623   2.113   6.217   0.253 -0.7480  0.3963  0.4660
 2070TIP3   OH227624   4.822   2.255  13.017 -0.3496 -0.0558  0.0279
 2070TIP3    H127625   4.793   2.225  13.103 -1.9090  0.1711 -0.3926
 2070TIP3    H227626   4.794   2.185  12.957  1.2274 -0.4901 -0.2605
 2071TIP3   OH227627   5.747   5.636   2.220 -0.4041  0.7631  0.1370
 2071TIP3    H127628   5.787   5.568   2.275  0.4089  0.7595 -0.4408
 2071TIP3    H227629   5.655   5.613   2.217  0.0292 -0.9852 -0.9642
 2072TIP3   OH227630   5.536   4.686  14.635  0.1666  0.3210 -0.1679
 2072TIP3    H127631   5.554   4.700  14.542 -0.8864  0.2812 -0.3811
 2072TIP3    H227632   5.491   4.765  14.663  2.1408  1.1889  0.8008
 2073TIP3   OH227633   5.825   5.387  15.368 -0.2600 -0.1459  0.0066
 2073TIP3    H127634   5.799   5.390  15.460  0.1633 -0.1594  0.1315
 2073TIP3    H227635   5.917   5.359  15.371  0.1041  0.9610 -0.3602
 2074TIP3   OH227636   5.925   1.672  15.650  0.7172  0.0160  0.1133
 2074TIP3    H127637   5.955   1.727  15.722 -1.5218  2.6053 -0.7953
 2074TIP3    H227638   5.922   1.730  15.575 -0.9806 -1.5379 -1.1129
 2075TIP3   OH227639   2.189   3.207   3.384 -0.2858 -0.1070  0.6278
 2075TIP3    H127640   2.161   3.161   3.463  2.0773 -3.8432 -0.4222
 2075TIP3    H227641   2.284   3.213   3.391 -0.1141  0.4904 -1.3896
 2076TIP3   OH227642   4.137   4.772  12.642 -0.1793  0.1006 -0.1586
 2076TIP3    H127643   4.080   4.795  12.570 -1.2891  0.3492  0.7675
 2076TIP3    H227644   4.200   4.710  12.605 -1.3410 -0.5605 -1.0817
 2077TIP3   OH227645   1.735   0.743  12.290 -0.2119  0.3911 -0.5526
 2077TIP3    H127646   1.747   0.835  12.266 -0.3112 -0.1237 -2.7346
 2077TIP3    H227647   1.785   0.694  12.225 -2.3385 -1.1915 -1.1284
 2078TIP3   OH227648   5.911   3.158   4.214 -0.4454 -0.4232  0.3045
 2078TIP3    H127649   5.893   3.228   4.151 -2.2929  0.2391  1.4810
 2078TIP3    H227650   5.923   3.204   4.297 -0.7680 -1.4589  0.9362
 2079TIP3   OH227651   6.359   4.702  11.635  0.4543 -0.0309 -0.1496
 2079TIP3    H127652   6.420   4.643  11.679  0.7917  0.7566  0.4594
 2079TIP3    H227653   6.294   4.723  11.703  0.3240  0.2747 -0.3685
 2080TIP3   OH227654   1.052   1.767   2.785  0.3430 -0.2012  0.5412
 2080TIP3    H127655   0.983   1.788   2.848 -0.3639  0.6565 -0.4788
 2080TIP3    H227656   1.008   1.718   2.716  0.3065  1.8191 -0.9858
 2081TIP3   OH227657   3.483   0.583  12.319  0.0914 -0.1003 -0.1656
 2081TIP3    H127658   3.506   0.546  12.405 -1.6497  0.8710  0.7791
 2081TIP3    H227659   3.489   0.678  12.332 -0.2500  0.0535 -1.1016
 2082TIP3   OH227660   0.199   2.828   0.011 -1.1365  0.0480 -0.3583
 2082TIP3    H127661   0.233   2.904   0.059 -3.7669  1.5216 -0.6213
 2082TIP3    H227662   0.243   2.831  -0.073  0.3242  0.0005  0.3648
 2083TIP3   OH227663   0.607   1.661   4.515  0.3228 -0.2059  0.0892
 2083TIP3    H127664   0.627   1.607   4.438 -0.3938 -0.3911  0.0307
 2083TIP3    H227665   0.639   1.748   4.492  0.4814 -0.3526 -0.2554
 2084TIP3   OH227666   4.594   6.723  14.341  0.0677  0.9194  0.1858
 2084TIP3    H127667   4.653   6.707  14.268 -1.0942  1.2137 -0.8488
 2084TIP3    H227668   4.537   6.646  14.344 -0.1834  1.1117  0.4864
 2085TIP3   OH227669   1.502   5.757   9.761  0.3775  0.2141  0.1827
 2085TIP3    H127670   1.492   5.732   9.853  2.3458  0.0337  0.3982
 2085TIP3    H227671   1.449   5.695   9.713 -0.0854 -0.1616  1.1589
 2086TIP3   OH227672   5.674   0.306   0.333  0.1624  0.3823  0.4276
 2086TIP3    H127673   5.623   0.386   0.318 -0.6523 -0.2998 -0.5633
 2086TIP3    H227674   5.756   0.321   0.285 -0.6981 -0.0477 -1.2548
 2087TIP3   OH227675   1.473   5.310  12.081 -0.3412  0.1204  0.0265
 2087TIP3    H127676   1.434   5.245  12.023 -1.9595  1.0738 -0.0269
 2087TIP3    H227677   1.543   5.350  12.028  0.1788 -1.0386 -0.1909
 2088TIP3   OH227678   3.967   6.767  12.989 -0.0723  0.6557 -0.0244
 2088TIP3    H127679   3.947   6.850  13.033 -1.4692  0.1427  0.3498
 2088TIP3    H227680   3.895   6.709  13.012  0.7776 -0.6210 -0.4501
 2089TIP3   OH227681   3.916   6.498  11.603 -0.0341  0.3435  0.1547
 2089TIP3    H127682   3.955   6.576  11.561 -3.5561  1.4615 -1.3725
 2089TIP3    H227683   3.955   6.424  11.555  1.4321  1.2387 -0.1279
 2090TIP3   OH227684   3.012   0.096   3.882 -0.2926  0.1140  0.2977
 2090TIP3    H127685   3.048   0.171   3.931  1.6654 -0.3838 -0.2781
 2090TIP3    H227686   2.918   0.112   3.880 -0.0202  2.1431  0.8990
 2091TIP3   OH227687   0.225   4.948  16.773  0.1558 -0.1184  0.3094
 2091TIP3    H127688   0.214   5.034  16.813 -0.2184 -0.0922  0.1557
 2091TIP3    H227689   0.312   4.951  16.734 -0.5513  0.8587 -1.2890
 2092TIP3   OH227690   1.761   5.680   4.849  0.9766  0.0292  0.4328
 2092TIP3    H127691   1.852   5.653   4.861  1.0585  1.0319  2.3706
 2092TIP3    H227692   1.759   5.772   4.873 -0.4198  0.2449 -0.3695
 2093TIP3   OH227693   4.942   3.107   1.460 -0.4729  0.0341 -0.1788
 2093TIP3    H127694   4.969   3.064   1.379  0.1355  2.3687 -1.3023
 2093TIP3    H227695   4.939   3.200   1.438 -1.2879  0.6488  2.2262
 2094TIP3   OH227696   2.185   2.224  10.745 -0.3531  0.0335  0.0549
 2094TIP3    H127697   2.091   2.245  10.742 -0.7046 -1.3174  0.5133
 2094TIP3    H227698   2.204   2.190  10.658 -0.6147 -0.8554  0.3281
 2095TIP3   OH227699   2.035   6.469   6.004  0.3177  0.7024 -0.2881
 2095TIP3    H127700   1.939   6.468   6.002  0.2829  0.0080  1.1087
 2095TIP3    H227701   2.060   6.412   5.932 -0.3231  0.3414 -0.2362
 2096TIP3   OH227702   6.376   1.019  10.146  0.2399  0.1228  0.3604
 2096TIP3    H127703   6.320   1.009  10.069  0.9882 -2.4537  0.0536
 2096TIP3    H227704   6.444   1.080  10.119 -0.5853  0.7610 -0.3418
 2097TIP3   OH227705   4.289   0.033  12.566 -0.4117 -0.1225  0.1137
 2097TIP3    H127706   4.212  -0.018  12.587 -0.7772  0.3236 -0.1172
 2097TIP3    H227707   4.312   0.078  12.648 -0.7312  0.1770  0.0416
 2098TIP3   OH227708   4.876   6.421  14.328 -0.6898 -0.0108  0.2091
 2098TIP3    H127709   4.813   6.437  14.399 -1.5768 -1.3063 -0.2590
 2098TIP3    H227710   4.955   6.389  14.373 -1.8072 -2.4964  0.5717
 2099TIP3   OH227711   1.422   6.620   2.326 -0.2907 -0.1583 -0.7066
 2099TIP3    H127712   1.469   6.657   2.401 -1.6606 -1.9241  1.1720
 2099TIP3    H227713   1.377   6.695   2.287 -1.4214  0.5540  1.7493
 2100TIP3   OH227714   0.219   0.153   4.534  0.1791  0.1862 -0.0703
 2100TIP3    H127715   0.228   0.058   4.534 -0.0592  0.1605 -0.9838
 2100TIP3    H227716   0.145   0.170   4.592 -1.3951 -0.3619 -1.8190
 2101TIP3   OH227717   0.758   1.933   0.555  0.0029 -0.4147  0.3199
 2101TIP3    H127718   0.775   1.969   0.642  1.7057  1.6632 -0.7599
 2101TIP3    H227719   0.839   1.886   0.533  1.2353  2.3183 -1.5382
 2102TIP3   OH227720   4.300   0.773   5.292 -0.9508 -0.0859  0.0019
 2102TIP3    H127721   4.324   0.713   5.221  0.1300  0.6471 -0.2714
 2102TIP3    H227722   4.265   0.716   5.360  2.6343 -1.5029  0.9358
 2103TIP3   OH227723   6.567   4.238   4.636  0.1110  0.4657 -0.5163
 2103TIP3    H127724   6.545   4.302   4.569  1.1401 -1.7031 -3.1356
 2103TIP3    H227725   6.483   4.210   4.672 -0.4647  1.6091 -0.9545
 2104TIP3   OH227726   3.655   0.795   2.260 -0.3571  0.0616  0.4440
 2104TIP3    H127727   3.704   0.731   2.312 -1.0990 -1.5305 -0.7453
 2104TIP3    H227728   3.718   0.865   2.243  0.6460 -0.5938  1.3124
 2105TIP3   OH227729   3.279   5.692  15.387  0.6385  0.3620 -0.3156
 2105TIP3    H127730   3.289   5.707  15.481  0.6918  0.6387 -0.3650
 2105TIP3    H227731   3.243   5.604  15.380  0.2903  0.4798 -0.0205
 2106TIP3   OH227732   3.885   0.804   1.909 -0.5824  0.1856  1.1189
 2106TIP3    H127733   3.866   0.874   1.846  0.2698 -0.5352  0.0070
 2106TIP3    H227734   3.802   0.758   1.919 -0.6497  0.0817  0.1969
 2107TIP3   OH227735   0.881   3.261  14.540  0.6019  0.3609 -0.2790
 2107TIP3    H127736   0.837   3.311  14.470 -1.9810  0.4473  1.2761
 2107TIP3    H227737   0.904   3.327  14.605 -0.7678 -0.1560  0.7681
 2108TIP3   OH227738   0.610   5.990  16.334 -0.0679 -0.0798 -0.6949
 2108TIP3    H127739   0.568   5.984  16.420 -0.8020  1.6862 -0.9051
 2108TIP3    H227740   0.591   5.905  16.293 -2.4577  0.2080 -0.3278
 2109TIP3   OH227741   1.262   0.089   1.367 -0.3828 -0.0740  0.0548
 2109TIP3    H127742   1.299   0.101   1.279 -0.1618  0.9533  0.2850
 2109TIP3    H227743   1.180   0.043   1.352 -1.1787  1.5725 -0.8513
 2110TIP3   OH227744   4.067   5.984  10.901  0.4565  0.5689 -0.4389
 2110TIP3    H127745   3.993   5.940  10.943  1.1107  0.2012  0.3543
 2110TIP3    H227746   4.138   5.979  10.965  1.5660 -0.2328 -1.6732
 2111TIP3   OH227747   6.168   4.473   1.001 -0.3933  0.0597 -0.4006
 2111TIP3    H127748   6.086   4.483   0.952 -0.1100  2.8931 -0.5140
 2111TIP3    H227749   6.153   4.399   1.059 -2.1141 -1.0351 -2.0979
 2112TIP3   OH227750   2.620   2.048  12.027 -0.3164  0.4573 -0.4359
 2112TIP3    H127751   2.593   1.991  11.955  0.4252  0.0062 -0.3707
 2112TIP3    H227752   2.691   2.101  11.991  0.2774  0.0058  0.0357
 2113TIP3   OH227753   2.307   0.862   5.937 -0.4793  0.2452  0.3532
 2113TIP3    H127754   2.343   0.949   5.920  0.3426 -0.3253 -0.9781
 2113TIP3    H227755   2.213   0.876   5.948 -0.3513  1.2995  0.1800
 2114TIP3   OH227756   1.369   4.099   5.312 -0.1477  0.2012  0.5835
 2114TIP3    H127757   1.283   4.114   5.351  0.6398  0.2456  2.4197
 2114TIP3    H227758   1.366   4.008   5.281 -0.1874 -0.5270  2.5789
 2115TIP3   OH227759   4.963   6.648   4.124 -0.4062  0.5839 -0.0819
 2115TIP3    H127760   5.053   6.670   4.146 -0.2568  0.4033 -0.5030
 2115TIP3    H227761   4.969   6.598   4.043 -0.6984 -1.4969  1.0965
 2116TIP3   OH227762   6.721   4.838  11.775  0.6020 -0.2891 -0.6141
 2116TIP3    H127763   6.698   4.816  11.685 -0.0567  1.4586 -0.9140
 2116TIP3    H227764   6.790   4.904  11.767  0.4564 -0.0305  0.1621
 2117TIP3   OH227765   3.438   1.235   6.203 -0.1583 -0.2386 -0.0931
 2117TIP3    H127766   3.385   1.196   6.133 -1.6844 -0.4802  1.1466
 2117TIP3    H227767   3.525   1.198   6.189 -0.8741 -1.7944 -0.7394
 2118TIP3   OH227768   6.676   2.155  15.794  0.1242  0.0415  0.4481
 2118TIP3    H127769   6.667   2.063  15.768 -0.5176  0.6208 -1.5565
 2118TIP3    H227770   6.590   2.193  15.780  0.8983  1.4221 -0.8396
 2119TIP3   OH227771   3.642   1.187  13.411 -0.1005  0.0757 -0.4232
 2119TIP3    H127772   3.558   1.149  13.387  0.5134 -2.3705  0.9020
 2119TIP3    H227773   3.699   1.170  13.336 -0.3180  0.0780 -0.5889
 2120TIP3   OH227774   0.009   1.265  16.574 -0.4328 -0.1605  0.6172
 2120TIP3    H127775   0.002   1.173  16.601  0.5230 -0.6021 -0.5332
 2120TIP3    H227776   0.103   1.279  16.561 -0.6670  0.5830 -0.4820
 2121TIP3   OH227777   2.177   4.147   1.909  0.6410  0.1325 -0.5384
 2121TIP3    H127778   2.272   4.144   1.907  0.7179  0.1264  1.4612
 2121TIP3    H227779   2.150   4.056   1.920  0.4868  0.2784  0.3843
 2122TIP3   OH227780   6.398   2.474  12.910 -0.2179 -0.4594 -0.5165
 2122TIP3    H127781   6.304   2.491  12.912 -0.3458 -1.1107 -0.7795
 2122TIP3    H227782   6.405   2.379  12.902  0.4595 -0.3431 -1.4385
 2123TIP3   OH227783   0.673   1.739   2.785  0.5437 -0.1086  0.4543
 2123TIP3    H127784   0.616   1.709   2.856  0.4892  1.6811  1.2363
 2123TIP3    H227785   0.617   1.737   2.707 -0.2793  0.5482  1.0042
 2124TIP3   OH227786   1.733   1.043   1.274  0.8210  0.1419  0.1382
 2124TIP3    H127787   1.697   1.043   1.362 -1.6169 -1.3851 -0.7417
 2124TIP3    H227788   1.718   0.954   1.242 -0.4317  1.1975 -2.5473
 2125TIP3   OH227789   2.861   3.708  11.086  0.6650 -0.5595  0.3134
 2125TIP3    H127790   2.825   3.756  11.160  0.3531 -0.1518 -0.0998
 2125TIP3    H227791   2.807   3.734  11.011  0.7371 -1.2594  0.0146
 2126TIP3   OH227792   0.312   5.878  13.055 -0.3288 -0.1502 -0.0300
 2126TIP3    H127793   0.385   5.924  13.096 -0.8092  0.0094  0.6600
 2126TIP3    H227794   0.293   5.805  13.114 -1.4051  0.4189  0.3523
 2127TIP3   OH227795   6.180   4.275  12.278 -0.1784 -0.1430  0.1911
 2127TIP3    H127796   6.145   4.230  12.201 -1.1860  0.6159  0.1820
 2127TIP3    H227797   6.102   4.293  12.332  0.3802  0.3429  0.8464
 2128TIP3   OH227798   3.569   3.428  10.443 -0.0535  0.4978  0.2983
 2128TIP3    H127799   3.551   3.378  10.523 -1.8517  2.5874  1.3281
 2128TIP3    H227800   3.483   3.440  10.402  0.7836 -0.1392 -1.7453
 2129TIP3   OH227801   5.879   0.597   0.945  0.1952  0.0810 -0.5105
 2129TIP3    H127802   5.825   0.671   0.972  0.9454  0.5339 -0.2041
 2129TIP3    H227803   5.969   0.629   0.953  0.6202 -1.3559  1.1870
 2130TIP3   OH227804   4.085   1.235  12.770 -0.0624 -1.0133  0.0181
 2130TIP3    H127805   4.053   1.286  12.696 -3.4070  0.6337  2.3174
 2130TIP3    H227806   4.180   1.249  12.770 -0.2276  0.7987 -2.5752
 2131TIP3   OH227807   6.493   0.167  16.704 -0.4370 -0.3952 -0.8109
 2131TIP3    H127808   6.443   0.213  16.637 -0.5480 -0.4765 -0.7861
 2131TIP3    H227809   6.560   0.229  16.731 -1.0291  0.0291 -0.2669
 2132TIP3   OH227810   2.306   1.912   0.626 -0.2892 -0.2210 -0.2606
 2132TIP3    H127811   2.353   1.923   0.543 -1.3115  0.2873 -0.7976
 2132TIP3    H227812   2.374   1.889   0.689  0.6190  0.1188 -1.0823
 2133TIP3   OH227813   3.504   4.583   0.667  0.2617  0.3836 -0.5229
 2133TIP3    H127814   3.560   4.506   0.653  0.0162  0.1707 -0.3295
 2133TIP3    H227815   3.416   4.553   0.643  0.1159  0.5164 -0.1594
 2134TIP3   OH227816   6.225   4.309   4.242 -0.3742 -0.1545  0.2458
 2134TIP3    H127817   6.280   4.278   4.170  1.2839  1.4063  0.7638
 2134TIP3    H227818   6.178   4.384   4.207 -0.0757  0.1994  0.6024
 2135TIP3   OH227819   5.384   3.538  12.402 -0.3919 -0.7030  0.5713
 2135TIP3    H127820   5.476   3.540  12.430 -0.7323  0.1277  1.7055
 2135TIP3    H227821   5.335   3.527  12.484 -1.3077 -1.2714 -0.0348
 2136TIP3   OH227822   6.443   4.781   3.809 -0.2855 -0.0500  0.3659
 2136TIP3    H127823   6.493   4.714   3.762 -1.1686 -0.8540  0.5468
 2136TIP3    H227824   6.505   4.853   3.820  1.4780 -1.6931  2.2220
 2137TIP3   OH227825   0.659   4.392  15.688  0.1087 -0.0482  0.3206
 2137TIP3    H127826   0.650   4.466  15.748  0.8904 -1.3451  2.1416
 2137TIP3    H227827   0.688   4.320  15.744  0.1316 -1.5322 -1.5214
 2138TIP3   OH227828   4.504   1.279  15.234  0.2197  0.7049 -0.1368
 2138TIP3    H127829   4.487   1.274  15.328 -1.2281 -0.9343 -0.4346
 2138TIP3    H227830   4.597   1.261  15.225  0.1660 -0.1831  0.9315
 2139TIP3   OH227831   2.236   4.745   0.166 -0.4389 -0.2899 -0.0634
 2139TIP3    H127832   2.304   4.788   0.113 -0.2959  0.5166  0.7350
 2139TIP3    H227833   2.156   4.754   0.115  0.0256 -1.1263 -0.9543
 2140TIP3   OH227834   4.497   5.620  13.542 -0.0776 -0.1673 -0.5040
 2140TIP3    H127835   4.550   5.662  13.473  0.5376  0.2504  0.2119
 2140TIP3    H227836   4.407   5.629  13.511  0.2579 -1.0780 -1.8503
 2141TIP3   OH227837   0.367   5.116  16.272  0.5689 -0.0084  0.0211
 2141TIP3    H127838   0.278   5.119  16.238  0.4316  1.7847  0.4397
 2141TIP3    H227839   0.421   5.158  16.204  1.2119 -1.5948 -0.4865
 2142TIP3   OH227840   3.180   4.058   6.313 -0.5391 -0.1001  0.1466
 2142TIP3    H127841   3.092   4.031   6.337  0.1618 -1.4039  1.4296
 2142TIP3    H227842   3.206   4.121   6.380 -0.6153  0.5803 -0.4472
 2143TIP3   OH227843   0.338   6.077  11.255  0.2547 -0.9540  0.1181
 2143TIP3    H127844   0.272   6.033  11.309  0.8482 -2.0421 -0.0209
 2143TIP3    H227845   0.393   6.125  11.317  0.0798 -1.0411  0.3400
 2144TIP3   OH227846   1.133   1.370  15.142  0.7513  0.1676  0.9733
 2144TIP3    H127847   1.116   1.424  15.064  0.3184  2.2048  2.3978
 2144TIP3    H227848   1.099   1.283  15.119 -1.6888  1.3403 -0.2434
 2145TIP3   OH227849   0.991   3.959  10.980  0.6053  0.4045 -0.1527
 2145TIP3    H127850   1.011   4.051  10.961 -2.5579  1.0627 -0.9477
 2145TIP3    H227851   0.977   3.920  10.894  1.3302 -0.6873  0.2119
 2146TIP3   OH227852   0.877   5.030  11.063  0.0424  0.0553 -0.3481
 2146TIP3    H127853   0.789   4.999  11.041  0.1050 -2.7015  2.5867
 2146TIP3    H227854   0.862   5.098  11.129  0.1358  1.4951 -1.7413
 2147TIP3   OH227855   5.080   3.844  11.118  0.9330  0.3942 -0.0214
 2147TIP3    H127856   5.047   3.787  11.188 -0.4565 -1.3823 -2.0139
 2147TIP3    H227857   5.146   3.791  11.073 -0.0008  0.5118 -1.5932
 2148TIP3   OH227858   0.367   6.327   5.905 -0.5731  0.2320 -0.0380
 2148TIP3    H127859   0.300   6.389   5.934 -0.8028 -0.0256 -0.0128
 2148TIP3    H227860   0.375   6.265   5.978 -0.8929 -0.2101 -0.3741
 2149TIP3   OH227861   5.501   2.214   1.572  0.1272  0.3054 -0.2225
 2149TIP3    H127862   5.551   2.219   1.491 -2.5787 -1.3061 -2.1505
 2149TIP3    H227863   5.427   2.274   1.558 -0.6995 -0.4496  0.7889
 2150TIP3   OH227864   0.299   6.410  13.534  0.6923  1.1840 -0.3642
 2150TIP3    H127865   0.293   6.339  13.470 -1.4299  2.4706 -1.7162
 2150TIP3    H227866   0.355   6.476  13.492  0.6704  1.3157 -0.1877
 2151TIP3   OH227867   4.156   2.422   4.008  0.1283  0.0292  0.5138
 2151TIP3    H127868   4.206   2.404   3.928  0.1117 -0.9694  0.7196
 2151TIP3    H227869   4.098   2.495   3.984  0.5721  0.1596 -0.1902
 2152TIP3   OH227870   0.634   1.618   1.103  0.4788  0.1083  0.5412
 2152TIP3    H127871   0.665   1.678   1.171  1.0756  1.4506 -0.8604
 2152TIP3    H227872   0.714   1.576   1.070  0.1176 -1.1121  1.1496
 2153TIP3   OH227873   3.310   3.306  13.136  0.1350 -0.0608 -0.2762
 2153TIP3    H127874   3.361   3.244  13.188  2.7019  2.7300  0.8355
 2153TIP3    H227875   3.327   3.281  13.045 -0.3936 -2.0264  0.1202
 2154TIP3   OH227876   4.027   5.084   9.985  0.4969  0.4031  0.1616
 2154TIP3    H127877   3.948   5.138   9.994  0.9107  0.9825  0.4057
 2154TIP3    H227878   3.999   4.997  10.012 -0.0016  0.6616  0.5062
 2155TIP3   OH227879   2.181   6.775  11.830  0.0289  0.2396 -0.0059
 2155TIP3    H127880   2.204   6.826  11.907  0.1351 -0.4058  0.4029
 2155TIP3    H227881   2.086   6.773  11.829  0.0076 -1.2804  1.1775
 2156TIP3   OH227882   5.122   0.158  11.041 -0.2915 -0.5177 -0.3347
 2156TIP3    H127883   5.035   0.166  11.081  0.0011  2.0002 -0.0094
 2156TIP3    H227884   5.137   0.064  11.035 -3.3957 -1.0819 -1.2271
 2157TIP3   OH227885   1.024   4.812  12.470 -0.4009  0.2178  0.4477
 2157TIP3    H127886   0.929   4.810  12.466 -0.4670  1.2786  1.0384
 2157TIP3    H227887   1.050   4.876  12.404  0.0426 -1.4704 -1.0731
 2158TIP3   OH227888   2.233   3.856   2.953 -0.7806  0.0442  0.4709
 2158TIP3    H127889   2.218   3.780   2.898  2.2224 -0.4039  0.1034
 2158TIP3    H227890   2.239   3.821   3.042 -1.8368  0.2417  0.6360
 2159TIP3   OH227891   3.370   0.662   3.384  0.4054  0.1556 -0.9075
 2159TIP3    H127892   3.375   0.757   3.383 -0.9971  0.2456 -0.2488
 2159TIP3    H227893   3.326   0.640   3.466 -0.6600 -0.9867 -1.7493
 2160TIP3   OH227894   5.808   4.068   3.986 -0.0867 -0.1410 -0.4393
 2160TIP3    H127895   5.746   3.999   4.008 -0.4316  0.4954  0.6689
 2160TIP3    H227896   5.893   4.034   4.014  0.0557 -0.9239 -1.7622
 2161TIP3   OH227897   6.834   5.931  10.413  0.0276 -0.1280 -0.3542
 2161TIP3    H127898   6.745   5.950  10.385 -0.3154  0.2433  0.9559
 2161TIP3    H227899   6.854   5.846  10.373 -1.2552 -0.6719  0.1338
 2162TIP3   OH227900   3.775   1.990   2.480 -0.3133 -0.0522  0.3536
 2162TIP3    H127901   3.786   1.948   2.565  2.6420 -0.7866 -0.2515
 2162TIP3    H227902   3.772   1.917   2.418  3.3149  0.3955 -0.5754
 2163TIP3   OH227903   0.668   4.491  12.803 -0.0132  0.1032 -0.1768
 2163TIP3    H127904   0.585   4.462  12.765 -0.2398  1.3614 -0.6716
 2163TIP3    H227905   0.686   4.426  12.871 -1.3762 -0.2281 -0.0887
 2164TIP3   OH227906   4.358   3.173  13.885 -0.2377 -0.0998 -0.0152
 2164TIP3    H127907   4.370   3.126  13.967 -0.6206  0.5847  0.4416
 2164TIP3    H227908   4.421   3.245  13.888  0.4007 -0.6040 -0.7459
 2165TIP3   OH227909   2.790   1.110  13.908  0.2432  0.1954 -0.1745
 2165TIP3    H127910   2.717   1.156  13.948 -0.7529 -0.3817 -1.2659
 2165TIP3    H227911   2.828   1.175  13.848  1.0503  0.6984  0.8421
 2166TIP3   OH227912   6.005   3.878   5.053 -0.5990  0.1398 -0.6251
 2166TIP3    H127913   5.992   3.920   4.968  1.3744  2.4297  0.0785
 2166TIP3    H227914   6.100   3.871   5.062 -0.7579 -0.2086  1.3192
 2167TIP3   OH227915   3.626   1.071  13.131  0.2638  0.0009 -0.5012
 2167TIP3    H127916   3.531   1.070  13.119  0.2622  0.9817 -0.6284
 2167TIP3    H227917   3.656   0.990  13.090 -0.5263 -0.4005 -0.3140
 2168TIP3   OH227918   6.601   1.449  13.639  0.2094 -0.2690  0.4926
 2168TIP3    H127919   6.594   1.396  13.559  2.0967 -0.4343  0.3969
 2168TIP3    H227920   6.619   1.537  13.608  0.4163 -0.2268  0.7351
 2169TIP3   OH227921   2.306   4.528   2.703  0.3350 -0.5364 -0.3019
 2169TIP3    H127922   2.321   4.476   2.624  1.5438  0.6601 -0.9086
 2169TIP3    H227923   2.211   4.535   2.710  0.1727  0.7885 -2.6822
 2170TIP3   OH227924   4.651   6.653  11.261  0.1172 -0.3222  0.1980
 2170TIP3    H127925   4.687   6.736  11.229  1.6863 -0.8735  0.4445
 2170TIP3    H227926   4.568   6.644  11.214 -0.7027  1.9426  1.0493
 2171TIP3   OH227927   2.976   5.104  12.926  0.2521  0.1815  0.2442
 2171TIP3    H127928   3.060   5.086  12.884 -0.1377  0.5878 -0.7404
 2171TIP3    H227929   2.913   5.109  12.854 -0.5842  0.1143  0.9429
 2172TIP3   OH227930   1.511   1.490   3.477 -0.6611 -0.4772 -0.5910
 2172TIP3    H127931   1.560   1.494   3.394 -0.1724 -0.8003 -0.3218
 2172TIP3    H227932   1.425   1.524   3.455 -0.9062 -1.6439 -1.5189
 2173TIP3   OH227933   3.334   6.768  13.456 -0.1350  0.2545  0.2135
 2173TIP3    H127934   3.370   6.825  13.388 -1.0023 -0.0705 -0.5407
 2173TIP3    H227935   3.240   6.779  13.448 -0.2806 -0.6683  0.6050
 2174TIP3   OH227936   3.624   4.667  12.244 -0.2576  0.6069 -0.4492
 2174TIP3    H127937   3.619   4.596  12.308 -2.7983  1.0900  0.0085
 2174TIP3    H227938   3.540   4.664  12.198 -1.8544  5.0209  1.6034
 2175TIP3   OH227939   0.055   1.255  11.839  0.3300  0.1390  0.2019
 2175TIP3    H127940   0.103   1.333  11.866  1.1241  0.0987 -1.0526
 2175TIP3    H227941   0.068   1.249  11.745 -0.2739 -1.1343  0.1728
 2176TIP3   OH227942   1.718   2.760   5.184 -0.2371  0.3202  0.1399
 2176TIP3    H127943   1.629   2.774   5.216 -0.4697  0.7190 -0.6495
 2176TIP3    H227944   1.754   2.848   5.176  0.2877  0.1532  0.6032
 2177TIP3   OH227945   2.468   5.781  14.305 -0.5797  0.7909  0.3769
 2177TIP3    H127946   2.507   5.834  14.236  1.6209  0.5842  1.3881
 2177TIP3    H227947   2.540   5.729  14.340 -2.3962 -2.0726  0.2045
 2178TIP3   OH227948   5.062   2.815  13.981  0.1375 -0.6196 -0.2442
 2178TIP3    H127949   5.024   2.788  13.898 -0.5398  1.1362 -0.5664
 2178TIP3    H227950   5.145   2.856  13.957  0.5258 -1.2195  0.0738
 2179TIP3   OH227951   3.360   0.794  11.931 -0.3083 -0.4790 -0.4153
 2179TIP3    H127952   3.342   0.887  11.945  1.0952 -0.0632 -1.2236
 2179TIP3    H227953   3.393   0.788  11.842  0.0066 -1.7072 -0.2419
 2180TIP3   OH227954   5.983   1.973   3.397  0.0362 -0.3577  0.6282
 2180TIP3    H127955   5.908   1.941   3.447  0.4642 -1.6521  0.4723
 2180TIP3    H227956   5.954   1.972   3.305  0.7144 -2.3493  0.3985
 2181TIP3   OH227957   4.094   5.194   1.625  0.7896 -0.9394 -0.8798
 2181TIP3    H127958   4.147   5.271   1.647 -1.6045  0.4500  0.4235
 2181TIP3    H227959   4.018   5.229   1.579 -1.0248 -2.2925  0.9086
 2182TIP3   OH227960   5.254   4.976  11.102 -0.4131  0.6431 -0.6492
 2182TIP3    H127961   5.176   4.928  11.131  0.8087 -0.4348  1.1554
 2182TIP3    H227962   5.323   4.947  11.163  1.2730  1.9358 -1.8418
 2183TIP3   OH227963   2.738   3.059   1.744  0.5164  0.2368 -0.1768
 2183TIP3    H127964   2.794   3.132   1.770 -1.2310  2.1564 -1.5381
 2183TIP3    H227965   2.794   3.006   1.686  1.8581  0.3452  0.9659
 2184TIP3   OH227966   0.214   2.648  16.560  0.2680 -0.1868 -0.0476
 2184TIP3    H127967   0.307   2.673  16.558 -0.1313  1.4634  0.5552
 2184TIP3    H227968   0.191   2.649  16.653 -0.5822  0.4117 -0.2532
 2185TIP3   OH227969   4.629   3.806   2.176  0.4331 -0.4505 -0.5382
 2185TIP3    H127970   4.677   3.838   2.099 -0.2483 -1.5208 -1.4310
 2185TIP3    H227971   4.681   3.732   2.207 -0.2752 -1.1968 -1.1100
 2186TIP3   OH227972   4.981   2.404  16.871  0.0906  0.3698 -0.1059
 2186TIP3    H127973   4.920   2.474  16.898 -1.4370  0.4598 -3.4014
 2186TIP3    H227974   4.954   2.328  16.922 -2.6115  0.5282 -1.1431
 2187TIP3   OH227975   2.317   1.968  10.981  0.2543 -0.1873  0.3763
 2187TIP3    H127976   2.340   1.930  10.896  0.1218 -1.4728  0.8797
 2187TIP3    H227977   2.251   2.034  10.961  0.3025 -0.3947 -0.5312
 2188TIP3   OH227978   0.690   0.302  16.337 -0.4020 -0.5137 -0.7606
 2188TIP3    H127979   0.773   0.347  16.321  1.3472 -3.1240  0.3074
 2188TIP3    H227980   0.674   0.313  16.430 -1.1100 -0.3158 -0.8973
 2189TIP3   OH227981   1.949   4.140  13.383 -0.0482  0.4451  0.0138
 2189TIP3    H127982   2.019   4.192  13.344  1.9407 -0.4829  2.1182
 2189TIP3    H227983   1.953   4.056  13.337  0.9430  0.0507  0.7799
 2190TIP3   OH227984   0.238   2.252   5.917 -0.1803 -0.8082 -0.2480
 2190TIP3    H127985   0.242   2.258   5.822  0.3149  0.8695 -0.1590
 2190TIP3    H227986   0.329   2.255   5.945 -0.3662  1.2396  0.3388
 2191TIP3   OH227987   0.422   4.578   3.605 -0.1183  0.4831 -0.3751
 2191TIP3    H127988   0.480   4.645   3.643 -0.3333  0.5526 -0.1632
 2191TIP3    H227989   0.372   4.545   3.680 -0.3126  0.3846 -0.5476
 2192TIP3   OH227990   5.783   4.139   2.611 -0.2503  0.3963  0.1796
 2192TIP3    H127991   5.773   4.163   2.519 -1.8469  0.0229  0.2243
 2192TIP3    H227992   5.789   4.223   2.657 -1.7298  0.6482 -0.0545
 2193TIP3   OH227993   2.304   4.673  15.070  0.1528 -0.5436  0.1229
 2193TIP3    H127994   2.250   4.669  15.149  0.5707 -0.4532  0.4232
 2193TIP3    H227995   2.289   4.590  15.026 -0.0952 -0.5908  0.2965
 2194TIP3   OH227996   0.413   5.639   0.073 -0.0353  0.4180 -0.3970
 2194TIP3    H127997   0.469   5.562   0.062 -1.0550 -0.3871 -0.1318
 2194TIP3    H227998   0.349   5.613   0.139 -0.2190  1.6094 -0.0799
 2195TIP3   OH227999   3.819   3.993   0.916  0.1339  0.3617 -0.0707
 2195TIP3    H128000   3.771   3.928   0.967  0.9984  0.8776  1.4633
 2195TIP3    H228001   3.883   3.942   0.866  0.2120 -0.0580  0.4475
 2196TIP3   OH228002   0.755   3.678  16.124  0.0420  0.2598  0.7035
 2196TIP3    H128003   0.752   3.751  16.186  0.3758 -1.8135  3.3583
 2196TIP3    H228004   0.823   3.702  16.062  2.9428  0.6670  3.7660
 2197TIP3   OH228005   0.078   1.064  15.079 -0.3176 -0.2566 -0.8309
 2197TIP3    H128006  -0.001   1.111  15.052  0.1326  1.5875  0.7471
 2197TIP3    H228007   0.093   1.000  15.011 -2.3893  0.2916 -1.8822
 2198TIP3   OH228008   2.438   4.232   0.299  0.0318 -0.3000  0.1948
 2198TIP3    H128009   2.506   4.261   0.238  0.4018  0.1561  0.8073
 2198TIP3    H228010   2.369   4.196   0.243 -0.5377  1.8993 -0.6272
 2199TIP3   OH228011   6.037   0.136   6.380  0.0710 -0.7576  0.3036
 2199TIP3    H128012   6.075   0.058   6.419  1.9040  0.2534  0.6741
 2199TIP3    H228013   5.975   0.168   6.446 -0.1776 -1.4958  0.4384
 2200TIP3   OH228014   3.821   0.526   5.586  0.3181 -0.3838  0.0866
 2200TIP3    H128015   3.753   0.588   5.612  0.9619  0.9829 -1.2961
 2200TIP3    H228016   3.903   0.570   5.606  0.7964 -0.5172 -1.4174
 2201TIP3   OH228017   2.920   2.338   5.458 -0.0390  0.0410 -0.2208
 2201TIP3    H128018   2.839   2.322   5.506  0.2399  0.4353  0.3819
 2201TIP3    H228019   2.918   2.431   5.438  0.4245  0.1144  0.0810
 2202TIP3   OH228020   6.419   5.547  14.002  0.2226  0.0001  0.1262
 2202TIP3    H128021   6.428   5.605  13.927  0.0396 -0.4306 -0.2387
 2202TIP3    H228022   6.488   5.482  13.992  0.7612  0.4554  0.8188
 2203TIP3   OH228023   5.359   3.825   5.714  0.2744  0.3201  0.0233
 2203TIP3    H128024   5.268   3.818   5.743 -0.3393 -1.0221 -2.0023
 2203TIP3    H228025   5.409   3.836   5.795 -1.6538  1.0487  1.1925
 2204TIP3   OH228026   6.335   4.334   3.447 -0.3343 -0.3524  0.2492
 2204TIP3    H128027   6.406   4.289   3.402 -1.1851 -0.3038 -1.2093
 2204TIP3    H228028   6.378   4.404   3.496  0.7769 -1.3842  0.7819
 2205TIP3   OH228029   2.512   1.452  16.044  0.5841  0.0047 -0.4518
 2205TIP3    H128030   2.478   1.474  16.131 -0.2069  1.0550 -1.0041
 2205TIP3    H228031   2.593   1.404  16.061  1.1405  1.3407  0.8633
 2206TIP3   OH228032   1.570   1.103  10.917  0.1761 -0.0410 -0.5559
 2206TIP3    H128033   1.615   1.160  10.980  0.4958  0.2703 -1.0577
 2206TIP3    H228034   1.581   1.015  10.953 -2.0594  0.3360  1.3112
 2207TIP3   OH228035   5.736   1.483  12.656 -0.0853  0.7238 -0.1272
 2207TIP3    H128036   5.698   1.557  12.610  1.7830  2.6961  1.2565
 2207TIP3    H228037   5.828   1.507  12.668  0.5963 -1.8284  0.4267
 2208TIP3   OH228038   4.120   6.329  14.334  0.3631 -0.1247  0.0240
 2208TIP3    H128039   4.108   6.295  14.245  0.6114  1.3438 -0.6177
 2208TIP3    H228040   4.128   6.252  14.389 -1.1494 -1.0911 -1.0264
 2209TIP3   OH228041   0.118   0.215  13.385 -0.1221 -0.0447  0.5370
 2209TIP3    H128042   0.037   0.234  13.432  0.1313  0.1600  0.8982
 2209TIP3    H228043   0.093   0.151  13.318 -0.6286  0.2056  0.4839
 2210TIP3   OH228044   2.723   2.558   0.941 -0.2553  0.0696 -0.0432
 2210TIP3    H128045   2.635   2.540   0.973 -0.0950 -0.2654  0.2166
 2210TIP3    H228046   2.734   2.653   0.951 -0.8641  0.2237 -0.7984
 2211TIP3   OH228047   4.515   5.803  15.455 -0.2812 -0.0091  0.0338
 2211TIP3    H128048   4.602   5.825  15.488  0.3927 -0.8896 -1.0898
 2211TIP3    H228049   4.468   5.886  15.454  0.5309  0.4755  0.6867
 2212TIP3   OH228050   2.670   3.607  12.875  0.1631 -0.6991  0.4187
 2212TIP3    H128051   2.730   3.636  12.807 -1.0777 -2.0160 -1.3107
 2212TIP3    H228052   2.706   3.523  12.904  0.5246 -0.2818  1.2239
 2213TIP3   OH228053   0.137   1.645  14.436  0.1981 -0.5917 -0.3502
 2213TIP3    H128054   0.222   1.660  14.478  0.4633 -0.5545 -0.8909
 2213TIP3    H228055   0.078   1.622  14.508  0.5866 -0.2924  0.0715
 2214TIP3   OH228056   1.853   4.429   3.654  0.0631  0.4088 -0.0904
 2214TIP3    H128057   1.921   4.386   3.603  0.7097  0.8537  0.3739
 2214TIP3    H228058   1.865   4.396   3.743 -0.2396  0.5975  0.0224
 2215TIP3   OH228059   6.451   5.284   5.400  0.4793  0.5451 -0.4338
 2215TIP3    H128060   6.457   5.272   5.495 -0.6325 -0.7351 -0.5107
 2215TIP3    H228061   6.455   5.196   5.364  0.5515  0.9984 -1.5705
 2216TIP3   OH228062   2.920   0.773  14.462 -0.1058  0.0364 -0.0221
 2216TIP3    H128063   2.830   0.746  14.444 -0.1824 -0.4374  0.9954
 2216TIP3    H228064   2.911   0.858  14.505  0.0664  1.0762 -1.9381
 2217TIP3   OH228065   3.096   0.512   0.949  0.1061 -0.1204  0.2530
 2217TIP3    H128066   3.189   0.517   0.929  0.1664  1.0303  0.7322
 2217TIP3    H228067   3.076   0.419   0.950  1.2194 -0.3700  0.0060
 2218TIP3   OH228068   1.792   4.304  13.788 -0.1097 -0.0000  0.1247
 2218TIP3    H128069   1.767   4.234  13.727 -0.0204  0.2686 -0.2192
 2218TIP3    H228070   1.847   4.363  13.736 -0.1903  0.3311  0.4148
 2219TIP3   OH228071   2.952   6.245  16.117 -0.1904  0.0577 -0.4588
 2219TIP3    H128072   2.925   6.243  16.209  0.8157 -2.7182 -0.1305
 2219TIP3    H228073   3.007   6.323  16.110 -0.0890  0.1922  1.3564
 2220TIP3   OH228074   2.062   2.234   1.902  0.2836 -0.0973  0.0361
 2220TIP3    H128075   2.023   2.306   1.952  1.9383 -0.1976  1.5566
 2220TIP3    H228076   2.082   2.167   1.968 -1.3341 -2.0695 -1.3421
 2221TIP3   OH228077   5.468   0.350   3.561 -0.0429  0.1351  0.2141
 2221TIP3    H128078   5.560   0.375   3.572  0.9864 -2.6096 -1.1375
 2221TIP3    H228079   5.464   0.310   3.474 -1.7426 -2.7314  1.4815
 2222TIP3   OH228080   2.012   2.954  13.015 -0.2736  0.2771 -0.6712
 2222TIP3    H128081   2.024   2.859  13.018  0.8054  0.3299 -2.2777
 2222TIP3    H228082   1.939   2.968  12.955 -0.0410  0.4732 -0.9146
 2223TIP3   OH228083   0.614   1.576  10.874 -0.0260  0.3080  0.4347
 2223TIP3    H128084   0.567   1.581  10.957  1.7582  2.7897  1.4513
 2223TIP3    H228085   0.673   1.501  10.884 -0.4501  0.0534  1.0637
 2224TIP3   OH228086   6.771   6.713  10.814 -0.0793  0.8150  0.2902
 2224TIP3    H128087   6.776   6.650  10.742 -0.6592 -1.0832  1.8260
 2224TIP3    H228088   6.732   6.664  10.886  2.5610  1.9226  2.6699
 2225TIP3   OH228089   3.367   5.422   0.776  0.7212  0.0360 -0.2007
 2225TIP3    H128090   3.414   5.348   0.815  0.1123  1.0697  2.7179
 2225TIP3    H228091   3.275   5.400   0.784  0.5651  0.4211 -0.8299
 2226TIP3   OH228092   4.041   3.490  13.182  0.1687 -0.2376  0.1681
 2226TIP3    H128093   4.095   3.563  13.151  2.3665 -0.3726  3.2150
 2226TIP3    H228094   3.951   3.522  13.175  0.9827  2.2416  0.1521
 2227TIP3   OH228095   4.953   0.055   1.090 -0.2445 -0.2117 -0.8303
 2227TIP3    H128096   4.966   0.150   1.097  0.3424 -0.3271 -0.1969
 2227TIP3    H228097   5.033   0.017   1.127 -0.8616 -0.9538 -0.2047
 2228TIP3   OH228098   5.493   2.605   2.223  0.3868 -0.2703  0.4790
 2228TIP3    H128099   5.485   2.531   2.283 -1.0173 -1.2898 -0.9008
 2228TIP3    H228100   5.562   2.660   2.262  0.8281 -1.8228  2.0072
 2229TIP3   OH228101   2.602   0.081  12.417  0.5680 -0.3367  0.1197
 2229TIP3    H128102   2.507   0.086  12.425  0.5298 -0.2141 -0.3679
 2229TIP3    H228103   2.633   0.070  12.507  0.0074 -1.9369  0.1416
 2230TIP3   OH228104   4.439   0.560  15.618 -0.6687  0.2253  0.2189
 2230TIP3    H128105   4.458   0.509  15.540 -2.1857 -0.9800  0.6055
 2230TIP3    H228106   4.389   0.635  15.586 -1.1856 -0.2045  0.0081
 2231TIP3   OH228107   1.430   0.176   0.870  0.2957 -0.5751  0.5849
 2231TIP3    H128108   1.363   0.182   0.801  0.9844 -1.1536 -0.1578
 2231TIP3    H228109   1.392   0.223   0.944 -1.1469 -1.2954  0.3488
 2232TIP3   OH228110   5.436   5.687  16.566  0.1996  0.2647  0.2799
 2232TIP3    H128111   5.352   5.708  16.608 -1.0919 -2.5410 -0.5917
 2232TIP3    H228112   5.411   5.653  16.479  2.5212  2.4353 -1.3655
 2233TIP3   OH228113   4.158   6.834   2.494 -0.3233  0.1312 -0.5204
 2233TIP3    H128114   4.250   6.847   2.469 -0.5551 -1.2066 -2.2354
 2233TIP3    H228115   4.156   6.852   2.588  2.0530 -1.5203 -0.0696
 2234TIP3   OH228116   0.069   6.566  12.786 -0.4385  0.0786  0.2767
 2234TIP3    H128117   0.000   6.632  12.795 -0.3740  0.1568  0.1893
 2234TIP3    H228118   0.066   6.539  12.694  0.8210  1.3632 -0.1823
 2235TIP3   OH228119   4.305   3.601  14.693  0.0152  0.1316  0.0647
 2235TIP3    H128120   4.327   3.633  14.606  0.6793  0.5484  0.3792
 2235TIP3    H228121   4.219   3.637  14.711 -1.4037 -2.2105 -1.5335
 2236TIP3   OH228122   6.011   0.394  12.114  0.4588  0.1501  0.5103
 2236TIP3    H128123   6.065   0.316  12.124 -1.6687 -1.9380 -2.3957
 2236TIP3    H228124   6.052   0.443  12.043 -1.4378 -1.7026 -2.0676
 2237TIP3   OH228125   4.677   0.349   5.725  0.5768 -0.2725 -0.6043
 2237TIP3    H128126   4.719   0.336   5.810  2.7516  1.5887 -1.2765
 2237TIP3    H228127   4.709   0.277   5.671  1.0057 -0.2240 -0.4261
 2238TIP3   OH228128   4.622   5.326  13.479  0.5123  0.7552  0.0586
 2238TIP3    H128129   4.558   5.263  13.511  0.5662 -0.2136 -1.6417
 2238TIP3    H228130   4.622   5.395  13.545 -2.2798  0.7993  0.1559
 2239TIP3   OH228131   2.208   3.433  12.457 -0.1913 -0.4678 -0.2647
 2239TIP3    H128132   2.160   3.464  12.534 -0.0975 -1.0781  0.0431
 2239TIP3    H228133   2.144   3.435  12.386 -0.2728  0.1156 -0.1783
 2240TIP3   OH228134   5.401   5.322   0.005 -0.2121 -0.0439  0.1611
 2240TIP3    H128135   5.481   5.276   0.029 -0.2799  0.4622  1.3938
 2240TIP3    H228136   5.331   5.272   0.046 -0.4359  0.1519  0.0231
 2241TIP3   OH228137   1.762   1.070  11.393 -0.2601  0.7127 -0.6544
 2241TIP3    H128138   1.711   0.991  11.410  0.0391  1.1721  3.3423
 2241TIP3    H228139   1.850   1.038  11.374 -0.2773  0.0720  0.3109
 2242TIP3   OH228140   6.602   2.776   5.290  0.2525 -0.6574 -0.1392
 2242TIP3    H128141   6.593   2.688   5.256 -1.2756 -0.0951 -1.3089
 2242TIP3    H228142   6.556   2.775   5.374 -0.8328 -0.6916 -0.7214
 2243TIP3   OH228143   1.332   4.720   5.289  0.1693  0.3003  0.0014
 2243TIP3    H128144   1.274   4.728   5.214 -2.3680 -1.7708  1.5629
 2243TIP3    H228145   1.311   4.634   5.326  2.7019  0.4063  1.9748
 2244TIP3   OH228146   2.782   3.963   2.436  0.3341 -0.4789 -0.3177
 2244TIP3    H128147   2.724   3.887   2.432 -0.4664  0.0983  0.2078
 2244TIP3    H228148   2.724   4.038   2.440  1.1152  0.1142  0.2515
 2245TIP3   OH228149   3.390   4.981  13.012 -0.1821 -0.1095 -0.1508
 2245TIP3    H128150   3.467   4.931  12.984  0.2000 -0.3021  1.1825
 2245TIP3    H228151   3.416   5.021  13.095 -1.0558  0.9689 -0.3642
 2246TIP3   OH228152   5.470   1.118   6.106 -0.5411  0.2967  0.2017
 2246TIP3    H128153   5.470   1.028   6.140  2.6402  0.1735  0.1768
 2246TIP3    H228154   5.513   1.169   6.175  0.5488  1.1710 -1.0875
 2247TIP3   OH228155   4.313   2.411   5.736  0.2862  0.4337  0.5543
 2247TIP3    H128156   4.383   2.395   5.672 -0.4652  1.3997 -0.5482
 2247TIP3    H228157   4.358   2.412   5.821  1.3700 -0.4513  0.0263
 2248TIP3   OH228158   1.238   6.549   3.261 -0.4700 -0.1813  0.6264
 2248TIP3    H128159   1.216   6.492   3.188 -0.7827  0.1281  0.4750
 2248TIP3    H228160   1.168   6.615   3.261  0.6164  1.0266 -0.0895
 2249TIP3   OH228161   0.722   0.540   5.194 -0.0345  0.5864  0.4151
 2249TIP3    H128162   0.742   0.449   5.215 -0.4070  0.0275 -1.5080
 2249TIP3    H228163   0.756   0.590   5.269  2.0695 -0.9379  0.5608
 2250TIP3   OH228164   5.632   1.548  12.028  0.4982 -0.5233 -0.2227
 2250TIP3    H128165   5.609   1.474  11.970  0.3673  0.3839 -1.3718
 2250TIP3    H228166   5.718   1.525  12.062  0.9760 -0.6872 -1.4843
 2251TIP3   OH228167   6.016   0.177  14.410  0.2037  0.5438 -0.2264
 2251TIP3    H128168   6.008   0.272  14.417 -2.5531  0.3427  0.8543
 2251TIP3    H228169   5.976   0.144  14.491  0.4758 -1.5445 -0.8832
 2252TIP3   OH228170   1.164   6.529   2.371 -0.1484 -0.4973  0.4651
 2252TIP3    H128171   1.193   6.455   2.317 -0.5858 -0.2181 -0.1640
 2252TIP3    H228172   1.238   6.589   2.371 -0.5575  0.0601 -0.8592
 2253TIP3   OH228173   6.097   1.625  11.072  0.4566 -0.9671  0.0109
 2253TIP3    H128174   6.116   1.531  11.069  0.9734 -0.8296 -1.0840
 2253TIP3    H228175   6.089   1.644  11.166  2.6737 -1.6399  0.3954
 2254TIP3   OH228176   5.989   6.666  13.604 -0.5633  0.2732 -0.1964
 2254TIP3    H128177   6.078   6.679  13.638 -1.0487  1.3132  0.7387
 2254TIP3    H228178   5.935   6.657  13.682 -1.0220 -2.6120 -0.7477
 2255TIP3   OH228179   4.909   4.079   1.081 -0.0541  0.6129 -0.3632
 2255TIP3    H128180   4.923   4.100   1.174  0.9818  0.2739 -0.4389
 2255TIP3    H228181   4.971   4.135   1.034 -1.8098  2.1575 -1.0101
 2256TIP3   OH228182   4.727   5.967  16.768  0.0951 -0.0046 -0.1153
 2256TIP3    H128183   4.759   6.041  16.820 -0.7288  0.3207 -0.0468
 2256TIP3    H228184   4.641   5.995  16.737  0.2310 -0.5140 -0.9986
 2257TIP3   OH228185   1.736   3.342  16.291 -0.4588 -0.1331  0.1328
 2257TIP3    H128186   1.751   3.337  16.197 -0.0670 -0.0892  0.1924
 2257TIP3    H228187   1.792   3.274  16.328  0.6124  0.9007  0.4653
 2258TIP3   OH228188   5.196   4.700   3.914 -0.1938 -0.3825 -0.1293
 2258TIP3    H128189   5.203   4.609   3.942 -0.6583 -0.3674  0.0404
 2258TIP3    H228190   5.285   4.723   3.886 -0.1495 -0.9881 -0.5008
 2259TIP3   OH228191   4.344   4.847   2.274  0.4837  0.4077 -0.6943
 2259TIP3    H128192   4.349   4.753   2.259 -1.2884  0.2046 -0.1916
 2259TIP3    H228193   4.433   4.871   2.302  0.7581 -1.2704  0.0254
 2260TIP3   OH228194   3.996   2.308  11.823  0.5662  0.2146  0.9884
 2260TIP3    H128195   3.907   2.333  11.846  0.8715  1.8269  0.5583
 2260TIP3    H228196   4.017   2.235  11.882 -1.2319 -0.6098  0.6533
 2261TIP3   OH228197   4.030   0.742   2.460 -0.5232  0.1979  0.0219
 2261TIP3    H128198   3.939   0.750   2.488 -0.0213  0.5100  1.6577
 2261TIP3    H228199   4.030   0.777   2.371 -2.4036 -1.8856 -0.9270
 2262TIP3   OH228200   3.010   1.813  14.504 -0.0741 -1.0669  0.4983
 2262TIP3    H128201   3.069   1.886  14.485 -0.7461 -0.2911  1.3019
 2262TIP3    H228202   2.923   1.853  14.507 -0.7449 -2.2813 -1.2454
 2263TIP3   OH228203   6.542   1.645   2.766  0.6631 -0.4861 -0.2060
 2263TIP3    H128204   6.471   1.637   2.702 -0.2774 -0.1604  0.7689
 2263TIP3    H228205   6.590   1.562   2.760  1.4983  0.0777 -2.3372
 2264TIP3   OH228206   3.658   5.015   2.995  0.2753  0.2455  0.4726
 2264TIP3    H128207   3.690   5.097   3.031 -1.3483  0.6566  1.1036
 2264TIP3    H228208   3.674   5.021   2.901  0.8722  0.9399  0.6149
 2265TIP3   OH228209   6.418   5.111  15.583  0.2956  0.7317  0.0260
 2265TIP3    H128210   6.447   5.191  15.629  0.9096  0.7164 -0.3296
 2265TIP3    H228211   6.468   5.041  15.624 -1.4841  0.2605  1.5358
 2266TIP3   OH228212   5.761   1.193   0.568  0.5148 -0.5217 -0.2024
 2266TIP3    H128213   5.716   1.119   0.528  1.5300 -1.2729  0.0055
 2266TIP3    H228214   5.812   1.232   0.497  0.6855 -0.5735 -0.1081
 2267TIP3   OH228215   5.545   0.033  15.089  0.5323 -0.1786 -0.0486
 2267TIP3    H128216   5.600   0.024  15.167  1.2221 -0.4230 -0.5528
 2267TIP3    H228217   5.598   0.086  15.030 -1.2199  2.7723  0.8017
 2268TIP3   OH228218   3.808   3.954  16.483  0.2882 -0.0128 -0.1177
 2268TIP3    H128219   3.872   3.996  16.426 -0.0496  0.6963  0.0107
 2268TIP3    H228220   3.782   3.875  16.436  1.0349 -0.1522 -0.3041
 2269TIP3   OH228221   0.702   2.569   4.144  0.1353 -0.1459  0.1066
 2269TIP3    H128222   0.722   2.505   4.075 -1.5643  0.5729 -1.1154
 2269TIP3    H228223   0.711   2.654   4.101 -3.9709  0.2924 -0.2883
 2270TIP3   OH228224   3.511   2.462   1.272  0.0465  0.3687 -0.2392
 2270TIP3    H128225   3.541   2.551   1.255 -0.4096  0.5455 -0.1219
 2270TIP3    H228226   3.453   2.441   1.199  0.2737  0.1101 -0.3478
 2271TIP3   OH228227   0.865   5.839  11.492  0.4232 -0.4272  0.2253
 2271TIP3    H128228   0.849   5.765  11.434 -0.3324  0.0542 -0.2084
 2271TIP3    H228229   0.933   5.890  11.448 -0.6308  0.3025 -0.6228
 2272TIP3   OH228230   1.734   4.234  11.180  0.7505  1.0008 -0.2220
 2272TIP3    H128231   1.719   4.320  11.220 -1.6359  0.7952 -0.5820
 2272TIP3    H228232   1.720   4.172  11.252  0.5941  0.8269 -0.4039
 2273TIP3   OH228233   1.025   1.727   1.036  0.3862 -0.2824  0.3051
 2273TIP3    H128234   1.096   1.790   1.048 -0.2291  0.5015 -0.0706
 2273TIP3    H228235   1.015   1.720   0.941  0.6695 -1.2104  0.3335
 2274TIP3   OH228236   1.937   2.774  14.320 -0.0394 -0.0929 -0.3972
 2274TIP3    H128237   1.941   2.698  14.378  0.6147 -0.7192 -1.2448
 2274TIP3    H228238   1.935   2.736  14.232 -0.8432  0.8472 -0.7994
 2275TIP3   OH228239   6.051   1.764  13.392 -0.1631 -0.3805  0.0450
 2275TIP3    H128240   6.133   1.814  13.394  0.4273 -1.2657 -0.9941
 2275TIP3    H228241   6.055   1.713  13.311 -0.7031 -2.1620  1.0664
 2276TIP3   OH228242   0.570   0.965  15.983  0.2719  0.7178  0.4047
 2276TIP3    H128243   0.584   1.059  15.995  0.9407  0.6034  0.5282
 2276TIP3    H228244   0.544   0.956  15.891  2.8511  0.7462 -0.4106
 2277TIP3   OH228245   5.084   6.290  14.512 -0.6824 -0.2712  0.0318
 2277TIP3    H128246   5.050   6.230  14.578  0.7536  1.2078  2.2605
 2277TIP3    H228247   5.092   6.374  14.557  2.9515  0.2098 -1.1146
 2278TIP3   OH228248   2.626   5.951  12.074  0.5192  0.6561 -0.1113
 2278TIP3    H128249   2.702   5.947  12.132 -0.7106  0.9505  1.5615
 2278TIP3    H228250   2.603   6.043  12.070 -0.8640  0.3768  0.9031
 2279TIP3   OH228251   6.448   3.042   4.433 -0.3978  0.2321  0.1005
 2279TIP3    H128252   6.407   2.965   4.394 -0.0801 -0.9252  1.9163
 2279TIP3    H228253   6.374   3.098   4.457 -0.7525 -0.3027  0.2986
 2280TIP3   OH228254   2.247   2.087   0.841  0.3573 -0.1158 -0.1341
 2280TIP3    H128255   2.267   2.056   0.752  0.3374  2.3926 -1.1167
 2280TIP3    H228256   2.155   2.063   0.854  0.2202 -0.1148 -0.9966
 2281TIP3   OH228257   3.231   2.710  16.368  0.3217  0.4178  0.5418
 2281TIP3    H128258   3.193   2.708  16.456  0.7361 -1.3009  0.7319
 2281TIP3    H228259   3.173   2.655  16.315  0.5269  0.7730 -0.0677
 2282TIP3   OH228260   2.926   0.346  13.410 -0.0775 -0.4247  0.8972
 2282TIP3    H128261   2.934   0.272  13.350 -1.1122 -1.3316  1.8094
 2282TIP3    H228262   2.840   0.333  13.451  0.3033  0.5408  2.0519
 2283TIP3   OH228263   5.456   2.617  11.866  0.6210 -0.1865  0.1754
 2283TIP3    H128264   5.463   2.526  11.837 -0.3757 -0.2016 -0.0514
 2283TIP3    H228265   5.421   2.663  11.789  0.4190  0.2480  0.5257
 2284TIP3   OH228266   6.346   5.978  10.572  0.2188  0.5348  0.3629
 2284TIP3    H128267   6.354   5.941  10.484  1.8437 -0.6481  0.9404
 2284TIP3    H228268   6.277   6.044  10.565  1.0197  1.2220 -2.0300
 2285TIP3   OH228269   4.155   3.825  13.323 -1.0173  0.0995 -0.0470
 2285TIP3    H128270   4.069   3.828  13.363 -1.8843 -1.5174 -1.6599
 2285TIP3    H228271   4.142   3.777  13.241  1.4489 -0.3258 -0.2604
 2286TIP3   OH228272   6.264   2.686  11.088 -0.0991  0.1052  0.8783
 2286TIP3    H128273   6.347   2.708  11.131  0.3669 -0.3387  0.2260
 2286TIP3    H228274   6.282   2.697  10.995  0.0587 -2.5253  0.5246
 2287TIP3   OH228275   6.750   1.004  12.982  0.2211 -0.4079  0.2484
 2287TIP3    H128276   6.742   0.990  13.077  0.3842 -0.7330  0.2166
 2287TIP3    H228277   6.817   0.942  12.954  1.4191  0.8851  0.1861
 2288TIP3   OH228278   2.780   4.080   4.616 -0.0374  0.1316  0.5314
 2288TIP3    H128279   2.701   4.113   4.572 -0.4324  0.1453  1.2459
 2288TIP3    H228280   2.851   4.128   4.574 -0.5054  0.9675  0.6708
 2289TIP3   OH228281   0.830   6.022  15.378  0.2338  0.3683 -0.7037
 2289TIP3    H128282   0.881   5.946  15.406 -1.4032 -0.7477 -0.6084
 2289TIP3    H228283   0.808   6.066  15.460  0.0525  0.1776 -0.6480
 2290TIP3   OH228284   1.924   2.965   0.343  0.1203  0.0317  0.3070
 2290TIP3    H128285   1.979   2.972   0.265  0.3352  0.1065  0.4656
 2290TIP3    H228286   1.845   2.920   0.312  0.2946 -0.1300  0.0936
 2291TIP3   OH228287   0.375   3.542  13.300 -0.0248  0.1332  0.0879
 2291TIP3    H128288   0.401   3.565  13.390 -0.1275 -0.2731  0.2245
 2291TIP3    H228289   0.296   3.490  13.311  0.9420 -1.4495 -0.1215
 2292TIP3   OH228290   6.243   2.792  12.025  0.1308 -0.7284 -0.1504
 2292TIP3    H128291   6.180   2.812  12.094  1.8104  1.2743  0.9388
 2292TIP3    H228292   6.326   2.782  12.072  1.1232 -0.4367 -1.7687
 2293TIP3   OH228293   3.368   5.953  16.789  0.0267  0.4079 -0.4919
 2293TIP3    H128294   3.384   5.895  16.714 -1.6135 -0.3474 -0.2987
 2293TIP3    H228295   3.451   5.956  16.835  0.8183  0.1694 -1.8438
 2294TIP3   OH228296   5.316   3.763   6.161  0.2751  0.0469  0.3372
 2294TIP3    H128297   5.290   3.817   6.236 -0.2345  1.7356 -0.9940
 2294TIP3    H228298   5.347   3.826   6.096  1.2638 -1.4204 -0.6791
 2295TIP3   OH228299   3.832   4.297   1.499 -0.0557  0.3194  0.0528
 2295TIP3    H128300   3.917   4.340   1.500  0.3041 -0.3814  0.0321
 2295TIP3    H228301   3.851   4.204   1.515 -0.6313 -0.1232 -1.6129
 2296TIP3   OH228302   0.301   0.662  15.632 -0.0818 -0.0468 -0.3052
 2296TIP3    H128303   0.221   0.712  15.645 -0.6373 -1.0677  0.2720
 2296TIP3    H228304   0.286   0.614  15.550  0.2189  0.2619 -0.5480
 2297TIP3   OH228305   4.056   6.200   0.156  0.0567  0.1074  0.4034
 2297TIP3    H128306   4.079   6.144   0.230  2.5688 -0.8098 -0.9608
 2297TIP3    H228307   4.140   6.234   0.124 -0.6868 -0.9402 -3.0783
 2298TIP3   OH228308   5.992   4.845  13.217  0.4376  0.2217 -0.2242
 2298TIP3    H128309   6.087   4.846  13.203  0.5310  0.3278  0.3625
 2298TIP3    H228310   5.973   4.756  13.247  0.2609  0.0303 -0.8823
 2299TIP3   OH228311   6.142   5.855  10.129  0.3736  0.2003 -0.4269
 2299TIP3    H128312   6.048   5.850  10.111  0.4377  1.4777 -1.2345
 2299TIP3    H228313   6.159   5.948  10.139  1.6571  0.0138 -0.7946
 2300TIP3   OH228314   0.035   5.371   1.037  0.2266  0.0601 -0.1355
 2300TIP3    H128315   0.081   5.454   1.026  0.0059  0.0859 -0.9481
 2300TIP3    H228316   0.015   5.367   1.130  0.2607  0.9074 -0.0809
 2301TIP3   OH228317   3.118   3.468   3.524  0.0766 -0.4056  0.0474
 2301TIP3    H128318   3.158   3.403   3.465  1.6841 -0.9503  1.6712
 2301TIP3    H228319   3.090   3.538   3.465  0.2646 -1.5767 -1.5281
 2302TIP3   OH228320   5.370   6.412  10.017  0.3722 -0.5823 -0.5191
 2302TIP3    H128321   5.373   6.418   9.921 -0.8382 -0.6547 -0.5803
 2302TIP3    H228322   5.389   6.320  10.036 -0.9769 -0.9412 -0.8038
 2303TIP3   OH228323   5.601   3.235   0.289 -0.2828  0.2981 -0.1107
 2303TIP3    H128324   5.568   3.179   0.219 -0.0912  0.4229 -0.3018
 2303TIP3    H228325   5.659   3.178   0.340  1.5010  0.8127 -1.4631
 2304TIP3   OH228326   0.431   5.925  15.773 -0.5198  0.0102 -0.4464
 2304TIP3    H128327   0.482   5.855  15.814 -0.9805 -1.2785 -1.9487
 2304TIP3    H228328   0.419   5.990  15.842  2.6611  0.1450  0.1235
 2305TIP3   OH228329   3.596   1.539   0.981 -0.2413  0.8305 -0.0770
 2305TIP3    H128330   3.595   1.466   1.043  0.8402  0.5185 -0.3986
 2305TIP3    H228331   3.688   1.564   0.976 -0.7100  2.9141  0.8232
 2306TIP3   OH228332   1.655   6.168  11.139 -0.2549  0.7738 -0.5893
 2306TIP3    H128333   1.700   6.129  11.214 -3.2585 -0.4911  0.7261
 2306TIP3    H228334   1.687   6.120  11.063  1.4674  0.8134  0.0704
 2307TIP3   OH228335   1.467   3.380  11.468  0.2482  0.3128 -0.2680
 2307TIP3    H128336   1.383   3.336  11.451  1.1179 -1.9236  0.7821
 2307TIP3    H228337   1.531   3.309  11.466  1.9148  1.7392  0.4869
 2308TIP3   OH228338   5.210   5.955  11.275  0.2004  0.4092 -0.4798
 2308TIP3    H128339   5.189   6.011  11.350 -2.3277  0.7882 -1.3842
 2308TIP3    H228340   5.154   5.988  11.204  1.5139 -0.8097 -2.1682
 2309TIP3   OH228341   2.887   4.308   5.312 -0.1089  0.2776 -0.2534
 2309TIP3    H128342   2.804   4.281   5.352 -1.1885  3.1113 -0.2771
 2309TIP3    H228343   2.879   4.283   5.220 -0.9410  0.4295 -0.2361
 2310TIP3   OH228344   4.687   2.547   3.769  0.3041 -0.0482  0.6188
 2310TIP3    H128345   4.633   2.593   3.833 -0.3921 -0.1012  0.0899
 2310TIP3    H228346   4.776   2.557   3.800 -0.1325 -1.5231  2.5389
 2311TIP3   OH228347   6.803   5.780   2.828  0.1020  0.2108  0.1491
 2311TIP3    H128348   6.841   5.771   2.915  0.2830  0.7625  0.1331
 2311TIP3    H228349   6.872   5.753   2.768  0.5655  1.4121  0.1100
 2312TIP3   OH228350   6.060   6.672   2.207  0.6545  0.1849  0.3003
 2312TIP3    H128351   6.115   6.599   2.234  0.8397 -0.2095 -1.0609
 2312TIP3    H228352   6.113   6.750   2.227  1.3738 -0.1558 -0.2174
 2313TIP3   OH228353   5.954   2.464   1.123 -0.3508  0.2168  0.5581
 2313TIP3    H128354   6.015   2.538   1.122  1.3083 -1.0650 -1.2198
 2313TIP3    H228355   5.940   2.443   1.031 -1.8595 -0.8585  0.9925
 2314TIP3   OH228356   0.529   2.085   5.045 -0.2047  0.5071  0.1602
 2314TIP3    H128357   0.454   2.090   4.985  0.9974  0.5090 -1.3904
 2314TIP3    H228358   0.583   2.161   5.022 -0.2658  1.1957  2.0736
 2315TIP3   OH228359   1.980   0.789  13.200  0.3229  0.2656 -0.6061
 2315TIP3    H128360   1.885   0.782  13.207  0.5500 -3.1302  0.9204
 2315TIP3    H228361   2.003   0.734  13.126  1.2029 -0.3815  0.1270
 2316TIP3   OH228362   0.778   1.992   0.094 -0.5759  0.1256 -0.0558
 2316TIP3    H128363   0.795   1.921   0.032 -0.7269  1.1710 -1.3476
 2316TIP3    H228364   0.723   1.953   0.162 -0.7142 -0.9687 -0.7740
 2317TIP3   OH228365   1.138   0.349  16.578  0.2852  0.2079 -0.0961
 2317TIP3    H128366   1.091   0.272  16.547  2.1838 -0.9224 -0.3155
 2317TIP3    H228367   1.156   0.400  16.498 -0.2349  0.4650 -0.0526
 2318TIP3   OH228368   6.784   1.932  11.467 -0.2311 -0.1375  0.3028
 2318TIP3    H128369   6.747   1.916  11.554 -0.6844 -0.4066  0.0659
 2318TIP3    H228370   6.826   2.018  11.474  1.8021 -1.1612  1.4582
 2319TIP3   OH228371   0.874   0.093   3.909 -0.7075 -0.1212  0.3627
 2319TIP3    H128372   0.929   0.022   3.941  0.8973  0.1025 -1.6324
 2319TIP3    H228373   0.935   0.165   3.891 -2.0371  1.1337  0.6207
 2320TIP3   OH228374   3.332   5.097  12.056  0.2896  0.2239 -0.1826
 2320TIP3    H128375   3.420   5.132  12.039  0.3639 -0.9701 -2.5759
 2320TIP3    H228376   3.273   5.153  12.005  0.0866 -1.1513 -1.5111
 2321TIP3   OH228377   4.979   0.370   1.325  0.4070 -0.1807  0.5025
 2321TIP3    H128378   4.981   0.404   1.236 -0.2980 -1.4954 -0.0507
 2321TIP3    H228379   4.905   0.415   1.366  0.4131  0.0472  0.2662
 2322TIP3   OH228380   3.311   4.157   5.477  0.3803 -0.2623 -0.1327
 2322TIP3    H128381   3.384   4.155   5.538  1.1778  3.9587 -0.6668
 2322TIP3    H228382   3.233   4.163   5.533  0.9154  1.0724  0.5032
 2323TIP3   OH228383   2.961   2.282   4.316  0.6748 -0.1194  0.4202
 2323TIP3    H128384   2.973   2.232   4.236 -0.6696 -1.3376  0.9229
 2323TIP3    H228385   3.017   2.239   4.381  0.0190 -0.5807  0.6901
 2324TIP3   OH228386   2.181   3.587   1.981  0.1385 -0.0350  0.0859
 2324TIP3    H128387   2.248   3.540   1.932 -0.0524 -0.8090  0.5434
 2324TIP3    H228388   2.226   3.619   2.059  0.0579 -0.2732  0.2325
 2325TIP3   OH228389   5.593   4.669  12.128 -0.0079 -0.2362 -0.3703
 2325TIP3    H128390   5.664   4.703  12.073  0.3797 -1.1332 -0.4586
 2325TIP3    H228391   5.627   4.585  12.160 -2.2356 -2.3886 -3.1388
 2326TIP3   OH228392   5.465   0.709  15.833 -0.0855  0.1622 -0.2275
 2326TIP3    H128393   5.433   0.681  15.748 -0.4603 -1.0432  0.2879
 2326TIP3    H228394   5.431   0.643  15.895  0.8074  0.5785  0.7459
 2327TIP3   OH228395   4.470   5.851  13.948 -0.2197  0.2075 -0.0411
 2327TIP3    H128396   4.399   5.892  13.899 -0.0917 -1.0740 -1.3542
 2327TIP3    H228397   4.461   5.887  14.037 -2.5240  0.0571 -0.1442
 2328TIP3   OH228398   4.359   6.787  13.814  0.3626 -0.1642 -0.1023
 2328TIP3    H128399   4.395   6.702  13.789 -0.1804 -0.5653  0.4277
 2328TIP3    H228400   4.273   6.789  13.773 -0.3724 -0.6591  1.3339
 2329TIP3   OH228401   2.140   3.685   2.760  0.5647  0.0170  0.0917
 2329TIP3    H128402   2.187   3.608   2.729  4.2673  2.0542 -0.0017
 2329TIP3    H228403   2.066   3.694   2.701  1.5021 -2.0366 -1.5028
 2330TIP3   OH228404   4.324   0.784  14.750 -0.6777  0.1747 -0.2225
 2330TIP3    H128405   4.378   0.839  14.807 -1.2715  0.5799 -0.0444
 2330TIP3    H228406   4.376   0.704  14.738 -0.2542  0.3591  0.3413
 2331TIP3   OH228407   4.940   4.381   1.103  0.0221  0.3157 -0.7704
 2331TIP3    H128408   4.850   4.413   1.106 -1.3892 -3.0486 -2.3033
 2331TIP3    H228409   4.974   4.413   1.019 -0.2662  0.3923 -0.8581
 2332TIP3   OH228410   4.078   0.113   3.657  0.1307  0.5259 -0.9363
 2332TIP3    H128411   4.004   0.052   3.657  0.7912 -0.2775 -1.2045
 2332TIP3    H228412   4.153   0.060   3.681  0.3732  1.6712  0.9835
 2333TIP3   OH228413   1.241   5.880  11.671  0.0284  0.2143 -0.0602
 2333TIP3    H128414   1.330   5.867  11.639 -0.6341 -0.7529 -1.6223
 2333TIP3    H228415   1.196   5.929  11.602 -0.6456  0.7284  0.7192
 2334TIP3   OH228416   6.818   2.761  13.163 -0.1261 -0.3972  0.4359
 2334TIP3    H128417   6.795   2.668  13.161 -0.3086 -0.3365 -0.6590
 2334TIP3    H228418   6.834   2.779  13.256 -0.2505 -1.4770  0.6854
 2335TIP3   OH228419   2.317   0.851   1.136 -0.3123  0.0296  0.9157
 2335TIP3    H128420   2.367   0.873   1.215 -0.3400  2.5861  0.3051
 2335TIP3    H228421   2.226   0.848   1.165 -0.1572 -0.9714  1.3272
 2336TIP3   OH228422   2.484   0.362   1.194 -0.7590 -0.2200  0.6379
 2336TIP3    H128423   2.454   0.361   1.103 -0.5539 -3.5835  0.4956
 2336TIP3    H228424   2.569   0.406   1.190  0.1951 -2.0770 -1.2016
 2337TIP3   OH228425   1.228   1.355   2.674  0.0263 -0.5554  0.7206
 2337TIP3    H128426   1.135   1.334   2.686 -0.4295  0.5273 -0.6199
 2337TIP3    H228427   1.237   1.444   2.708  0.3859 -0.3603  0.1202
 2338TIP3   OH228428   3.471   5.743   3.490 -0.3947 -0.3254  0.1480
 2338TIP3    H128429   3.420   5.790   3.557 -0.6895 -1.8092  1.0125
 2338TIP3    H228430   3.559   5.780   3.496 -0.4471 -0.3656  1.2941
 2339TIP3   OH228431   2.513   4.709  11.424 -0.1782 -0.4906  0.6841
 2339TIP3    H128432   2.419   4.726  11.426 -0.2525 -0.9368  2.0724
 2339TIP3    H228433   2.535   4.686  11.514  1.4762  0.7660  0.6560
 2340TIP3   OH228434   1.911   0.020  16.537 -0.8514  0.2368  0.1129
 2340TIP3    H128435   1.901   0.110  16.566 -2.2597  0.2199 -0.2089
 2340TIP3    H228436   1.942  -0.028  16.614 -1.7071  0.7105  0.7651
 2341TIP3   OH228437   4.315   2.972  16.470 -0.3077 -0.1728  0.3168
 2341TIP3    H128438   4.322   2.886  16.431  0.0578  0.1467 -0.3361
 2341TIP3    H228439   4.239   3.013  16.427 -0.5370 -0.2025  0.6895
 2342TIP3   OH228440   4.573   6.492  15.780  0.3931 -0.3582 -0.3629
 2342TIP3    H128441   4.618   6.565  15.821  0.3970  0.4516 -1.7366
 2342TIP3    H228442   4.501   6.471  15.839  0.6864  0.4253  0.2878
 2343TIP3   OH228443   3.505   4.526   5.804  0.4455 -0.1242 -0.2222
 2343TIP3    H128444   3.480   4.574   5.725 -0.4602 -0.6153 -0.2433
 2343TIP3    H228445   3.460   4.572   5.875 -0.7831 -1.1616 -0.2898
 2344TIP3   OH228446   2.509   5.904   5.546  0.4348  0.2777 -0.2788
 2344TIP3    H128447   2.432   5.954   5.519  1.5063  2.3754  0.3760
 2344TIP3    H228448   2.479   5.855   5.623 -0.2399  1.0956 -0.0071
 2345TIP3   OH228449   3.211   4.569  15.044 -0.0739  0.2605 -0.5492
 2345TIP3    H128450   3.129   4.519  15.038  0.2410 -0.3191 -0.0708
 2345TIP3    H228451   3.216   4.595  15.136  0.3687  0.1510 -0.5421
 2346TIP3   OH228452   5.332   5.805  12.615 -0.4287 -0.4611  0.2129
 2346TIP3    H128453   5.294   5.835  12.697  1.3446 -1.3235  1.4061
 2346TIP3    H228454   5.288   5.721  12.597  0.6240 -1.3059  1.4224
 2347TIP3   OH228455   1.657   3.659  13.685 -0.3049 -0.2254 -0.1095
 2347TIP3    H128456   1.661   3.587  13.748  0.4902 -0.1220 -0.0355
 2347TIP3    H228457   1.595   3.721  13.724 -0.3022 -0.4484  0.2608
 2348TIP3   OH228458   5.462   6.445  10.375  0.5246  0.3905 -0.3377
 2348TIP3    H128459   5.544   6.406  10.346 -0.4711 -0.9512 -1.4751
 2348TIP3    H228460   5.488   6.507  10.443  2.5829  0.8390 -1.4333
 2349TIP3   OH228461   4.730   2.398   0.816  0.3554  0.3466  0.4566
 2349TIP3    H128462   4.816   2.421   0.852  0.3763 -0.1238  0.7118
 2349TIP3    H228463   4.668   2.415   0.887  0.2661  0.4571  0.3527
 2350TIP3   OH228464   5.910   0.273  11.089  0.1579 -0.1972 -0.4545
 2350TIP3    H128465   5.831   0.312  11.052 -0.5337  0.3285  1.4256
 2350TIP3    H228466   5.924   0.193  11.039 -1.3868 -0.1295 -1.0464
 2351TIP3   OH228467   5.235   4.012   2.142  0.3432 -0.1545 -0.2905
 2351TIP3    H128468   5.291   3.935   2.134 -0.1489 -0.6172  0.6530
 2351TIP3    H228469   5.268   4.072   2.075  1.3137 -0.8168 -0.4234
 2352TIP3   OH228470   5.067   4.431  15.244 -0.1943 -0.3869  0.0351
 2352TIP3    H128471   5.161   4.448  15.243 -0.2540  0.4095  2.0456
 2352TIP3    H228472   5.058   4.342  15.209  1.5652 -1.3568  1.8211
 2353TIP3   OH228473   3.413   1.274  10.626 -0.3047 -0.8408  0.0834
 2353TIP3    H128474   3.496   1.289  10.671  0.3390 -2.1396 -0.5886
 2353TIP3    H228475   3.372   1.360  10.620  1.8808  0.1914 -1.2407
 2354TIP3   OH228476   1.845   0.296   2.150 -0.2498  0.2481 -0.6423
 2354TIP3    H128477   1.841   0.367   2.215  0.2077 -0.7545  0.5317
 2354TIP3    H228478   1.759   0.255   2.153  0.0848 -0.4376  0.1165
 2355TIP3   OH228479   6.391   3.853  15.187 -0.0658 -0.2381 -0.1502
 2355TIP3    H128480   6.470   3.842  15.134 -0.6250 -0.5593 -0.9368
 2355TIP3    H228481   6.390   3.777  15.244 -1.1738 -1.6533 -1.9692
 2356TIP3   OH228482   5.548   0.112   2.745  0.2112  0.4052  0.0086
 2356TIP3    H128483   5.462   0.070   2.742 -0.3441  1.5368 -1.2397
 2356TIP3    H228484   5.532   0.196   2.788  0.5093  0.9940 -1.0146
 2357TIP3   OH228485   4.043   4.137  11.955 -0.0720  0.1185  0.0190
 2357TIP3    H128486   4.123   4.134  12.008 -0.2126 -1.9280  0.1774
 2357TIP3    H228487   4.001   4.053  11.970 -1.3277  0.4255 -1.5263
 2358TIP3   OH228488   5.888   6.378   0.625  0.3807 -0.1020 -0.6070
 2358TIP3    H128489   5.842   6.302   0.661  0.8066 -1.3038 -2.4379
 2358TIP3    H228490   5.888   6.442   0.696 -1.0031 -1.3752  0.6210
 2359TIP3   OH228491   2.588   6.109   5.762  0.2965 -0.8265  0.1217
 2359TIP3    H128492   2.495   6.133   5.761  0.9513  2.2321 -2.5722
 2359TIP3    H228493   2.605   6.082   5.852 -2.3154  2.4185  1.7898
 2360TIP3   OH228494   4.714   5.186   4.004 -0.3376  0.1143  0.2381
 2360TIP3    H128495   4.669   5.250   3.949 -1.3660 -0.0073  0.9202
 2360TIP3    H228496   4.773   5.140   3.944  0.4724  1.7197 -0.2496
 2361TIP3   OH228497   3.641   1.365  13.880  0.2519 -0.7541 -0.1313
 2361TIP3    H128498   3.682   1.433  13.826  1.4285 -0.5780  0.9264
 2361TIP3    H228499   3.703   1.292  13.877 -0.6667 -1.5167 -0.6859
 2362TIP3   OH228500   6.724   0.549  11.056  0.0164  0.1073  0.5191
 2362TIP3    H128501   6.754   0.479  11.115 -1.2118 -1.4267 -0.5896
 2362TIP3    H228502   6.792   0.554  10.989  0.5885  0.6879  1.1270
 2363TIP3   OH228503   2.589   2.824   1.542 -0.5442 -0.3465  0.4381
 2363TIP3    H128504   2.534   2.835   1.620 -0.9590 -0.1859  0.1226
 2363TIP3    H228505   2.677   2.811   1.577 -0.6564  0.1762  0.9264
 2364TIP3   OH228506   2.304   6.776   2.393  0.5106  0.0139  0.1056
 2364TIP3    H128507   2.354   6.830   2.333  2.8175 -1.4612  0.5523
 2364TIP3    H228508   2.318   6.816   2.479 -2.1622  1.6820 -0.1315
 2365TIP3   OH228509   1.247   0.273   2.617 -0.1880  0.0593  0.4284
 2365TIP3    H128510   1.295   0.356   2.609  1.7755 -0.8488  1.8949
 2365TIP3    H228511   1.303   0.218   2.673 -0.5708 -2.8614 -1.8000
 2366TIP3   OH228512   6.101   2.785   6.346  0.0234  0.6322 -0.2063
 2366TIP3    H128513   6.088   2.710   6.288 -3.8282 -0.9035  2.2600
 2366TIP3    H228514   6.156   2.751   6.416 -1.9235 -0.0929  1.0381
 2367TIP3   OH228515   6.429   2.233   1.558  0.1167 -0.8614 -0.4387
 2367TIP3    H128516   6.508   2.287   1.551 -0.5155  0.2255  0.3973
 2367TIP3    H228517   6.391   2.258   1.642 -0.0245 -2.9012  0.1335
 2368TIP3   OH228518   1.264   5.358  15.446 -0.1168 -0.1730 -0.0821
 2368TIP3    H128519   1.259   5.406  15.363 -1.5995  0.8718  0.5610
 2368TIP3    H228520   1.351   5.379  15.480  0.9503 -1.4683 -1.8114
 2369TIP3   OH228521   6.311   6.626   2.359 -0.3382  0.2414 -0.1039
 2369TIP3    H128522   6.341   6.641   2.269  0.5501  3.2838  0.6002
 2369TIP3    H228523   6.286   6.713   2.391  2.7389 -0.0402  3.7791
 2370TIP3   OH228524   5.686   6.644   3.242 -0.4572 -0.4262 -0.4524
 2370TIP3    H128525   5.627   6.599   3.302 -1.4977  3.0514  1.4732
 2370TIP3    H228526   5.631   6.708   3.197  1.4293  1.8050  0.1717
 2371TIP3   OH228527   4.084   3.271  15.520 -0.2181 -0.4779  0.0947
 2371TIP3    H128528   4.091   3.339  15.454  0.3951  0.2921  0.9299
 2371TIP3    H228529   4.123   3.194  15.480  0.4873  0.0808 -0.3146
 2372TIP3   OH228530   1.548   6.701   3.190  0.0841  0.0101  0.3810
 2372TIP3    H128531   1.533   6.631   3.127 -0.9034  0.5813 -0.0437
 2372TIP3    H228532   1.466   6.706   3.240 -0.1887  1.3967 -0.1543
 2373TIP3   OH228533   3.815   0.091  12.725  0.1077 -0.0242 -0.0347
 2373TIP3    H128534   3.861   0.029  12.669 -0.2556 -1.5699  1.2957
 2373TIP3    H228535   3.722   0.075  12.708  0.0094  0.4640  0.0174
 2374TIP3   OH228536   2.940   3.080   1.135  0.3392 -0.0959 -0.1803
 2374TIP3    H128537   2.912   2.990   1.153  1.6294 -0.7868 -1.3775
 2374TIP3    H228538   2.869   3.117   1.083  0.3279 -0.8479 -0.7222
 2375TIP3   OH228539   1.200   1.973   4.998  0.1095 -0.4762 -0.8234
 2375TIP3    H128540   1.143   2.037   4.955 -3.0780 -2.4007  0.1490
 2375TIP3    H228541   1.203   2.001   5.089 -1.1536 -1.5047 -0.4307
 2376TIP3   OH228542   2.454   5.275  13.746 -0.1381  0.8460 -0.1357
 2376TIP3    H128543   2.377   5.222  13.725  0.5593 -0.5386  0.7175
 2376TIP3    H228544   2.482   5.310  13.661 -0.4114 -0.4562 -0.7939
 2377TIP3   OH228545   5.648   4.592  13.975 -0.1148  0.0439  0.0177
 2377TIP3    H128546   5.652   4.669  14.032 -0.0393 -0.7447  1.1178
 2377TIP3    H228547   5.590   4.532  14.022  0.4623 -0.8707 -0.4339
 2378TIP3   OH228548   2.069   0.813   2.065 -0.5692  0.1848 -0.0580
 2378TIP3    H128549   2.098   0.808   1.974 -1.1286 -0.5857 -0.2043
 2378TIP3    H228550   2.017   0.734   2.078  0.5895 -0.4034  1.3231
 2379TIP3   OH228551   4.305   2.872  12.090 -0.6110 -0.4006  0.2677
 2379TIP3    H128552   4.334   2.782  12.105  0.5262 -0.3306 -1.2682
 2379TIP3    H228553   4.382   2.917  12.056 -1.3781  0.9664  0.2468
 2380TIP3   OH228554   3.326   0.157   4.082  0.5013 -0.2509  0.5198
 2380TIP3    H128555   3.397   0.166   4.146 -0.9180 -0.2321  2.1690
 2380TIP3    H228556   3.282   0.076   4.108 -0.0446 -0.2984 -0.5308
 2381TIP3   OH228557   1.172   4.415  12.297 -1.2125 -0.4477  0.3430
 2381TIP3    H128558   1.147   4.452  12.381 -0.5638 -3.4467  2.0269
 2381TIP3    H228559   1.106   4.347  12.280 -1.1058 -0.1598 -1.3820
 2382TIP3   OH228560   2.656   4.293  13.437 -0.2258 -0.6161  0.3815
 2382TIP3    H128561   2.656   4.231  13.510 -0.8475 -1.9145 -0.6893
 2382TIP3    H228562   2.572   4.279  13.393  0.6716 -0.7836 -1.3506
 2383TIP3   OH228563   1.840   2.761   1.252  0.0895  0.1837  0.1686
 2383TIP3    H128564   1.935   2.772   1.244  0.0340  0.5057 -0.0811
 2383TIP3    H228565   1.829   2.683   1.307  0.4981  0.0366  0.0454
 2384TIP3   OH228566   6.689   5.045  14.522  0.3251 -0.7368  0.0365
 2384TIP3    H128567   6.599   5.013  14.522 -0.8517  2.2383  0.0137
 2384TIP3    H228568   6.703   5.077  14.433  0.7660  0.3543  0.4729
 2385TIP3   OH228569   2.976   0.514  13.183  0.1687 -0.5435 -0.1090
 2385TIP3    H128570   3.062   0.554  13.197 -1.4250  2.8645  1.1406
 2385TIP3    H228571   2.962   0.461  13.262  0.0488  1.1818  1.0868
 2386TIP3   OH228572   2.339   1.497  14.973 -0.7797  0.2786  0.8912
 2386TIP3    H128573   2.277   1.537  15.033 -0.1093  1.7124  0.6884
 2386TIP3    H228574   2.403   1.453  15.029 -1.4934 -0.4804  1.1239
 2387TIP3   OH228575   3.311   0.332   0.255 -0.4406  0.1636  0.3159
 2387TIP3    H128576   3.265   0.408   0.220  0.9089  0.9311  0.1263
 2387TIP3    H228577   3.248   0.261   0.252 -0.7068  0.4378 -2.7300
 2388TIP3   OH228578   4.197   5.203  13.092  0.1334 -0.5392  0.3714
 2388TIP3    H128579   4.272   5.168  13.141 -1.2605 -2.6308  1.1562
 2388TIP3    H228580   4.167   5.277  13.144  2.6671  1.5200 -0.8902
 2389TIP3   OH228581   5.317   4.020  12.531 -0.1204  0.5490 -0.7196
 2389TIP3    H128582   5.348   4.070  12.606  1.5984  0.2554 -1.1953
 2389TIP3    H228583   5.259   3.953  12.568 -0.8294  1.6005  0.1154
 2390TIP3   OH228584   2.803   5.442   0.174 -0.5921 -0.0464 -0.4426
 2390TIP3    H128585   2.764   5.483   0.096 -1.1255 -1.4565 -0.9535
 2390TIP3    H228586   2.781   5.502   0.246 -2.7044 -0.1762 -0.9053
 2391TIP3   OH228587   2.169   1.731   1.971  0.9027  0.7430  0.0804
 2391TIP3    H128588   2.260   1.749   1.996  1.5953 -0.1740 -1.6129
 2391TIP3    H228589   2.152   1.643   2.003  1.8242 -0.4738 -2.5073
 2392TIP3   OH228590   6.376   1.482   3.975 -0.0494 -0.0019  0.0421
 2392TIP3    H128591   6.393   1.550   3.910 -0.5791  1.0100  0.9325
 2392TIP3    H228592   6.408   1.519   4.057 -1.0066 -0.5327  0.6712
 2393TIP3   OH228593   3.406   5.648  13.519  0.1254 -0.2982 -0.2935
 2393TIP3    H128594   3.482   5.596  13.546 -1.4462 -2.8597 -0.5392
 2393TIP3    H228595   3.373   5.686  13.601  0.1731 -1.2693  0.1891
 2394TIP3   OH228596   0.651   0.021   5.492 -0.2460  0.1219  0.2712
 2394TIP3    H128597   0.623   0.003   5.581  1.5284 -1.4293  0.5770
 2394TIP3    H228598   0.744   0.043   5.499 -0.0554 -0.0818 -1.1876
 2395TIP3   OH228599   2.588   3.011  12.888  0.5004 -0.0209 -0.0282
 2395TIP3    H128600   2.623   3.098  12.871 -0.0112 -0.1551 -2.0311
 2395TIP3    H228601   2.493   3.023  12.892  0.4901 -0.3277  0.8064
 2396TIP3   OH228602   5.209   1.972  14.816  0.0068 -0.4471 -0.1235
 2396TIP3    H128603   5.173   1.913  14.749  0.4479 -1.4741  0.5101
 2396TIP3    H228604   5.173   2.058  14.795 -0.1963 -0.8285 -1.4312
 2397TIP3   OH228605   1.665   1.005  10.681 -0.6321  0.0981 -0.3690
 2397TIP3    H128606   1.703   1.068  10.619  1.0973 -0.8045 -0.2934
 2397TIP3    H228607   1.645   1.057  10.759  0.4389  0.6317 -0.4331
 2398TIP3   OH228608   5.386   2.587  14.239 -0.3115  0.4511  0.0302
 2398TIP3    H128609   5.396   2.662  14.181  1.1974  1.1601  1.1243
 2398TIP3    H228610   5.293   2.584  14.261 -0.4889  1.6287 -0.5194
 2399TIP3   OH228611   5.038   6.286   1.779 -0.2537  0.0039  0.0652
 2399TIP3    H128612   4.993   6.335   1.711  1.3480  0.1178 -0.9664
 2399TIP3    H228613   5.041   6.345   1.854 -0.5980  0.5048 -0.3114
 2400TIP3   OH228614   2.099   1.993   2.026  0.3721  0.3576 -0.1302
 2400TIP3    H128615   2.084   1.901   2.006 -1.2104  0.4199  0.5889
 2400TIP3    H228616   2.167   1.993   2.093  0.0788 -0.3325  0.1747
 2401TIP3   OH228617   4.022   2.851  11.992  0.1221 -0.2217  0.3124
 2401TIP3    H128618   4.114   2.868  12.015 -0.2952  1.1874  1.0644
 2401TIP3    H228619   3.986   2.808  12.070 -0.3870  1.2860  0.9606
 2402TIP3   OH228620   4.133   1.702   4.620 -0.0727 -0.4816 -0.4027
 2402TIP3    H128621   4.137   1.722   4.713  0.7479  1.4039 -0.7836
 2402TIP3    H228622   4.069   1.764   4.584  1.0874  0.2161 -1.3657
 2403TIP3   OH228623   2.367   1.681  15.215 -0.4756  0.1181 -0.1035
 2403TIP3    H128624   2.352   1.593  15.249 -0.4267  0.2344  0.2247
 2403TIP3    H228625   2.444   1.712  15.263 -0.2983  0.2187 -0.4499
 2404TIP3   OH228626   0.900   0.216   5.325 -0.1002 -0.5123  0.4929
 2404TIP3    H128627   0.906   0.144   5.388 -0.4998 -0.8986  0.0887
 2404TIP3    H228628   0.991   0.237   5.304 -0.0008 -1.7000 -0.3041
 2405TIP3   OH228629   4.089   6.065  15.828 -0.4096 -0.4998  0.3339
 2405TIP3    H128630   4.043   5.987  15.797 -0.5266  0.0753 -1.0646
 2405TIP3    H228631   4.033   6.138  15.801  1.0280  0.2009 -0.9798
 2406TIP3   OH228632   0.544   6.689  15.638  0.4379 -0.1506 -0.2029
 2406TIP3    H128633   0.489   6.634  15.582  0.1545  0.8588 -0.9360
 2406TIP3    H228634   0.488   6.708  15.714  0.9185 -1.7448  0.5988
 2407TIP3   OH228635   2.878   1.172   2.203 -0.4080 -0.2792 -0.3317
 2407TIP3    H128636   2.966   1.172   2.241  0.4749  1.9320 -2.1495
 2407TIP3    H228637   2.826   1.223   2.265 -0.2138 -0.8598  0.3243
 2408TIP3   OH228638   6.767   3.235   3.032 -0.0532  0.2288 -0.3296
 2408TIP3    H128639   6.796   3.250   2.942 -1.5417  1.3169 -0.6526
 2408TIP3    H228640   6.798   3.311   3.081  1.6505 -0.8356  0.3517
 2409TIP3   OH228641   5.748   4.644  16.456  0.3930  0.3824  0.1577
 2409TIP3    H128642   5.785   4.557  16.466 -0.1564  0.0444 -0.6738
 2409TIP3    H228643   5.784   4.694  16.529  1.8777 -0.1360 -0.1925
 2410TIP3   OH228644   2.449   0.021  14.467 -0.1810 -0.1889  0.0846
 2410TIP3    H128645   2.518   0.055  14.524  0.2639 -0.7964 -0.0731
 2410TIP3    H228646   2.482   0.036  14.378 -0.2679 -0.4531  0.0074
 2411TIP3   OH228647   3.893   0.567  16.058  0.0151  0.5264  0.1230
 2411TIP3    H128648   3.941   0.501  16.108 -0.8683  0.6756  1.1981
 2411TIP3    H228649   3.961   0.617  16.012  0.7227 -0.9988 -0.5890
 2412TIP3   OH228650   4.121   2.107   4.067  0.0549  0.0492  0.2713
 2412TIP3    H128651   4.193   2.167   4.050 -0.2780  0.5060  0.4265
 2412TIP3    H228652   4.102   2.067   3.983  0.5862 -0.1824  0.2611
 2413TIP3   OH228653   2.547   6.678   0.708 -0.4088 -0.0898 -0.0612
 2413TIP3    H128654   2.568   6.633   0.790  0.0876  0.5656  0.1756
 2413TIP3    H228655   2.624   6.665   0.653  0.4092  1.7640  0.5756
 2414TIP3   OH228656   0.540   4.096  16.498 -0.4993  0.6674  0.2810
 2414TIP3    H128657   0.488   4.062  16.426  0.5712  0.4459 -0.4207
 2414TIP3    H228658   0.622   4.124  16.457  0.0219  0.8148  1.3740
 2415TIP3   OH228659   6.640   4.687   5.483 -0.8263 -0.1335 -0.1113
 2415TIP3    H128660   6.566   4.636   5.448 -1.2309 -0.5404  1.2810
 2415TIP3    H228661   6.629   4.684   5.578  0.0786  1.1800  0.0696
 2416TIP3   OH228662   4.387   0.350  13.236  0.2422 -0.4611  0.0377
 2416TIP3    H128663   4.334   0.304  13.300  1.5762 -0.0471  1.5028
 2416TIP3    H228664   4.448   0.284  13.203  1.4046 -0.0616  1.3032
 2417TIP3   OH228665   5.693   0.735  16.386  0.0682  0.2504 -0.2284
 2417TIP3    H128666   5.762   0.799  16.401  0.3402 -0.5507  2.5428
 2417TIP3    H228667   5.616   0.786  16.363  1.2385  1.2358 -2.1616
 2418TIP3   OH228668   3.672   1.036   3.122  0.3639 -0.1174 -0.6619
 2418TIP3    H128669   3.622   1.100   3.072 -0.6150 -0.6276 -0.3669
 2418TIP3    H228670   3.725   1.088   3.183 -0.9048  0.4165  0.0228
 2419TIP3   OH228671   4.976   6.264  16.343 -0.5308  0.0668  0.1774
 2419TIP3    H128672   5.041   6.335  16.339  0.6143 -0.9710 -0.0997
 2419TIP3    H228673   4.972   6.240  16.435  0.2834 -0.5760  0.0559
 2420TIP3   OH228674   2.314   6.681   4.987 -0.1456  0.4200 -0.1655
 2420TIP3    H128675   2.219   6.676   4.973 -0.2179 -1.0185  0.7182
 2420TIP3    H228676   2.351   6.627   4.917  0.1070  1.6662 -1.0375
 2421TIP3   OH228677   2.480   2.109   3.725 -0.9526  0.1732 -0.4985
 2421TIP3    H128678   2.386   2.118   3.743 -1.1100 -0.1139 -1.1447
 2421TIP3    H228679   2.484   2.089   3.631 -0.2479  0.1091 -0.4549
 2422TIP3   OH228680   2.936   4.554  11.879 -0.2364  0.1601  0.4333
 2422TIP3    H128681   2.927   4.614  11.805  3.3231  2.8871  1.9551
 2422TIP3    H228682   2.859   4.571  11.933 -1.3176  0.3322 -1.0810
 2423TIP3   OH228683   3.390   5.883   3.128  0.5114 -0.2783  0.0635
 2423TIP3    H128684   3.355   5.964   3.090 -1.0146 -0.9781 -0.1099
 2423TIP3    H228685   3.341   5.872   3.209  0.5874 -1.1084  0.0016
 2424TIP3   OH228686   1.073   2.925   0.737  0.4103  0.4289 -0.1671
 2424TIP3    H128687   1.105   2.879   0.815 -0.2569 -0.7359 -0.5477
 2424TIP3    H228688   0.997   2.975   0.769  0.3381  0.2137  0.0040
 2425TIP3   OH228689   1.340   6.448  13.040 -0.1439  0.0913 -0.6103
 2425TIP3    H128690   1.253   6.409  13.046 -0.9185  1.9483  1.6972
 2425TIP3    H228691   1.329   6.527  12.988 -0.1214  0.9052  0.5759
 2426TIP3   OH228692   4.185   5.292   0.983 -0.6413  0.0269  0.8636
 2426TIP3    H128693   4.150   5.239   1.055  0.1537  0.2893  1.4429
 2426TIP3    H228694   4.274   5.259   0.970  0.5475  2.3881  2.4352
 2427TIP3   OH228695   1.663   0.454  15.846  0.1136  0.2533 -0.5932
 2427TIP3    H128696   1.659   0.366  15.809 -1.6396 -0.3123  0.7375
 2427TIP3    H228697   1.588   0.499  15.808  1.2817  1.3766 -1.6451
 2428TIP3   OH228698   2.708   1.560  10.883 -0.0746 -0.2697 -0.1844
 2428TIP3    H128699   2.784   1.511  10.853 -0.2714  0.1583 -1.4272
 2428TIP3    H228700   2.645   1.493  10.908 -0.1019 -0.6636 -1.2566
 2429TIP3   OH228701   6.458   4.404   5.544 -0.3144  0.5416 -0.5388
 2429TIP3    H128702   6.406   4.480   5.519 -0.6420  0.4787 -0.0597
 2429TIP3    H228703   6.431   4.335   5.484 -1.7704  0.1271  0.5248
 2430TIP3   OH228704   4.676   4.674  11.526  0.6418  0.0633 -0.2867
 2430TIP3    H128705   4.698   4.717  11.444  3.3454 -1.0837 -0.2740
 2430TIP3    H228706   4.730   4.595  11.527 -2.4310 -2.2107  0.7027
 2431TIP3   OH228707   0.122   3.707   5.285 -0.5879 -0.6568 -0.4551
 2431TIP3    H128708   0.073   3.626   5.275 -1.8917 -0.0951  1.0169
 2431TIP3    H228709   0.098   3.740   5.372  0.0232  1.2280 -0.9408
 2432TIP3   OH228710   1.209   0.511  15.402 -0.0343  0.5138  0.5291
 2432TIP3    H128711   1.114   0.522  15.402 -0.1107 -0.0723  0.4281
 2432TIP3    H228712   1.244   0.598  15.384 -0.5330  0.8687  1.2052
 2433TIP3   OH228713   5.202   3.099   3.092  0.2895 -0.6229  0.5749
 2433TIP3    H128714   5.270   3.041   3.126  1.6697  0.2622 -0.5476
 2433TIP3    H228715   5.194   3.167   3.159  2.4766  0.7106 -0.3725
 2434TIP3   OH228716   6.827   6.826   1.479 -0.0167  1.0005  0.1572
 2434TIP3    H128717   6.856   6.742   1.444 -0.2264  0.1892  1.8545
 2434TIP3    H228718   6.904   6.883   1.471  0.2212  0.5837 -0.7109
 2435TIP3   OH228719   2.711   2.715  16.448  0.2776  0.6854 -0.1844
 2435TIP3    H128720   2.685   2.632  16.408 -0.2111  0.2533  1.0034
 2435TIP3    H228721   2.789   2.742  16.399  1.7124 -1.5270  0.7499
 2436TIP3   OH228722   3.838   2.656  16.695  0.8015 -0.3465  0.1773
 2436TIP3    H128723   3.782   2.639  16.771 -1.6379  2.1614 -0.8848
 2436TIP3    H228724   3.812   2.591  16.631  0.7407 -0.6189  0.4740
 2437TIP3   OH228725   2.527   5.935  16.132 -0.1548  0.1295  0.8474
 2437TIP3    H128726   2.438   5.920  16.103 -0.4571  1.2471  1.1362
 2437TIP3    H228727   2.568   5.986  16.062  0.4689 -0.9184  0.4221
 2438TIP3   OH228728   0.032   1.385   0.205  0.1725  0.2211  0.2874
 2438TIP3    H128729   0.052   1.301   0.165  0.2945  0.0963  0.6068
 2438TIP3    H228730   0.025   1.366   0.298 -0.2444  0.4838  0.3112
 2439TIP3   OH228731   3.686   2.835  11.284  0.5554  0.3340 -0.2346
 2439TIP3    H128732   3.730   2.916  11.309  0.5019  0.3365 -0.1482
 2439TIP3    H228733   3.716   2.818  11.194 -0.5953  1.2636 -0.8210
 2440TIP3   OH228734   1.705   2.506  15.808  0.4900 -0.0684  0.0580
 2440TIP3    H128735   1.751   2.499  15.725 -0.3235 -1.0314 -0.3278
 2440TIP3    H228736   1.624   2.552  15.787 -0.6087 -1.9549 -0.0950
 2441TIP3   OH228737   2.033   3.773   0.489 -0.2785  0.1044 -0.1410
 2441TIP3    H128738   2.066   3.683   0.487 -0.1618  0.1556 -1.4600
 2441TIP3    H228739   2.076   3.813   0.564  1.6532 -0.2266 -1.0061
 2442TIP3   OH228740   3.334   6.228   3.732 -0.1103 -0.2998  0.3922
 2442TIP3    H128741   3.331   6.159   3.665  0.4013 -1.4231  1.4877
 2442TIP3    H228742   3.394   6.194   3.798 -1.5856  0.1950  2.0532
 2443TIP3   OH228743   6.433   0.526  12.179  0.2963 -0.2791  0.6928
 2443TIP3    H128744   6.392   0.565  12.102 -1.3865 -1.3623  0.9785
 2443TIP3    H228745   6.512   0.484  12.145  1.3174  1.9482  0.1386
 2444TIP3   OH228746   4.919   0.652  10.929  0.1057 -0.2046  0.0223
 2444TIP3    H128747   4.882   0.617  10.848 -0.0148  0.9721 -0.4645
 2444TIP3    H228748   5.009   0.621  10.930  1.2003  2.3868 -2.3409
 2445TIP3   OH228749   1.537   0.852   4.047  0.2540 -0.0231  0.2179
 2445TIP3    H128750   1.547   0.945   4.029 -0.1425 -0.5369 -3.4272
 2445TIP3    H228751   1.458   0.846   4.101 -2.2264  1.6006 -2.9251
 2446TIP3   OH228752   3.782   5.639  10.025 -0.3527  0.2600 -0.4913
 2446TIP3    H128753   3.840   5.651  10.101 -1.1346  0.0964  0.1408
 2446TIP3    H228754   3.742   5.725  10.011 -1.1595 -0.0071  0.0824
 2447TIP3   OH228755   2.420   3.436   1.612 -0.2005 -0.0733 -0.0807
 2447TIP3    H128756   2.485   3.367   1.628  0.4729  0.1307 -1.7842
 2447TIP3    H228757   2.472   3.516   1.604 -0.8287  0.3753  0.1914
 2448TIP3   OH228758   4.689   6.279   3.576  0.0201 -0.3102 -0.5955
 2448TIP3    H128759   4.754   6.227   3.529  0.2686 -1.5306  0.9972
 2448TIP3    H228760   4.733   6.361   3.597  0.6097 -0.6032 -0.6740
 2449TIP3   OH228761   5.589   1.745   1.058  0.0030  0.1110  0.2870
 2449TIP3    H128762   5.633   1.696   0.987 -1.8476 -0.1736 -0.7317
 2449TIP3    H228763   5.657   1.802   1.094  2.0532 -2.5512  0.9506
 2450TIP3   OH228764   2.354   6.047   4.235 -0.1157 -0.1033  0.2356
 2450TIP3    H128765   2.271   6.064   4.281 -0.2216  0.7382 -0.2412
 2450TIP3    H228766   2.412   6.011   4.303 -1.3182 -2.1748  0.2545
 2451TIP3   OH228767   1.689   2.609  12.333  0.2260  0.0986 -0.1341
 2451TIP3    H128768   1.631   2.684  12.317  1.3036  1.4596  1.9748
 2451TIP3    H228769   1.647   2.561  12.404  0.6593 -0.0393  0.0313
 2452TIP3   OH228770   0.702   2.381   2.542  0.6614  0.2624  0.1672
 2452TIP3    H128771   0.634   2.319   2.518 -0.3847  0.7075  1.8695
 2452TIP3    H228772   0.783   2.331   2.536  0.1147 -0.5383 -0.9454
 2453TIP3   OH228773   2.233   0.977   2.658  0.3361  0.6804  0.4973
 2453TIP3    H128774   2.222   0.896   2.709 -0.4583 -1.8526 -3.3267
 2453TIP3    H228775   2.156   0.980   2.601  1.1039  3.3748 -0.5443
 2454TIP3   OH228776   6.061   5.326  10.336  0.0929 -0.2380  0.0223
 2454TIP3    H128777   5.983   5.316  10.281 -1.5015  0.2350  2.0525
 2454TIP3    H228778   6.128   5.362  10.277 -1.8378  1.2998 -1.3756
 2455TIP3   OH228779   6.153   3.625  14.773 -0.2400 -0.6624 -0.1528
 2455TIP3    H128780   6.236   3.626  14.820 -0.0463  1.0383 -0.4579
 2455TIP3    H228781   6.128   3.717  14.768 -2.2482 -1.1501  0.1067
 2456TIP3   OH228782   5.850   1.346   0.786 -0.5324 -0.1568 -0.2794
 2456TIP3    H128783   5.814   1.271   0.739 -2.1604  0.1239  0.4612
 2456TIP3    H228784   5.795   1.420   0.758 -0.3890  0.3396  0.7180
 2457TIP3   OH228785   0.751   2.131  14.663 -0.4671  0.0166 -0.5364
 2457TIP3    H128786   0.796   2.048  14.677  1.1589  1.0462  0.6967
 2457TIP3    H228787   0.660   2.107  14.650  0.1719 -2.0379 -1.5141
 2458TIP3   OH228788   2.567   2.021  11.557 -0.2866 -0.4377 -0.1702
 2458TIP3    H128789   2.508   2.093  11.534 -0.3061 -0.6253 -0.7309
 2458TIP3    H228790   2.517   1.942  11.536  0.1171 -0.6016 -0.5395
 2459TIP3   OH228791   2.337   1.416   2.441  0.5737 -0.1394 -0.6505
 2459TIP3    H128792   2.375   1.347   2.494  2.8588 -0.1865 -2.2134
 2459TIP3    H228793   2.246   1.390   2.428  0.1817 -0.5695  2.3723
 2460TIP3   OH228794   1.114   5.243  16.807  0.2345 -0.5833  0.4286
 2460TIP3    H128795   1.169   5.314  16.773 -0.1072 -0.4305  0.1908
 2460TIP3    H228796   1.025   5.278  16.803 -0.0071 -1.2389 -0.2454
 2461TIP3   OH228797   4.516   3.690   5.345 -0.1161  0.2588 -0.4519
 2461TIP3    H128798   4.521   3.755   5.416 -0.3661  0.4744 -0.6340
 2461TIP3    H228799   4.431   3.704   5.305 -0.5475 -0.7712  0.0710
 2462TIP3   OH228800   4.788   5.968  14.282  0.1713  1.0710  0.2359
 2462TIP3    H128801   4.877   5.949  14.311 -0.3887 -1.3027  0.5919
 2462TIP3    H228802   4.734   5.952  14.359 -0.6712  1.4292 -0.2689
 2463TIP3   OH228803   5.759   2.734  10.051 -0.4545 -0.4328  0.1610
 2463TIP3    H128804   5.679   2.770  10.089 -0.8280 -1.3964  0.3015
 2463TIP3    H228805   5.743   2.640  10.044  0.0423 -0.4311 -1.3171
 2464TIP3   OH228806   3.794   0.466  16.733 -0.3766  0.7636 -0.8276
 2464TIP3    H128807   3.706   0.430  16.745  0.2073 -0.3811  0.1452
 2464TIP3    H228808   3.802   0.476  16.638 -0.9383 -0.7702 -1.0722
 2465TIP3   OH228809   0.888   5.856  16.408 -0.8345  0.6152 -0.3597
 2465TIP3    H128810   0.805   5.808  16.416 -0.5263 -0.0103 -0.8562
 2465TIP3    H228811   0.865   5.934  16.358 -0.9797  0.0385 -1.2270
 2466TIP3   OH228812   2.180   2.435   5.065  1.4381 -0.5897  0.2512
 2466TIP3    H128813   2.133   2.489   5.001  3.1667  0.6409 -0.0434
 2466TIP3    H228814   2.154   2.345   5.045 -0.1538 -0.0211 -0.3837
 2467TIP3   OH228815   1.265   5.373   0.990 -0.2471  0.4390 -0.5055
 2467TIP3    H128816   1.178   5.411   0.999 -1.0490 -1.5731  1.0379
 2467TIP3    H228817   1.250   5.289   0.946  0.9995  0.3289 -0.7605
 2468TIP3   OH228818   4.304   4.024   5.553  0.4949  0.0219  0.0343
 2468TIP3    H128819   4.314   4.117   5.573  0.0335  0.1597 -0.3680
 2468TIP3    H228820   4.261   3.987   5.630  3.1726 -0.4141  1.4356
 2469TIP3   OH228821   2.046   0.581   4.248 -0.0732  0.3888  0.3434
 2469TIP3    H128822   1.968   0.620   4.208  0.5887  0.0921 -1.3155
 2469TIP3    H228823   2.013   0.505   4.295 -0.8459  0.5365  0.0634
 2470TIP3   OH228824   1.565   2.026  14.243  0.4679  0.2819 -0.2816
 2470TIP3    H128825   1.497   2.070  14.294  1.4200  0.9091  0.4811
 2470TIP3    H228826   1.546   1.932  14.255 -0.6502  0.4429 -0.6449
 2471TIP3   OH228827   3.474   6.790   1.264 -0.2341 -0.1125 -0.4313
 2471TIP3    H128828   3.426   6.872   1.253 -1.4756 -0.9036 -1.3232
 2471TIP3    H228829   3.560   6.816   1.294 -1.0737  1.4196  0.8074
 2472TIP3   OH228830   4.480   3.967   2.851 -0.3476 -0.3556 -0.2460
 2472TIP3    H128831   4.517   4.049   2.819  0.8640 -1.1979 -1.0692
 2472TIP3    H228832   4.474   3.912   2.773  0.1778 -1.5405  0.5405
 2473TIP3   OH228833   2.382   2.849   5.368  0.5131 -0.0099  0.0304
 2473TIP3    H128834   2.390   2.755   5.350  1.4012  0.4598 -2.3688
 2473TIP3    H228835   2.470   2.884   5.354  0.3521  1.1325  1.5409
 2474TIP3   OH228836   6.278   4.246  14.204 -0.4394  0.1947 -0.3905
 2474TIP3    H128837   6.315   4.197  14.130  3.2541  0.6338  0.9313
 2474TIP3    H228838   6.259   4.179  14.270  1.2248  0.1309  0.0881
 2475TIP3   OH228839   6.275   4.228   1.664 -0.4623  0.1134  0.6027
 2475TIP3    H128840   6.286   4.267   1.751  0.4592  2.6117 -0.5442
 2475TIP3    H228841   6.200   4.274   1.627 -0.0637 -0.0182 -0.3839
 2476TIP3   OH228842   1.630   2.343  11.390  0.7986  0.0906  0.2705
 2476TIP3    H128843   1.651   2.310  11.477 -2.6962 -0.8800  0.9026
 2476TIP3    H228844   1.643   2.438  11.395  2.9936 -0.1812  0.9853
 2477TIP3   OH228845   1.054   4.062  13.033 -0.0056 -0.7738  0.5003
 2477TIP3    H128846   0.986   4.008  12.993  0.4081 -1.1510  0.2963
 2477TIP3    H228847   1.134   4.041  12.984  0.4010 -0.8475  1.1807
 2478TIP3   OH228848   3.107   4.857   2.097 -0.5147  0.3829  0.0161
 2478TIP3    H128849   3.019   4.821   2.109  0.5909 -2.0920  1.6017
 2478TIP3    H228850   3.142   4.810   2.022 -0.7591  1.9555 -1.1330
 2479TIP3   OH228851   6.836   6.239  12.778 -0.2751 -0.3278 -0.2203
 2479TIP3    H128852   6.740   6.243  12.772 -0.3480  0.9160  1.1340
 2479TIP3    H228853   6.854   6.223  12.870  0.8333  0.1351 -0.3373
 2480TIP3   OH228854   2.240   5.901  14.387  0.1834 -0.0433  0.2132
 2480TIP3    H128855   2.220   5.831  14.449  1.8036 -1.4700 -0.7905
 2480TIP3    H228856   2.315   5.869  14.337  3.4249  3.8116  2.0276
 2481TIP3   OH228857   5.898   2.394   2.558 -0.3291  0.2628 -0.0364
 2481TIP3    H128858   5.907   2.484   2.589  0.3505 -0.1079  0.9005
 2481TIP3    H228859   5.874   2.344   2.636 -2.1173 -0.1699 -0.8082
 2482TIP3   OH228860   1.884   5.688   2.818 -0.5585 -0.6935  0.4779
 2482TIP3    H128861   1.812   5.629   2.793  0.2841 -2.3770  1.8183
 2482TIP3    H228862   1.842   5.757   2.869 -1.3090 -1.2854  0.6835
 2483TIP3   OH228863   3.029   4.968   4.093 -0.5570  0.1644 -0.1416
 2483TIP3    H128864   3.040   4.897   4.157 -1.3307  0.2464  0.0912
 2483TIP3    H228865   2.936   4.966   4.071 -0.9725  2.2292  1.1849
 2484TIP3   OH228866   5.422   2.828   4.636  0.0274 -0.2706 -0.6014
 2484TIP3    H128867   5.435   2.831   4.731  1.7280  0.0699 -0.8041
 2484TIP3    H228868   5.349   2.767   4.623 -1.2976  0.9057  0.9941
 2485TIP3   OH228869   2.663   1.564   0.365 -0.1969  0.1166  0.5047
 2485TIP3    H128870   2.679   1.470   0.359 -1.6816 -0.0787 -1.4431
 2485TIP3    H228871   2.580   1.571   0.414  0.5384  0.5142  1.7341
 2486TIP3   OH228872   2.662   3.550   1.819  0.0375  0.2263 -0.6228
 2486TIP3    H128873   2.717   3.579   1.892  0.9035 -2.6894 -0.0088
 2486TIP3    H228874   2.716   3.566   1.741  0.4788  0.2829 -0.3130
 2487TIP3   OH228875   6.349   2.492   0.702  0.0624  0.1061  0.4457
 2487TIP3    H128876   6.428   2.509   0.754  0.4100  1.1507 -0.4141
 2487TIP3    H228877   6.281   2.545   0.743  0.0462 -0.0142  0.5746
 2488TIP3   OH228878   6.779   3.224   4.824  0.7615  0.0478  0.4074
 2488TIP3    H128879   6.733   3.207   4.906 -1.2762 -1.2689 -0.9078
 2488TIP3    H228880   6.777   3.319   4.814 -1.9851  0.0729  0.3454
 2489TIP3   OH228881   2.117   5.213   3.024  0.6231 -0.0179 -0.2216
 2489TIP3    H128882   2.173   5.289   3.006  2.3782  0.4063  5.2441
 2489TIP3    H228883   2.172   5.137   3.005  1.7724  0.3503  1.3700
 2490TIP3   OH228884   0.790   2.610  11.613  0.4348  0.6204  0.3090
 2490TIP3    H128885   0.855   2.546  11.644  2.3234  1.0296 -2.4829
 2490TIP3    H228886   0.711   2.558  11.597  1.3904 -0.7162 -0.2511
 2491TIP3   OH228887   1.908   5.678   1.800 -0.7495  0.3338  0.2811
 2491TIP3    H128888   2.003   5.669   1.811 -0.8211  0.7498  1.4138
 2491TIP3    H228889   1.896   5.701   1.708  0.1155 -1.3767 -0.2971
 2492TIP3   OH228890   1.098   6.319   2.554 -0.2829 -0.2281 -0.4632
 2492TIP3    H128891   1.108   6.407   2.519 -0.4804  0.3515  0.8841
 2492TIP3    H228892   1.173   6.270   2.518  2.3492  1.5887  2.0477
 2493TIP3   OH228893   3.543   0.154   5.624  0.1526 -0.0299 -0.0208
 2493TIP3    H128894   3.498   0.114   5.699 -1.1085  0.5601 -0.4270
 2493TIP3    H228895   3.624   0.188   5.661  1.2260 -2.7851  0.3716
 2494TIP3   OH228896   0.387   3.879   2.406 -0.3396 -0.1331  0.0487
 2494TIP3    H128897   0.394   3.834   2.490  1.5444  0.8473  0.4707
 2494TIP3    H228898   0.442   3.957   2.416 -0.7229  0.4223 -1.8214
 2495TIP3   OH228899   2.050   4.539  15.211 -0.1881  0.0505  0.3336
 2495TIP3    H128900   2.007   4.607  15.158 -1.1745  0.0672  1.1223
 2495TIP3    H228901   1.992   4.528  15.287 -0.6620 -2.4819 -0.3098
 2496TIP3   OH228902   5.563   5.884   3.174 -0.6403  0.3257 -0.1063
 2496TIP3    H128903   5.510   5.846   3.244 -0.4842 -0.5814 -0.4601
 2496TIP3    H228904   5.652   5.884   3.209 -0.8762  2.2175  0.6424
 2497TIP3   OH228905   1.989   0.004   4.945  0.6717 -0.7070 -0.4448
 2497TIP3    H128906   1.969   0.076   5.005 -0.5557  0.8132 -2.5350
 2497TIP3    H228907   1.944  -0.071   4.983 -0.1011  0.2139  0.5483
 2498TIP3   OH228908   5.331   0.190  11.249  0.4284  0.1289 -0.4993
 2498TIP3    H128909   5.370   0.274  11.225  0.9135 -0.3872 -1.6105
 2498TIP3    H228910   5.288   0.161  11.169  0.9279 -1.0354 -0.3614
 2499TIP3   OH228911   3.587   2.709   4.636 -0.0336 -0.2608 -0.3124
 2499TIP3    H128912   3.634   2.652   4.575 -0.8636 -1.7667  0.4125
 2499TIP3    H228913   3.495   2.704   4.608 -0.3141 -0.3855  0.6094
 2500TIP3   OH228914   3.076   2.921   4.770 -0.5343  0.2184 -0.4491
 2500TIP3    H128915   3.132   2.977   4.822 -1.9170  0.6157  0.6970
 2500TIP3    H228916   3.039   2.859   4.834 -0.0929 -1.1365 -1.4551
 2501TIP3   OH228917   6.724   4.829  13.223 -0.1310 -0.2039 -0.5907
 2501TIP3    H128918   6.687   4.774  13.153 -2.1459  1.3962 -0.8644
 2501TIP3    H228919   6.658   4.895  13.239  1.5713  1.2558  0.8028
 2502TIP3   OH228920   6.793   5.133  16.532  0.5112  0.4315 -0.8316
 2502TIP3    H128921   6.804   5.038  16.543  2.1715  0.6365 -0.5221
 2502TIP3    H228922   6.713   5.153  16.581  0.6243 -0.6789 -0.1511
 2503TIP3   OH228923   3.823   2.812   0.324  0.0062  0.3923  0.0670
 2503TIP3    H128924   3.755   2.801   0.391  0.8550  1.3418  1.1346
 2503TIP3    H228925   3.810   2.739   0.264 -2.0898  0.6603  0.1109
 2504TIP3   OH228926   4.192   6.373  10.876  0.0836  0.3910  0.2664
 2504TIP3    H128927   4.241   6.291  10.885 -0.0018  0.0025 -2.0211
 2504TIP3    H228928   4.253   6.432  10.830 -0.9770  0.4354 -1.1567
 2505TIP3   OH228929   5.749   0.512   2.297 -0.2590 -0.6762 -0.2502
 2505TIP3    H128930   5.834   0.503   2.340 -0.4948  0.1968  0.4190
 2505TIP3    H228931   5.690   0.458   2.349 -0.0526 -1.6577 -0.9815
 2506TIP3   OH228932   6.722   6.521   0.250  0.2698 -0.2366  0.0005
 2506TIP3    H128933   6.747   6.605   0.288  1.1081 -0.8080  0.7656
 2506TIP3    H228934   6.661   6.543   0.179 -1.7764  0.8692  1.9538
 2507TIP3   OH228935   5.157   5.053   3.181  0.1947 -0.5188 -0.1181
 2507TIP3    H128936   5.114   4.975   3.217 -2.5478 -0.4356 -2.7587
 2507TIP3    H228937   5.184   5.026   3.093 -1.9992  1.7317 -1.6049
 2508TIP3   OH228938   4.984   4.062  13.157 -0.3420  0.3685 -0.0120
 2508TIP3    H128939   4.942   3.979  13.136  0.4704  0.3775 -1.9012
 2508TIP3    H228940   5.007   4.056  13.249  0.5219 -1.8750 -0.3265
 2509TIP3   OH228941   3.143   3.127   5.958 -0.5234  0.7804 -0.0093
 2509TIP3    H128942   3.079   3.197   5.962 -1.2244  0.1048  0.8408
 2509TIP3    H228943   3.227   3.172   5.947 -0.9808  1.7372  0.3023
 2510TIP3   OH228944   0.565   4.767  16.714  0.3026 -0.4890  0.7023
 2510TIP3    H128945   0.516   4.803  16.788 -1.3776  1.4695 -1.2421
 2510TIP3    H228946   0.633   4.833  16.696 -0.2565 -0.1964 -0.4069
 2511TIP3   OH228947   2.323   4.436   5.369 -0.1626  0.4253 -1.0201
 2511TIP3    H128948   2.301   4.382   5.445 -1.1075 -0.7695 -2.0976
 2511TIP3    H228949   2.393   4.389   5.325 -1.4600 -0.3543 -2.3507
 2512TIP3   OH228950   5.030   1.366  14.562  0.0759  0.2608 -0.4100
 2512TIP3    H128951   4.991   1.407  14.639 -0.5677  0.4638 -0.8318
 2512TIP3    H228952   5.121   1.397  14.561  0.0196  0.4444  0.1277
 2513TIP3   OH228953   6.213   3.243  16.717 -0.9291 -0.0389 -0.1296
 2513TIP3    H128954   6.218   3.338  16.716 -1.8389  0.0329  0.6575
 2513TIP3    H228955   6.189   3.219  16.628 -0.2290  0.4266 -0.4519
 2514TIP3   OH228956   1.217   1.600   1.975  0.2332 -0.3442 -0.0312
 2514TIP3    H128957   1.122   1.598   1.988 -0.2235 -0.2385 -2.8534
 2514TIP3    H228958   1.249   1.650   2.050 -2.0056  0.1477  0.6944
 2515TIP3   OH228959   2.220   4.640  14.401 -0.1243  0.2698  0.1951
 2515TIP3    H128960   2.252   4.552  14.381 -2.3678 -0.4515 -0.4697
 2515TIP3    H228961   2.238   4.652  14.495  0.2561 -0.8730  0.2775
 2516TIP3   OH228962   2.060   3.925  15.079  0.5086 -0.0524 -0.0490
 2516TIP3    H128963   2.041   3.832  15.078  0.3221 -0.0131 -1.1205
 2516TIP3    H228964   1.989   3.964  15.129  0.9419 -0.5461  0.9743
 2517TIP3   OH228965   0.446   1.732   2.560  0.2597  0.2514 -0.1933
 2517TIP3    H128966   0.406   1.659   2.512 -0.0101 -0.1929  0.6841
 2517TIP3    H228967   0.508   1.770   2.498 -1.7635  1.1964 -1.7262
 2518TIP3   OH228968   3.332   1.170   3.080  0.1180 -0.0317 -0.2119
 2518TIP3    H128969   3.356   1.224   3.005 -2.9430  0.8265 -0.7193
 2518TIP3    H228970   3.301   1.088   3.041  0.4359 -0.3734  0.2500
 2519TIP3   OH228971   4.139   3.926   3.825 -0.0182 -0.7882 -0.2496
 2519TIP3    H128972   4.185   3.885   3.752 -1.4729  0.8858 -2.2489
 2519TIP3    H228973   4.056   3.879   3.830 -0.8397  0.4611 -1.2189
 2520TIP3   OH228974   6.678   5.781  13.976 -0.0475  0.2048  0.1531
 2520TIP3    H128975   6.604   5.759  13.920 -0.2002 -0.2728  0.5411
 2520TIP3    H228976   6.667   5.726  14.053  2.5783 -2.5251 -1.1950
 2521TIP3   OH228977   2.912   3.789  16.917 -0.2183 -0.5293  0.0949
 2521TIP3    H128978   2.926   3.718  16.979 -0.4466 -0.7541 -0.1105
 2521TIP3    H228979   2.905   3.868  16.972 -2.3893 -0.9639  0.5407
 2522TIP3   OH228980   6.408   2.960  15.607 -0.4368  0.1703 -0.5545
 2522TIP3    H128981   6.432   2.990  15.695 -0.3914  0.3016 -0.6103
 2522TIP3    H228982   6.474   2.896  15.584  0.9390  1.8205 -1.4257
 2523TIP3   OH228983   5.405   1.106  11.037  0.4720  0.6644 -0.0449
 2523TIP3    H128984   5.387   1.070  11.125  0.3731 -0.6941 -0.5894
 2523TIP3    H228985   5.489   1.151  11.047  2.0776 -2.1215  0.1041
 2524TIP3   OH228986   3.605   4.855   2.052  0.0497  0.3617  0.0788
 2524TIP3    H128987   3.527   4.904   2.027 -0.1160 -0.2134 -0.5719
 2524TIP3    H228988   3.624   4.884   2.141 -1.5685 -0.3018  0.6771
 2525TIP3   OH228989   5.550   3.090  14.047  0.1631  0.3261 -0.0797
 2525TIP3    H128990   5.623   3.051  14.095  0.1363  0.9294  0.4571
 2525TIP3    H228991   5.481   3.100  14.113 -0.2527  0.1806 -0.4832
 2526TIP3   OH228992   2.301   1.113   1.012  0.9372 -0.2075  0.3122
 2526TIP3    H128993   2.355   1.118   0.933  1.5891 -0.2744  0.7522
 2526TIP3    H228994   2.271   1.021   1.014 -0.1558  0.0974 -0.5475
 2527TIP3   OH228995   3.622   2.982   4.508 -0.7078  0.7075  0.5864
 2527TIP3    H128996   3.690   3.017   4.566  2.9821 -2.4620 -1.3486
 2527TIP3    H228997   3.600   2.896   4.546  1.0384 -0.9771 -1.9037
 2528TIP3   OH228998   0.018   3.498  12.815 -0.4342 -0.4555  0.1177
 2528TIP3    H128999   0.082   3.462  12.753  0.8088  0.2019  0.9621
 2528TIP3    H229000   0.062   3.493  12.900 -1.8002 -0.6132  0.8316
 2529TIP3   OH229001   4.608   2.720   1.128 -0.5614 -0.0643 -0.6473
 2529TIP3    H129002   4.661   2.681   1.198 -0.4918 -0.6428 -1.0087
 2529TIP3    H229003   4.563   2.793   1.169  0.1025  0.1049 -0.1958
 2530TIP3   OH229004   2.741   3.934   0.222 -0.1075 -0.1670  0.1891
 2530TIP3    H129005   2.680   3.882   0.168  1.9528 -0.6812 -1.7850
 2530TIP3    H229006   2.785   3.991   0.159 -0.1942  1.9184  1.9162
 2531TIP3   OH229007   2.381   5.724  11.375  0.1022  0.5412  0.0900
 2531TIP3    H129008   2.449   5.704  11.310  0.0754  0.4654  0.0844
 2531TIP3    H229009   2.417   5.795  11.427 -0.3147  1.3674 -0.7038
 2532TIP3   OH229010   0.486   4.845  14.143 -0.4228  0.0699 -0.3424
 2532TIP3    H129011   0.413   4.793  14.109  0.5670 -0.7859 -1.2242
 2532TIP3    H229012   0.542   4.782  14.188 -1.2269  1.0359  2.1838
 2533TIP3   OH229013   3.578   2.715  14.338 -0.4788 -0.7430 -0.3083
 2533TIP3    H129014   3.630   2.750  14.410 -0.1964 -1.5563 -0.1093
 2533TIP3    H229015   3.497   2.767  14.340 -0.0887 -0.1344 -0.0008
 2534TIP3   OH229016   0.336   3.920  10.601  0.0249 -0.2293  0.0656
 2534TIP3    H129017   0.374   4.008  10.590 -0.4886 -0.2780 -2.6063
 2534TIP3    H229018   0.306   3.919  10.693 -1.4484  3.0268 -0.2208
 2535TIP3   OH229019   2.884   1.268  13.690 -0.0308  0.0145 -0.3380
 2535TIP3    H129020   2.898   1.290  13.598  0.2227 -0.2903 -0.3778
 2535TIP3    H229021   2.910   1.346  13.738  0.7711 -0.1629 -0.4743
 2536TIP3   OH229022   4.660   0.206   1.588 -0.6217  0.1059 -0.7025
 2536TIP3    H129023   4.596   0.187   1.656  0.6451  0.3185  0.6093
 2536TIP3    H229024   4.644   0.141   1.521 -2.2224  0.1894 -0.4353
 2537TIP3   OH229025   6.652   4.021   5.683 -0.4027  0.0663 -0.7894
 2537TIP3    H129026   6.741   4.009   5.717 -1.3208 -2.2192  1.1023
 2537TIP3    H229027   6.638   4.116   5.684  1.3397  0.3525  0.7292
 2538TIP3   OH229028   6.354   2.327  12.150  0.3099 -0.1922  0.7114
 2538TIP3    H129029   6.297   2.399  12.176  0.9825  1.8163 -2.6730
 2538TIP3    H229030   6.296   2.266  12.105 -0.0018 -1.0084  2.1796
 2539TIP3   OH229031   1.228   5.178  15.904  0.2856  0.5134 -0.0252
 2539TIP3    H129032   1.289   5.166  15.832  0.8997 -0.8325  0.6843
 2539TIP3    H229033   1.158   5.232  15.868  0.3612 -0.4770 -1.7351
 2540TIP3   OH229034   0.495   5.559   0.420 -0.4538 -0.0958  0.7815
 2540TIP3    H129035   0.438   5.487   0.393 -1.1801 -0.2543  2.6424
 2540TIP3    H229036   0.436   5.634   0.428 -0.1479  0.0855  1.3429
 2541TIP3   OH229037   2.979   1.754   5.633 -0.3201  0.0413  0.5112
 2541TIP3    H129038   3.018   1.795   5.710 -0.2828 -0.5448  0.8090
 2541TIP3    H229039   2.926   1.682   5.668 -0.0044 -0.4640 -0.0349
 2542TIP3   OH229040   1.790   0.196  10.763  0.1517  0.9247 -0.2464
 2542TIP3    H129041   1.878   0.167  10.738 -0.7881 -1.8043 -0.6672
 2542TIP3    H229042   1.791   0.193  10.859  0.4497  0.6470 -0.2543
 2543TIP3   OH229043   0.353   2.808   5.061 -0.1435 -0.2975 -0.4646
 2543TIP3    H129044   0.337   2.749   4.987  0.4361  0.5734 -1.3044
 2543TIP3    H229045   0.436   2.851   5.040 -1.0476  1.5794 -0.3910
 2544TIP3   OH229046   2.952   5.486   4.456  0.1007  0.8701 -0.1736
 2544TIP3    H129047   3.007   5.564   4.451 -1.1327  1.6971 -1.8657
 2544TIP3    H229048   3.005   5.422   4.503  2.1578  1.8979 -0.9774
 2545TIP3   OH229049   3.066   6.154  11.747 -0.3859 -0.1571 -0.1729
 2545TIP3    H129050   3.083   6.078  11.691  2.5721  2.3274 -3.1240
 2545TIP3    H229051   3.134   6.150  11.815  0.9561  0.6170 -1.3964
 2546TIP3   OH229052   4.697   2.438   5.062 -0.0106 -0.1422  0.2342
 2546TIP3    H129053   4.729   2.349   5.048 -1.6858 -0.6280 -0.7861
 2546TIP3    H229054   4.776   2.492   5.065  0.9449 -1.3175 -1.7680
 2547TIP3   OH229055   6.194   4.604   5.010  0.1776  0.7373 -0.1601
 2547TIP3    H129056   6.218   4.541   4.941 -0.7420 -0.0325  0.1988
 2547TIP3    H229057   6.100   4.592   5.021  0.3219  0.7799  1.3014
 2548TIP3   OH229058   1.921   4.420  12.616 -0.0543 -0.4531  0.1186
 2548TIP3    H129059   1.826   4.412  12.604  0.0169 -1.9215  0.4358
 2548TIP3    H229060   1.931   4.449  12.707 -0.1668 -1.9878  0.6479
 2549TIP3   OH229061   1.192   2.367   0.608 -0.4076  0.1560 -0.1569
 2549TIP3    H129062   1.274   2.342   0.650  0.3393  0.3633 -1.4596
 2549TIP3    H229063   1.217   2.393   0.519 -1.7945  0.8687 -0.3604
 2550TIP3   OH229064   3.823   4.092  12.294  0.6718  0.2575 -0.7589
 2550TIP3    H129065   3.831   4.023  12.361 -1.0705  1.2195  0.5486
 2550TIP3    H229066   3.739   4.134  12.314  0.4212  1.0495 -3.1694
 2551TIP3   OH229067   0.550   0.543  15.708  0.5162  0.3428  0.8957
 2551TIP3    H129068   0.463   0.583  15.708 -0.4461 -1.6404 -0.3575
 2551TIP3    H229069   0.575   0.540  15.616  0.9561 -1.0503  1.0410
 2552TIP3   OH229070   3.837   0.199   0.474 -0.5061 -0.1964  0.3232
 2552TIP3    H129071   3.743   0.180   0.476 -0.3396 -1.1044  0.0945
 2552TIP3    H229072   3.857   0.210   0.381 -0.3986  0.0770  0.3781
 2553TIP3   OH229073   0.309   0.474  15.031  0.0853  0.0373  0.5470
 2553TIP3    H129074   0.283   0.429  14.951 -0.7185 -0.8843  1.3056
 2553TIP3    H229075   0.242   0.542  15.044  1.1848  1.3723 -0.4859
 2554TIP3   OH229076   1.118   2.743  10.712 -0.0110 -0.1521  0.0399
 2554TIP3    H129077   1.189   2.796  10.749 -1.3274  0.6400  1.5503
 2554TIP3    H229078   1.052   2.807  10.685 -1.3242 -0.9456  1.2149
 2555TIP3   OH229079   0.564   6.717  10.668 -0.3391 -0.3814  0.1110
 2555TIP3    H129080   0.645   6.747  10.628  0.6022 -1.2812  1.2731
 2555TIP3    H229081   0.503   6.709  10.595  0.7981 -0.3164 -0.8750
 2556TIP3   OH229082   6.344   2.579  15.882  0.4790 -0.1433 -0.3143
 2556TIP3    H129083   6.416   2.630  15.919  0.1240 -0.2303  0.5027
 2556TIP3    H229084   6.362   2.578  15.788  0.2195  1.9197 -0.4354
 2557TIP3   OH229085   6.642   4.812   1.239 -0.1566 -0.7889 -0.2712
 2557TIP3    H129086   6.595   4.838   1.160 -0.8765 -1.3976 -0.0646
 2557TIP3    H229087   6.734   4.811   1.213 -0.1801  0.9541 -0.5392
 2558TIP3   OH229088   3.275   2.893  10.775 -0.1089 -0.7141  0.1459
 2558TIP3    H129089   3.347   2.885  10.837  0.3593  0.3608 -0.2384
 2558TIP3    H229090   3.204   2.841  10.814  1.2322 -2.8260 -0.0738
 2559TIP3   OH229091   5.590   6.339  13.725 -0.3846  0.4676  0.4927
 2559TIP3    H129092   5.681   6.326  13.750 -0.1301  0.3423 -0.4600
 2559TIP3    H229093   5.592   6.412  13.662 -0.7263 -0.5694 -0.7575
 2560TIP3   OH229094   0.570   2.832   5.811 -0.4160 -0.7650 -0.0962
 2560TIP3    H129095   0.512   2.814   5.885 -0.1660  0.5648  0.4434
 2560TIP3    H229096   0.655   2.849   5.852 -0.4339  0.6882 -0.6238
 2561TIP3   OH229097   0.480   1.080   3.326  0.0558 -0.3764 -0.0850
 2561TIP3    H129098   0.427   1.120   3.258 -1.7739 -1.3230  0.6970
 2561TIP3    H229099   0.569   1.109   3.308 -0.6630  0.9948 -1.6748
 2562TIP3   OH229100   2.086   0.651  13.834  0.2516  0.1843  0.0789
 2562TIP3    H129101   2.005   0.668  13.883  0.1075 -3.0568  1.1665
 2562TIP3    H229102   2.056   0.631  13.745 -0.0748 -0.0499  0.2365
 2563TIP3   OH229103   0.522   5.142  15.747 -0.0877  0.5438 -0.3713
 2563TIP3    H129104   0.585   5.141  15.819  2.1473 -1.0864 -2.1971
 2563TIP3    H229105   0.551   5.213  15.690 -0.8574  0.7627 -0.5122
 2564TIP3   OH229106   5.859   5.384  10.808 -0.3504  0.4454 -0.4116
 2564TIP3    H129107   5.935   5.326  10.805  1.4680  2.6901 -1.0866
 2564TIP3    H229108   5.808   5.362  10.730  0.8287  0.3871 -1.1954
 2565TIP3   OH229109   6.632   4.826   5.943  0.6013 -0.2635  0.0775
 2565TIP3    H129110   6.637   4.750   5.885  1.7918  0.9687 -1.5536
 2565TIP3    H229111   6.564   4.881   5.904 -0.2141 -0.4561  1.2106
 2566TIP3   OH229112   1.685   1.877  11.949 -0.3556 -0.0552 -0.0216
 2566TIP3    H129113   1.608   1.832  11.983 -0.8867  0.2714 -0.7768
 2566TIP3    H229114   1.759   1.835  11.994 -1.0571  1.1019  2.3835
 2567TIP3   OH229115   3.900   1.047  13.954  0.2518 -0.0398 -0.5254
 2567TIP3    H129116   3.891   1.074  14.046  0.6678 -1.9489  0.1385
 2567TIP3    H229117   3.828   0.985  13.941 -0.2394  0.7526 -1.7377
 2568TIP3   OH229118   1.989   1.153   2.459 -0.2872  0.2067 -0.0263
 2568TIP3    H129119   1.917   1.196   2.413  1.8332  1.1302 -2.7170
 2568TIP3    H229120   2.009   1.212   2.532 -0.6303  1.2158 -0.7252
 2569TIP3   OH229121   3.578   6.787   4.741  0.8199 -0.1330  0.4307
 2569TIP3    H129122   3.598   6.811   4.831 -1.9916 -0.5633  1.2704
 2569TIP3    H229123   3.482   6.789   4.736  0.8657 -0.5028 -2.4520
 2570TIP3   OH229124   3.776   3.092   1.973  0.2677 -0.1653  0.3630
 2570TIP3    H129125   3.703   3.153   1.972 -1.0421 -1.6684  0.3056
 2570TIP3    H229126   3.798   3.083   2.066  1.3572  1.3630  0.2832
 2571TIP3   OH229127   0.063   5.238   3.660 -0.0367  0.2738  0.3537
 2571TIP3    H129128  -0.019   5.222   3.707  0.3567 -1.0724  0.6347
 2571TIP3    H229129   0.095   5.321   3.693 -0.3093 -0.1339  1.6883
 2572TIP3   OH229130   6.259   1.631   5.550  0.1472  0.2368 -0.1453
 2572TIP3    H129131   6.311   1.554   5.525  1.0423  1.5629 -2.7447
 2572TIP3    H229132   6.195   1.640   5.479 -0.8217  1.1292  0.8234
 2573TIP3   OH229133   1.194   2.780  15.301  0.1451  0.2086 -0.4728
 2573TIP3    H129134   1.118   2.804  15.248 -1.5228  0.1891  1.7664
 2573TIP3    H229135   1.187   2.836  15.379  1.3355 -1.1544  0.6600
 2574TIP3   OH229136   0.534   3.944   4.692  0.1274  0.0146 -0.1309
 2574TIP3    H129137   0.557   3.966   4.602 -1.0707  0.6496 -0.3022
 2574TIP3    H229138   0.550   4.025   4.742 -1.4621  0.4202 -0.2252
 2575TIP3   OH229139   6.077   2.579   4.087 -0.6674  0.1917 -0.1119
 2575TIP3    H129140   5.995   2.542   4.053 -0.0931 -1.0343 -0.1908
 2575TIP3    H229141   6.122   2.505   4.126  0.1580  0.9752  0.4417
 2576TIP3   OH229142   0.517   5.986  13.189 -0.0186 -0.6023 -0.2458
 2576TIP3    H129143   0.495   5.970  13.281  0.5124 -0.4385 -0.0900
 2576TIP3    H229144   0.586   6.052  13.192  0.4463 -1.0630 -0.7401
 2577TIP3   OH229145   0.522   0.554  13.178 -0.0588 -0.0443  0.4593
 2577TIP3    H129146   0.456   0.492  13.146  2.2182 -2.1189 -0.5364
 2577TIP3    H229147   0.575   0.575  13.101  2.5134 -1.2093  1.7848
 2578TIP3   OH229148   5.102   4.508  12.620  0.0132 -0.1286 -0.3040
 2578TIP3    H129149   5.163   4.512  12.693 -0.1395 -1.2258 -0.0965
 2578TIP3    H229150   5.133   4.575  12.558  0.9645 -0.1532  0.1369
 2579TIP3   OH229151   1.649   2.016   0.007 -0.0312 -0.1021  0.1931
 2579TIP3    H129152   1.590   1.969  -0.053  0.1670  0.4469 -0.4491
 2579TIP3    H229153   1.704   2.069  -0.051 -1.5289  2.4693  0.9263
 2580TIP3   OH229154   6.697   3.191   5.864  0.0759  0.3913 -0.4469
 2580TIP3    H129155   6.780   3.163   5.824 -0.7832  1.4987 -3.2134
 2580TIP3    H229156   6.724   3.242   5.940  1.8608 -0.5805 -0.3615
 2581TIP3   OH229157   4.998   3.812  16.457 -0.5779 -0.2327  0.4894
 2581TIP3    H129158   4.923   3.828  16.400  0.3391  1.1926 -0.3692
 2581TIP3    H229159   5.075   3.826  16.401  0.3715 -2.3021  1.1673
 2582TIP3   OH229160   2.899   1.115   0.294 -0.1633  0.3108 -0.5460
 2582TIP3    H129161   2.927   1.190   0.348 -0.3101  0.2843 -0.4317
 2582TIP3    H229162   2.948   1.041   0.329  0.0110  0.3597 -0.6841
 2583TIP3   OH229163   2.678   4.744  15.431 -0.9421 -0.3509  0.5389
 2583TIP3    H129164   2.719   4.823  15.466  0.0389 -0.6312  0.0433
 2583TIP3    H229165   2.627   4.775  15.356 -0.4085 -0.2085  0.2309
 2584TIP3   OH229166   6.248   1.228  16.124 -0.2256  0.4389  0.8223
 2584TIP3    H129167   6.226   1.185  16.207  2.7217  1.8667  2.4832
 2584TIP3    H229168   6.235   1.160  16.058 -2.8620 -0.6953  2.3194
 2585TIP3   OH229169   4.737   2.467  12.309 -0.2352  0.0778 -0.1300
 2585TIP3    H129170   4.773   2.380  12.323  0.4948  0.4435  0.3168
 2585TIP3    H229171   4.659   2.452  12.255 -1.0787 -1.0154  1.2997
 2586TIP3   OH229172   1.948   6.373  11.459 -0.3207 -0.4444 -0.1043
 2586TIP3    H129173   1.995   6.319  11.522 -0.1385 -0.7835 -0.5272
 2586TIP3    H229174   1.870   6.402  11.506 -0.5326 -1.2507  0.0672
 2587TIP3   OH229175   6.106   3.205   2.815  0.1378  0.1139 -0.4716
 2587TIP3    H129176   6.086   3.293   2.784  0.8794 -0.0465 -1.4282
 2587TIP3    H229177   6.093   3.148   2.739  1.8292 -0.2999 -0.4926
 2588TIP3   OH229178   1.308   1.240   4.194  0.1508 -0.4709 -0.1675
 2588TIP3    H129179   1.375   1.278   4.251  0.5354 -1.4009  0.0163
 2588TIP3    H229180   1.302   1.301   4.120  0.1911  0.3522  0.4939
 2589TIP3   OH229181   6.130   4.483  11.554  0.3878 -0.0780  0.2271
 2589TIP3    H129182   6.122   4.392  11.525  0.0127  0.2412 -0.7486
 2589TIP3    H229183   6.213   4.487  11.601  0.5087 -0.8815  0.0948
 2590TIP3   OH229184   3.336   6.030   5.841 -0.4281  0.2834  0.0539
 2590TIP3    H129185   3.423   5.989   5.842 -0.7853 -0.5159  0.9701
 2590TIP3    H229186   3.289   5.984   5.771 -0.1868  0.5797 -0.3095
 2591TIP3   OH229187   5.380   6.249  11.296  0.3458 -0.2273 -0.0307
 2591TIP3    H129188   5.423   6.187  11.237 -0.0474 -1.2748  0.7644
 2591TIP3    H229189   5.295   6.266  11.256  0.9925  0.9289 -0.9867
 2592TIP3   OH229190   5.055   0.063  11.368  0.5596 -0.1076  0.2205
 2592TIP3    H129191   5.072   0.043  11.460  0.9382 -0.7040  0.0191
 2592TIP3    H229192   5.051   0.159  11.366 -1.7262 -0.0938  1.2717
 2593TIP3   OH229193   5.426   5.775   4.497 -0.8011 -0.7524 -0.1210
 2593TIP3    H129194   5.342   5.753   4.537 -0.5612 -1.7018 -0.1050
 2593TIP3    H229195   5.445   5.701   4.439  0.4534 -1.0015  0.5666
 2594TIP3   OH229196   4.054   4.397  12.127 -0.0454 -0.1874 -0.2706
 2594TIP3    H129197   4.078   4.361  12.212  1.1514  2.0846  0.4501
 2594TIP3    H229198   4.056   4.322  12.067  0.7812 -1.5377  1.3717
 2595TIP3   OH229199   5.796   5.686   1.750  0.0530  0.4913 -0.0633
 2595TIP3    H129200   5.857   5.623   1.712  1.6395  0.7338  1.9173
 2595TIP3    H229201   5.728   5.696   1.684  1.3777 -0.9216 -1.7428
 2596TIP3   OH229202   5.223   5.292   6.400  0.1547 -0.2358 -0.7728
 2596TIP3    H129203   5.158   5.241   6.351  0.1370 -0.4302 -0.5523
 2596TIP3    H229204   5.296   5.303   6.339 -0.8678  1.7002 -1.7139
 2597TIP3   OH229205   4.620   1.888   0.087  0.0392  0.4044 -0.0844
 2597TIP3    H129206   4.568   1.918   0.161 -1.7370  0.4925 -1.3094
 2597TIP3    H229207   4.598   1.795   0.078  0.7739  0.2226 -0.0973
 2598TIP3   OH229208   6.498   0.723  11.038 -0.2911  0.2053  0.0238
 2598TIP3    H129209   6.457   0.682  10.961  1.4537  1.9451 -1.9358
 2598TIP3    H229210   6.579   0.673  11.051 -0.1695  0.4552  0.2181
 2599TIP3   OH229211   2.285   1.276  13.812  0.2422  0.1166  0.3556
 2599TIP3    H129212   2.330   1.358  13.830 -0.2570  0.6576 -0.7848
 2599TIP3    H229213   2.201   1.303  13.774  0.4682 -0.9311 -0.9333
 2600TIP3   OH229214   3.717   2.502   4.417 -0.0623 -0.3182  0.3213
 2600TIP3    H129215   3.808   2.504   4.445  0.0005 -0.8895  0.1546
 2600TIP3    H229216   3.719   2.533   4.327 -0.0542 -0.1923  0.3638
 2601TIP3   OH229217   1.065   3.207   1.103 -0.7045  0.1790  0.2336
 2601TIP3    H129218   1.031   3.296   1.116 -0.0987  0.6687 -1.2974
 2601TIP3    H229219   0.989   3.156   1.077 -0.6509  0.8491 -1.3596
 2602TIP3   OH229220   4.056   5.978  14.320  0.1044 -0.0564  0.6113
 2602TIP3    H129221   4.061   5.998  14.413  2.7222  2.1771  0.1278
 2602TIP3    H229222   4.117   6.039  14.279 -1.1859 -0.7121 -2.6400
 2603TIP3   OH229223   1.359   5.148  16.979 -0.1200  0.2106 -0.1338
 2603TIP3    H129224   1.307   5.082  17.025  0.7364 -0.8421 -0.6530
 2603TIP3    H229225   1.299   5.185  16.915 -0.5827 -0.1205  0.1011
 2604TIP3   OH229226   3.320   6.231  16.125  0.1595 -0.5245 -0.4226
 2604TIP3    H129227   3.295   6.210  16.215 -0.7809 -0.7247 -0.7179
 2604TIP3    H229228   3.269   6.309  16.103 -0.7076 -1.2944 -1.2468
 2605TIP3   OH229229   5.266   2.372  16.773  0.1833  0.0142 -0.8906
 2605TIP3    H129230   5.281   2.288  16.816  1.3994  0.7186  0.1570
 2605TIP3    H229231   5.172   2.389  16.784 -0.1187 -1.2937 -1.3272
 2606TIP3   OH229232   1.877   2.856  11.062  0.2960 -0.3249 -0.1770
 2606TIP3    H129233   1.909   2.807  11.138 -1.6500  0.0275  0.9439
 2606TIP3    H229234   1.809   2.800  11.025 -1.5507  1.1504  0.7689
 2607TIP3   OH229235   5.758   0.361   2.795  0.7244  0.4774  0.2116
 2607TIP3    H129236   5.808   0.435   2.758  1.7558 -0.3973 -0.1886
 2607TIP3    H229237   5.675   0.400   2.823  1.2794  1.8085  0.0786
 2608TIP3   OH229238   0.731   2.557  11.141 -0.3194 -0.3467  0.4183
 2608TIP3    H129239   0.736   2.469  11.178  1.5599 -0.8136 -0.7912
 2608TIP3    H229240   0.718   2.542  11.047  0.9752  0.6195  0.0675
 2609TIP3   OH229241   3.464   3.504  15.841  0.3041  0.5595  0.0925
 2609TIP3    H129242   3.445   3.596  15.826  0.8224  0.8398  1.0665
 2609TIP3    H229243   3.526   3.480  15.772 -0.2987  0.7670 -0.5274
 2610TIP3   OH229244   5.395   2.664   6.167 -0.0034 -0.2088  0.2908
 2610TIP3    H129245   5.379   2.600   6.237 -0.7127  0.5490  0.8462
 2610TIP3    H229246   5.326   2.730   6.179 -0.9553 -0.7111 -1.9215
 2611TIP3   OH229247   0.640   4.458  12.212 -0.1606  0.5489  0.2894
 2611TIP3    H129248   0.598   4.454  12.298  0.9097 -0.5913  0.7746
 2611TIP3    H229249   0.570   4.486  12.153 -1.1307  0.4793  1.3724
 2612TIP3   OH229250   3.338   2.587   1.062 -0.5483 -0.3061  0.3794
 2612TIP3    H129251   3.402   2.648   1.099  0.1938 -1.1354  0.5142
 2612TIP3    H229252   3.389   2.535   0.999 -1.6490  0.6992 -1.4302
 2613TIP3   OH229253   5.736   3.100   0.472 -0.6408 -0.1383  0.4909
 2613TIP3    H129254   5.807   3.035   0.467  0.1884  0.7935 -0.3459
 2613TIP3    H229255   5.775   3.173   0.519 -1.2421  0.1644  0.5201
 2614TIP3   OH229256   6.459   1.293  15.631 -0.5804  0.5287 -0.5194
 2614TIP3    H129257   6.547   1.285  15.593 -0.7459 -0.8665 -0.6826
 2614TIP3    H229258   6.462   1.236  15.708 -1.5569 -0.1498 -0.9634
 2615TIP3   OH229259   3.556   3.496  16.240  0.0503  0.0201 -0.1927
 2615TIP3    H129260   3.466   3.469  16.219 -0.0133  0.3606 -0.3542
 2615TIP3    H229261   3.595   3.418  16.280 -0.5980  0.1477  0.7341
 2616TIP3   OH229262   2.925   0.995  11.827 -0.0259 -0.4126 -0.0990
 2616TIP3    H129263   2.996   1.012  11.766  0.4950  1.4145  0.9080
 2616TIP3    H229264   2.957   0.923  11.882  0.0800 -1.1159 -1.0641
 2617TIP3   OH229265   5.500   6.615  15.873  0.4510 -0.4456  0.5362
 2617TIP3    H129266   5.517   6.588  15.963  2.4861  0.2625  0.4203
 2617TIP3    H229267   5.522   6.538  15.821  0.3537 -0.4972  0.5708
 2618TIP3   OH229268   2.060   5.138  13.249 -0.0560  0.3846 -0.3288
 2618TIP3    H129269   2.067   5.177  13.162 -0.9660 -0.2982 -0.7219
 2618TIP3    H229270   1.975   5.095  13.250  0.2172 -0.1841  0.6748
 2619TIP3   OH229271   2.680   3.040  11.658  0.8078 -0.1267 -0.0053
 2619TIP3    H129272   2.624   3.115  11.636  2.7631  0.8017 -2.3406
 2619TIP3    H229273   2.623   2.964  11.652 -0.1688  0.7258 -2.6686
 2620TIP3   OH229274   1.981   4.731   6.417  0.1297  0.5629 -1.0267
 2620TIP3    H129275   1.988   4.825   6.400 -1.0909  0.9854  0.5614
 2620TIP3    H229276   1.888   4.713   6.412  0.1626 -0.1542  0.5390
 2621TIP3   OH229277   2.246   2.389  15.382 -0.0749  0.2399  0.1339
 2621TIP3    H129278   2.292   2.469  15.408 -0.1649  0.6017 -0.7583
 2621TIP3    H229279   2.202   2.359  15.461 -0.2503  1.2223  0.4218
 2622TIP3   OH229280   2.778   2.068  13.624  0.7859  0.2191 -0.2793
 2622TIP3    H129281   2.783   2.095  13.716 -0.4965 -0.8506  0.1294
 2622TIP3    H229282   2.724   2.134  13.582 -0.3074 -0.3599  0.1872
 2623TIP3   OH229283   0.855   6.359  15.427  1.0104 -0.4585  0.0823
 2623TIP3    H129284   0.786   6.321  15.482  0.7444  0.7439  0.6135
 2623TIP3    H229285   0.937   6.324  15.464  0.7201 -1.6237 -0.3400
 2624TIP3   OH229286   6.808   2.258   0.530  0.0220 -0.0289  0.0992
 2624TIP3    H129287   6.839   2.179   0.487 -1.0163 -0.1391 -0.4888
 2624TIP3    H229288   6.820   2.328   0.466  1.0541  0.3292  0.6624
 2625TIP3   OH229289   3.204   3.328  13.734 -0.4052  0.1772 -0.6134
 2625TIP3    H129290   3.249   3.315  13.651  1.2022  0.2316  0.2020
 2625TIP3    H229291   3.132   3.265  13.733  2.6563 -3.7734  0.0852
 2626TIP3   OH229292   3.682   3.474  15.657  0.6275  0.2805 -0.2854
 2626TIP3    H129293   3.752   3.411  15.675 -0.2344 -0.4542  0.5739
 2626TIP3    H229294   3.687   3.488  15.563  0.0500 -2.0734 -0.7427
 2627TIP3   OH229295   4.831   3.954   5.876  0.0870  0.2983  0.0682
 2627TIP3    H129296   4.830   3.885   5.942 -0.3651  1.4132  1.2787
 2627TIP3    H229297   4.764   3.928   5.813  1.4799 -1.4979 -0.7847
 2628TIP3   OH229298   5.423   0.116   1.460 -0.2226 -0.4801 -0.3833
 2628TIP3    H129299   5.366   0.187   1.431 -1.1586 -1.2173 -0.4088
 2628TIP3    H229300   5.370   0.037   1.449  1.1007 -1.2916 -1.1902
 2629TIP3   OH229301   4.630   3.915   4.986  0.1184  0.4841  0.5703
 2629TIP3    H129302   4.711   3.948   5.024  0.8016 -1.5120  0.9527
 2629TIP3    H229303   4.636   3.937   4.893  1.1624  0.2570  0.5736
 2630TIP3   OH229304   6.286   0.161  14.465 -0.6233 -0.5223 -0.2634
 2630TIP3    H129305   6.198   0.198  14.458  0.2666  2.3231  1.8594
 2630TIP3    H229306   6.271   0.069  14.486 -3.0707 -0.1635 -0.1258
 2631TIP3   OH229307   2.471   5.284   0.331 -0.4687 -0.3098 -0.2468
 2631TIP3    H129308   2.395   5.280   0.272  0.2013 -2.0460 -1.0778
 2631TIP3    H229309   2.471   5.200   0.376  2.6554 -1.8231 -2.6035
 2632TIP3   OH229310   5.669   1.573   2.006  0.4437 -0.1792  0.4663
 2632TIP3    H129311   5.695   1.602   1.918 -0.7181 -1.1757 -0.2311
 2632TIP3    H229312   5.669   1.654   2.058 -1.0478  0.8345 -1.0127
 2633TIP3   OH229313   1.430   1.729  12.003 -0.0244  0.3980  0.1873
 2633TIP3    H129314   1.343   1.769  12.005  0.7474  2.1761 -0.3614
 2633TIP3    H229315   1.429   1.672  11.926 -0.7989  0.1347  0.3852
 2634TIP3   OH229316   1.636   0.475   9.959  0.3092 -0.0586 -0.0623
 2634TIP3    H129317   1.574   0.541   9.929 -0.2763  0.0961  1.4001
 2634TIP3    H229318   1.589   0.392   9.950 -0.3317  0.1025  1.4859
 2635TIP3   OH229319   4.187   1.670  14.898  0.3232 -0.1317 -0.3646
 2635TIP3    H129320   4.111   1.706  14.852 -1.8461 -2.4357  1.1390
 2635TIP3    H229321   4.166   1.578  14.910  2.3276 -0.3742  2.1901
 2636TIP3   OH229322   2.200   5.391  13.827  0.4525  0.6194 -0.8376
 2636TIP3    H129323   2.223   5.360  13.914 -3.1102 -0.7140 -0.2355
 2636TIP3    H229324   2.219   5.317  13.769 -0.4586  0.2284 -0.6424
 2637TIP3   OH229325   2.611   6.310  14.382  0.3123 -0.2809 -0.1602
 2637TIP3    H129326   2.544   6.296  14.315 -1.0532  0.7701  0.9465
 2637TIP3    H229327   2.588   6.394  14.422  0.6835 -1.2046  2.1049
 2638TIP3   OH229328   1.785   4.041  16.947  0.2699 -0.4022 -0.2632
 2638TIP3    H129329   1.757   4.065  17.035  0.2624  1.2336 -0.6668
 2638TIP3    H229330   1.879   4.058  16.946 -0.2219  3.2214 -1.5372
 2639TIP3   OH229331   0.835   5.342   3.843 -0.2105  0.8072 -0.3234
 2639TIP3    H129332   0.768   5.307   3.785  1.7546  0.6158 -2.6694
 2639TIP3    H229333   0.861   5.425   3.803  0.8669  0.9205  0.5441
 2640TIP3   OH229334   4.136   4.645  13.651 -0.0306  0.0426 -0.0831
 2640TIP3    H129335   4.069   4.660  13.585 -0.4065 -0.7078  0.1182
 2640TIP3    H229336   4.196   4.582  13.610 -0.6133 -0.9173  0.5165
 2641TIP3   OH229337   2.443   3.063  13.302 -0.4481  0.2609  0.1205
 2641TIP3    H129338   2.370   3.108  13.261  0.8550  2.5851  0.1848
 2641TIP3    H229339   2.482   3.011  13.232 -0.3971  1.3673 -0.7043
 2642TIP3   OH229340   3.670   1.687  11.566 -0.3630  0.2767 -0.2890
 2642TIP3    H129341   3.658   1.669  11.472 -0.9672  1.4797 -0.4508
 2642TIP3    H229342   3.610   1.758  11.585 -0.3817 -0.0788  1.0735
 2643TIP3   OH229343   2.695   1.122   4.685 -0.8080 -0.1717 -0.4658
 2643TIP3    H129344   2.619   1.176   4.662  0.3319  1.5994 -0.2367
 2643TIP3    H229345   2.720   1.152   4.772  0.7805  0.0157 -0.9653
 2644TIP3   OH229346   2.150   4.999   3.681 -0.2055 -0.4934  0.2971
 2644TIP3    H129347   2.193   4.917   3.705  0.7573  0.1355  0.7824
 2644TIP3    H229348   2.149   4.998   3.585 -0.4638 -1.2000  0.3024
 2645TIP3   OH229349   3.019   4.308  16.360  0.1046 -0.2040 -0.1882
 2645TIP3    H129350   2.957   4.254  16.408 -0.6820  1.2501  0.5119
 2645TIP3    H229351   3.089   4.248  16.334 -0.9640 -1.6182  0.1253
 2646TIP3   OH229352   5.961   6.709  15.424 -0.4725  0.6201  0.6739
 2646TIP3    H129353   5.905   6.640  15.459 -0.0546  0.3889  0.8926
 2646TIP3    H229354   5.973   6.770  15.497 -0.9869  1.0239  0.4300
 2647TIP3   OH229355   4.455   2.229  14.446  0.1487  0.2666  0.5995
 2647TIP3    H129356   4.367   2.229  14.485 -0.4906  0.2716 -0.7817
 2647TIP3    H229357   4.514   2.218  14.521 -1.0132  0.3754  1.5720
 2648TIP3   OH229358   1.188   3.341  16.571  0.1694 -0.4769  0.8176
 2648TIP3    H129359   1.231   3.407  16.625 -1.2418  0.5517  0.7435
 2648TIP3    H229360   1.094   3.360  16.579 -0.1227 -0.2770 -1.9621
 2649TIP3   OH229361   0.059   5.897  13.903 -0.1624 -0.2031 -0.4773
 2649TIP3    H129362  -0.026   5.878  13.942  0.8692  0.1148  2.1484
 2649TIP3    H229363   0.053   5.988  13.875 -0.6223 -0.1325 -0.1539
 2650TIP3   OH229364   0.807   5.127  16.536 -0.3003 -0.4006  0.2668
 2650TIP3    H129365   0.736   5.078  16.496 -0.6815  0.5497 -0.2624
 2650TIP3    H229366   0.805   5.213  16.493  0.1774  0.1767  1.3279
 2651TIP3   OH229367   0.798   5.167  12.501 -0.0768 -0.1883 -0.5703
 2651TIP3    H129368   0.715   5.126  12.527  0.2672 -0.5171  0.0384
 2651TIP3    H229369   0.796   5.253  12.543 -0.0911 -0.2128 -0.5209
 2652TIP3   OH229370   4.000   1.997   3.849  0.0459  0.6689  0.4784
 2652TIP3    H129371   3.994   2.069   3.786 -0.4278 -0.4688 -0.8362
 2652TIP3    H229372   3.909   1.976   3.870  0.1997  1.1491  1.7176
 2653TIP3   OH229373   1.675   0.269   4.155 -0.0271 -0.2359  0.5454
 2653TIP3    H129374   1.580   0.262   4.146 -0.0710  1.0795 -0.3356
 2653TIP3    H229375   1.705   0.180   4.174 -1.2041 -1.1120 -1.4768
 2654TIP3   OH229376   2.399   0.883  13.469 -0.4388  0.0213  0.0828
 2654TIP3    H129377   2.425   0.975  13.456  1.1433 -0.6098 -1.5457
 2654TIP3    H229378   2.476   0.832  13.444 -1.8382 -1.8312 -0.6893
 2655TIP3   OH229379   6.377   0.190   1.185  0.1168  0.2263 -0.1898
 2655TIP3    H129380   6.285   0.205   1.208  0.3700 -0.0243  1.1133
 2655TIP3    H229381   6.398   0.106   1.225  1.3549  1.0620  1.0254
 2656TIP3   OH229382   5.079   5.427  16.500  0.4740  0.1723 -0.4052
 2656TIP3    H129383   5.111   5.425  16.590 -1.4280  0.4003  0.3332
 2656TIP3    H229384   5.020   5.503  16.497  2.2278  1.5764 -2.5181
 2657TIP3   OH229385   5.350   1.680  15.910  0.0035 -0.3146 -0.1360
 2657TIP3    H129386   5.261   1.709  15.892  0.3345  0.4591 -0.5814
 2657TIP3    H229387   5.340   1.607  15.970 -0.8925  0.4095  0.6313
 2658TIP3   OH229388   2.358   0.052  11.601  0.3813  0.6218 -0.0111
 2658TIP3    H129389   2.412   0.131  11.609  0.6193  0.4131  0.4858
 2658TIP3    H229390   2.324   0.038  11.690  0.9711 -0.2860  0.0761
 2659TIP3   OH229391   0.930   4.783  16.688 -0.1286  0.6147 -0.3835
 2659TIP3    H129392   1.021   4.813  16.686 -0.2557  0.9953 -0.3801
 2659TIP3    H229393   0.927   4.721  16.761  0.3649 -0.1689 -1.0023
 2660TIP3   OH229394   6.781   1.932   5.612  0.2314 -0.0193 -0.0116
 2660TIP3    H129395   6.764   1.907   5.521  2.3770 -0.2560 -0.4061
 2660TIP3    H229396   6.728   1.873   5.664 -1.2743  0.3131 -1.0860
 2661TIP3   OH229397   6.266   1.932  10.394  0.0759  0.0763 -0.3208
 2661TIP3    H129398   6.318   1.986  10.335  2.7157 -0.8823  1.0025
 2661TIP3    H229399   6.212   1.877  10.336  0.3452  1.2573 -1.7279
 2662TIP3   OH229400   4.114   6.512   3.147 -0.1147 -0.2188 -0.7894
 2662TIP3    H129401   4.071   6.555   3.222  0.6170  0.0070 -0.4962
 2662TIP3    H229402   4.105   6.575   3.075  0.3556  0.1375 -0.5401
 2663TIP3   OH229403   5.063   3.247  13.639  0.0870 -0.6412  0.4130
 2663TIP3    H129404   5.080   3.340  13.647  1.4083 -0.8845  0.7423
 2663TIP3    H229405   5.042   3.218  13.728  0.6405 -0.8106  0.4974
 2664TIP3   OH229406   2.178   0.200  13.135  0.0145 -0.0620  0.0076
 2664TIP3    H129407   2.251   0.162  13.183 -0.6502 -1.8085 -0.2849
 2664TIP3    H229408   2.115   0.128  13.127 -0.7258  0.7282 -1.7901
 2665TIP3   OH229409   4.395   4.202  10.918  0.3860 -0.2577 -0.1688
 2665TIP3    H129410   4.319   4.212  10.861  1.4192  1.6601 -1.3074
 2665TIP3    H229411   4.423   4.111  10.904 -0.7284 -0.5064 -0.9561
 2666TIP3   OH229412   6.116   6.440  13.288  0.5925 -0.3718 -0.1994
 2666TIP3    H129413   6.124   6.348  13.313 -0.5855 -1.1519 -2.4532
 2666TIP3    H229414   6.025   6.462  13.309  0.5389 -0.0748 -0.7314
 2667TIP3   OH229415   5.131   6.168   3.712 -0.4740 -0.4379  0.1033
 2667TIP3    H129416   5.197   6.140   3.649 -0.8987 -0.1416 -0.4861
 2667TIP3    H229417   5.047   6.148   3.669 -0.7750  0.3485  0.2999
 2668TIP3   OH229418   5.944   4.150  11.861 -0.0912 -0.0590 -0.5998
 2668TIP3    H129419   5.886   4.074  11.855 -0.2599  0.1412 -1.5227
 2668TIP3    H229420   5.885   4.226  11.863  0.0532  0.0495  0.7831
 2669TIP3   OH229421   5.797   2.527   5.306  0.0710 -0.4841  0.0249
 2669TIP3    H129422   5.761   2.496   5.223  0.9102  0.0977 -0.5741
 2669TIP3    H229423   5.872   2.581   5.281 -0.2869  0.5761  1.1148
 2670TIP3   OH229424   3.942   0.218  10.448  0.7060  0.4696 -0.0314
 2670TIP3    H129425   3.874   0.271  10.490 -0.5448 -0.4278 -0.8590
 2670TIP3    H229426   3.969   0.270  10.373 -0.8559 -0.2029 -1.1151
 2671TIP3   OH229427   4.616   4.205   1.748 -0.1854 -0.1805  0.4735
 2671TIP3    H129428   4.577   4.208   1.661 -1.4166 -0.8184  0.9783
 2671TIP3    H229429   4.630   4.296   1.772 -0.8935  0.0495  0.0472
 2672TIP3   OH229430   2.472   3.848   4.591 -0.4373  0.8695  0.0913
 2672TIP3    H129431   2.405   3.781   4.587  0.3831  0.0396 -0.0740
 2672TIP3    H229432   2.456   3.893   4.674  0.1191 -0.7365  1.1129
 2673TIP3   OH229433   0.293   0.095  16.276  0.6791 -0.1774 -0.1004
 2673TIP3    H129434   0.286   0.137  16.191 -0.3149  0.0797  0.1007
 2673TIP3    H229435   0.344   0.016  16.260  0.6778 -0.0191 -0.8934
 2674TIP3   OH229436   1.015   1.491  16.000  0.5565 -0.2512 -0.4030
 2674TIP3    H129437   1.105   1.504  15.969  0.9298 -1.1972  0.2430
 2674TIP3    H229438   1.024   1.431  16.074 -0.5564  0.0950  0.0314
 2675TIP3   OH229439   6.740   3.175   1.239 -0.4147  0.0825  0.0759
 2675TIP3    H129440   6.815   3.234   1.250 -0.6308  0.2490  0.7013
 2675TIP3    H229441   6.756   3.104   1.301 -0.8266  0.1724  0.2907
 2676TIP3   OH229442   4.723   0.892   5.074  0.0742 -0.0610  0.0986
 2676TIP3    H129443   4.813   0.860   5.077  0.3785  0.7942  2.1786
 2676TIP3    H229444   4.670   0.816   5.100 -0.1037 -1.1626 -3.0404
 2677TIP3   OH229445   6.351   6.534  15.267 -0.6399  0.4169 -0.0299
 2677TIP3    H129446   6.317   6.446  15.251 -2.4013  1.3294 -1.6283
 2677TIP3    H229447   6.446   6.523  15.269 -0.7202 -1.2188 -2.2098
 2678TIP3   OH229448   5.186   5.138  14.175  0.2149  0.0176  0.2597
 2678TIP3    H129449   5.274   5.167  14.154  1.1065 -0.7110  2.6361
 2678TIP3    H229450   5.165   5.074  14.108  1.7547 -0.2500  0.0023
 2679TIP3   OH229451   2.087   3.665  13.346  0.3152  0.3390 -0.2936
 2679TIP3    H129452   2.178   3.638  13.361 -0.0578 -1.2134 -0.7199
 2679TIP3    H229453   2.036   3.585  13.354 -0.8833  0.9542 -1.3640
 2680TIP3   OH229454   1.815   1.550  16.744  0.3002 -0.1607 -0.2282
 2680TIP3    H129455   1.762   1.627  16.723 -0.0874 -0.4031 -0.1384
 2680TIP3    H229456   1.755   1.476  16.735  0.5099 -0.3982  0.3138
 2681TIP3   OH229457   4.831   1.437   4.209  0.0511 -0.0158 -0.0335
 2681TIP3    H129458   4.785   1.375   4.266  0.1095 -0.3433 -0.3360
 2681TIP3    H229459   4.833   1.519   4.259 -2.4981  0.5705 -0.7468
 2682TIP3   OH229460   0.883   1.725   0.046 -0.0594 -0.6282  0.1160
 2682TIP3    H129461   0.802   1.684   0.077 -0.7887  1.0226  0.4915
 2682TIP3    H229462   0.953   1.668   0.079 -1.0575 -3.0547 -1.6576
 2683TIP3   OH229463   4.110   0.414   2.589  0.2854  0.5389 -0.5552
 2683TIP3    H129464   4.175   0.459   2.643 -0.6917  2.6054 -0.9867
 2683TIP3    H229465   4.123   0.452   2.501 -1.9606  1.5867 -0.4907
 2684TIP3   OH229466   3.163   0.598   2.451 -0.4620 -0.0943 -0.1162
 2684TIP3    H129467   3.068   0.587   2.446 -0.2718 -2.9260  1.1094
 2684TIP3    H229468   3.180   0.620   2.542  0.0892  0.7875 -0.4118
 2685TIP3   OH229469   6.309   2.252  15.425 -0.3666 -0.6051  0.8329
 2685TIP3    H129470   6.223   2.279  15.458  0.2499  0.4080  1.6554
 2685TIP3    H229471   6.338   2.325  15.370  0.6896 -0.1695  1.9188
 2686TIP3   OH229472   5.348   6.637  10.812  0.3947 -0.0553 -0.0125
 2686TIP3    H129473   5.302   6.577  10.870  1.6442 -1.4845 -0.4524
 2686TIP3    H229474   5.323   6.609  10.724  0.4007  0.5634 -0.2159
 2687TIP3   OH229475   5.233   6.610  12.797 -0.1699 -0.4724 -0.2480
 2687TIP3    H129476   5.151   6.624  12.844  0.7180  0.8173  1.0018
 2687TIP3    H229477   5.259   6.520  12.821 -0.8780 -0.6533 -0.1327
 2688TIP3   OH229478   1.909   2.016   2.635 -0.6355 -0.5105 -0.0035
 2688TIP3    H129479   1.882   1.945   2.577 -0.7363 -0.1320 -0.4178
 2688TIP3    H229480   1.980   2.059   2.589  0.5096 -1.3031  0.9373
 2689TIP3   OH229481   2.941   2.321   2.607 -0.6201 -0.2841  0.0054
 2689TIP3    H129482   2.998   2.292   2.679  0.1410  0.5319 -0.2522
 2689TIP3    H229483   2.943   2.417   2.612 -1.2364 -0.2338 -0.5846
 2690TIP3   OH229484   5.623   0.888  15.737  0.2783 -0.2169 -0.4255
 2690TIP3    H129485   5.668   0.931  15.810  0.4649 -1.8052  0.4338
 2690TIP3    H229486   5.558   0.831  15.778  1.0563 -1.9001 -1.4251
 2691TIP3   OH229487   5.452   3.034  16.300  0.4936  0.0193  0.0839
 2691TIP3    H129488   5.386   2.976  16.338  1.4321 -1.1055  0.0535
 2691TIP3    H229489   5.416   3.058  16.215  0.2330 -0.8068 -0.0508
 2692TIP3   OH229490   1.942   2.431   2.050 -0.0745  0.5402  0.7474
 2692TIP3    H129491   1.902   2.507   2.009  1.6308  1.9166  1.5106
 2692TIP3    H229492   2.025   2.463   2.085  0.8282 -1.7321  0.8746
 2693TIP3   OH229493   3.786   6.302  16.135  0.2890  0.3461  0.4770
 2693TIP3    H129494   3.823   6.382  16.171 -1.1928  0.9706  0.6779
 2693TIP3    H229495   3.802   6.236  16.203 -1.0086  1.1373  1.6098
 2694TIP3   OH229496   0.278   4.869   3.616  0.2142 -0.2980 -0.6523
 2694TIP3    H129497   0.202   4.902   3.568  0.4663  1.2834 -0.0337
 2694TIP3    H229498   0.350   4.875   3.554 -0.3540 -3.1736 -1.7288
 2695TIP3   OH229499   2.539   6.807  11.015 -0.4418  0.4216 -0.1975
 2695TIP3    H129500   2.447   6.824  11.032 -0.5023 -1.2789  1.6481
 2695TIP3    H229501   2.540   6.727  10.963 -0.0301 -0.5843  1.2919
 2696TIP3   OH229502   4.113   6.812  15.624  0.1391 -0.3111 -0.2059
 2696TIP3    H129503   4.159   6.808  15.708 -1.2440 -1.4169  0.5374
 2696TIP3    H229504   4.020   6.809  15.647 -0.3870  2.1359 -1.6422
 2697TIP3   OH229505   5.605   3.117  13.152 -0.3510  0.1059 -0.8129
 2697TIP3    H129506   5.539   3.067  13.200 -0.0565  0.7128  0.2662
 2697TIP3    H229507   5.576   3.113  13.061 -2.6591  1.4686 -0.2356
 2698TIP3   OH229508   4.768   5.948   3.118 -0.0743 -0.1604  0.1924
 2698TIP3    H129509   4.811   6.031   3.098 -0.6579  0.0770 -0.0871
 2698TIP3    H229510   4.835   5.897   3.163 -0.7374  1.8659  3.9201
 2699TIP3   OH229511   1.059   2.438   4.981  0.3492 -0.3454  0.2964
 2699TIP3    H129512   1.060   2.534   4.977  0.5783 -0.3419  0.3951
 2699TIP3    H229513   1.031   2.418   5.071  0.1008 -0.3741  0.2132
 2700TIP3   OH229514   4.412   6.632   2.466 -0.2900  0.6098 -0.3713
 2700TIP3    H129515   4.372   6.547   2.484  0.0481  1.0892  3.3819
 2700TIP3    H229516   4.501   6.625   2.502 -0.6744  2.8914  1.2119
 2701TIP3   OH229517   3.431   3.458   1.808  0.2197 -0.5891  0.3750
 2701TIP3    H129518   3.379   3.465   1.888  0.6359  0.7605  0.5502
 2701TIP3    H229519   3.374   3.492   1.739  0.6336  0.3231  0.4694
 2702TIP3   OH229520   3.983   5.087  11.131  0.6462 -0.4478  0.1198
 2702TIP3    H129521   3.919   5.057  11.067  0.8670 -1.7731  0.5033
 2702TIP3    H229522   4.055   5.025  11.124  2.0712  1.1785 -0.5179
 2703TIP3   OH229523   6.617   2.186   6.212  0.3504 -0.0205 -1.0280
 2703TIP3    H129524   6.683   2.213   6.148  0.6554  3.4245  0.5550
 2703TIP3    H229525   6.539   2.237   6.190 -0.2040 -0.3273  0.1249
 2704TIP3   OH229526   6.467   5.844  14.514 -0.7414  0.1907 -0.2729
 2704TIP3    H129527   6.409   5.857  14.590  0.0688 -2.8158  1.0461
 2704TIP3    H229528   6.429   5.769  14.468  0.8067 -0.3831 -0.6852
 2705TIP3   OH229529   5.365   4.835  13.018  0.3231  0.3913  0.2137
 2705TIP3    H129530   5.300   4.902  12.997 -0.6575 -1.3589 -2.9893
 2705TIP3    H229531   5.315   4.765  13.060  0.5372 -0.0820 -0.3106
 2706TIP3   OH229532   5.075   4.850   5.448 -0.1507 -0.2099 -0.8793
 2706TIP3    H129533   5.158   4.803   5.458  0.2348  0.7517  0.6548
 2706TIP3    H229534   5.099   4.942   5.443 -1.1804  0.2640  1.4625
 2707TIP3   OH229535   3.970   1.077  13.236 -0.0212  0.0848  0.6104
 2707TIP3    H129536   4.026   1.030  13.174  0.3082 -0.7553  1.5166
 2707TIP3    H229537   3.896   1.018  13.250  0.4229 -0.2130  1.8025
 2708TIP3   OH229538   5.748   2.929  16.430 -0.2367  0.2694  0.0143
 2708TIP3    H129539   5.729   2.912  16.522  1.4639 -1.7863  0.0727
 2708TIP3    H229540   5.695   2.864  16.383 -0.2731  0.5936 -0.3932
 2709TIP3   OH229541   0.476   5.872  16.894  0.2669  0.5003 -0.3047
 2709TIP3    H129542   0.487   5.796  16.837 -2.8657 -0.8069  0.5714
 2709TIP3    H229543   0.464   5.834  16.982  0.0990  2.0995  0.4062
 2710TIP3   OH229544   2.415   3.932  15.959  0.3917  0.2011 -0.2046
 2710TIP3    H129545   2.478   3.976  15.902 -1.0909  0.9952 -1.2972
 2710TIP3    H229546   2.384   4.002  16.017  1.4217 -0.4641  1.2280
 2711TIP3   OH229547   1.701   0.112  12.406  0.3552 -0.4162 -0.4287
 2711TIP3    H129548   1.725   0.202  12.430 -0.5677 -0.2225 -0.1723
 2711TIP3    H229549   1.758   0.091  12.332 -0.1685  0.7983 -1.2217
 2712TIP3   OH229550   1.058   4.625  14.449 -0.4901 -0.0210  0.7279
 2712TIP3    H129551   1.120   4.668  14.391 -0.5714 -2.8255 -1.6867
 2712TIP3    H229552   1.100   4.628  14.535  2.3188 -0.4276 -0.5039
 2713TIP3   OH229553   4.939   6.689  12.877  0.1345 -0.7192 -0.0175
 2713TIP3    H129554   4.938   6.637  12.796 -0.2543  0.8213 -1.0507
 2713TIP3    H229555   4.893   6.769  12.854 -0.1586 -0.3157  1.8181
 2714TIP3   OH229556   0.154   5.695   4.137 -0.0799 -0.2098  0.2887
 2714TIP3    H129557   0.123   5.605   4.147 -0.5140 -0.0757  0.1753
 2714TIP3    H229558   0.105   5.729   4.062 -1.4854  0.7912  1.5889
 2715TIP3   OH229559   0.830   0.471  14.042 -0.0279 -0.1163  0.1461
 2715TIP3    H129560   0.765   0.519  14.094 -1.5097 -1.7035 -0.1529
 2715TIP3    H229561   0.875   0.415  14.105  0.8601  0.7273  0.2934
 2716TIP3   OH229562   3.925   1.022   4.955  0.2029  0.6158 -0.4394
 2716TIP3    H129563   3.981   0.953   4.990 -0.4565  0.4057  0.2377
 2716TIP3    H229564   3.962   1.103   4.990 -0.2699  0.4280  0.5366
 2717TIP3   OH229565   3.025   5.616   1.342  0.0697  0.9375  0.1290
 2717TIP3    H129566   2.939   5.644   1.372  0.4341  0.7433  1.4262
 2717TIP3    H229567   3.087   5.666   1.396  0.7891  1.5034 -1.1776
 2718TIP3   OH229568   1.560   3.976   4.773 -0.3467 -0.1057  0.4385
 2718TIP3    H129569   1.651   4.008   4.775  0.1432 -1.2265 -1.1471
 2718TIP3    H229570   1.559   3.903   4.835  0.6651 -1.8849 -1.4926
 2719TIP3   OH229571   4.689   1.590   2.703  0.1600  0.2963  0.2454
 2719TIP3    H129572   4.723   1.520   2.758  0.8715  1.2516  1.0461
 2719TIP3    H229573   4.600   1.604   2.735 -0.1529 -0.5293 -0.2209
 2720TIP3   OH229574   0.313   4.219  16.595 -0.1101 -0.4697  0.2641
 2720TIP3    H129575   0.373   4.165  16.544  0.3882  0.2552  0.0630
 2720TIP3    H229576   0.335   4.309  16.570 -1.4680 -0.2021 -0.0182
 2721TIP3   OH229577   0.632   1.217  13.924  0.2007  0.1226  0.2100
 2721TIP3    H129578   0.558   1.253  13.875 -1.4847 -0.8422  1.8637
 2721TIP3    H229579   0.683   1.293  13.952 -0.9061  0.9263  0.1103
 2722TIP3   OH229580   5.048   2.207  12.469  0.7749 -0.4188 -0.3285
 2722TIP3    H129581   5.068   2.260  12.546 -2.3396 -2.1501  1.8467
 2722TIP3    H229582   4.959   2.230  12.445  1.2334 -0.8072 -2.7646
 2723TIP3   OH229583   6.716   4.509  13.726 -0.0018  0.4176  0.5512
 2723TIP3    H129584   6.649   4.572  13.751 -0.8795  0.1580 -1.0081
 2723TIP3    H229585   6.669   4.426  13.720  0.9294 -0.2130  1.5622
 2724TIP3   OH229586   5.285   4.562   1.680  0.2055  0.3776 -0.1498
 2724TIP3    H129587   5.299   4.656   1.668 -4.3081  1.3138  0.3926
 2724TIP3    H229588   5.296   4.526   1.592  2.5450  1.2087 -0.2774
 2725TIP3   OH229589   5.829   6.383  11.470  0.4539 -0.2743 -0.2229
 2725TIP3    H129590   5.925   6.379  11.465  0.4720 -1.5378  0.6704
 2725TIP3    H229591   5.800   6.299  11.433 -0.3823  0.5382 -1.5013
 2726TIP3   OH229592   1.618   0.715  10.423  0.1812 -0.6316 -0.7174
 2726TIP3    H129593   1.656   0.695  10.337  1.0206 -1.2614 -0.2149
 2726TIP3    H229594   1.666   0.792  10.454  1.2601 -1.5747  0.0252
 2727TIP3   OH229595   0.315   4.675  13.968  0.3062  0.2020 -0.1291
 2727TIP3    H129596   0.244   4.628  14.013  1.1649 -0.5436  0.4947
 2727TIP3    H229597   0.365   4.606  13.924  0.0535  0.8242 -1.4550
 2728TIP3   OH229598   4.342   5.538   0.788 -0.2128 -0.0847  0.5623
 2728TIP3    H129599   4.368   5.464   0.841 -1.3925 -0.9575 -0.0216
 2728TIP3    H229600   4.285   5.590   0.845  0.7799  0.5054  1.0383
 2729TIP3   OH229601   4.942   1.087   2.278 -0.5104 -0.0499  0.1090
 2729TIP3    H129602   5.016   1.146   2.292 -1.2667  0.5207  2.0825
 2729TIP3    H229603   4.878   1.140   2.230  0.2324 -0.4769 -1.4081
 2730TIP3   OH229604   2.014   5.961  11.116 -0.1884 -0.0934 -0.6343
 2730TIP3    H129605   1.986   5.918  11.197  1.3181 -0.7994 -0.4486
 2730TIP3    H229606   1.933   5.993  11.076 -0.9901  0.0833  1.0344
 2731TIP3   OH229607   6.401   3.082  16.307 -0.2445  0.2215 -0.0837
 2731TIP3    H129608   6.475   3.020  16.303 -1.6021 -1.5810  1.1181
 2731TIP3    H229609   6.439   3.162  16.344  1.5072  0.0562 -1.3699
 2732TIP3   OH229610   0.206   0.701  12.473 -0.3060  0.1396 -0.7105
 2732TIP3    H129611   0.141   0.751  12.424  0.4640  1.8640 -0.0589
 2732TIP3    H229612   0.284   0.703  12.418  0.3505  1.4763  0.2314
 2733TIP3   OH229613   5.205   5.575  12.902 -0.2402 -0.0227 -0.0121
 2733TIP3    H129614   5.171   5.560  12.990  1.1806  0.5412  0.6787
 2733TIP3    H229615   5.144   5.531  12.844 -0.9227 -0.8634  1.3044
 2734TIP3   OH229616   6.058   2.860  12.230 -0.6672  0.3899 -0.1604
 2734TIP3    H129617   6.056   2.840  12.324 -0.7903 -1.9379 -0.6081
 2734TIP3    H229618   5.986   2.810  12.193  0.0063  0.4639 -1.6334
 2735TIP3   OH229619   0.974   3.222   4.311 -0.1767 -0.2858  0.1712
 2735TIP3    H129620   0.924   3.298   4.279  0.2273 -0.1503 -0.1450
 2735TIP3    H229621   0.911   3.150   4.309 -0.2941 -0.1703 -0.4694
 2736TIP3   OH229622   3.564   0.772   2.718 -0.2740  0.4546  0.1295
 2736TIP3    H129623   3.546   0.860   2.685  0.5360 -0.2284 -2.3487
 2736TIP3    H229624   3.524   0.713   2.653 -0.5520 -1.0252  1.5740
 2737TIP3   OH229625   2.873   6.748   3.267  0.9094  0.2066 -0.0973
 2737TIP3    H129626   2.937   6.810   3.232  0.5689  0.7681  0.2532
 2737TIP3    H229627   2.916   6.663   3.261  2.0827  0.6828  1.0656
 2738TIP3   OH229628   0.208   5.583   3.637 -0.6278 -0.1110 -0.1242
 2738TIP3    H129629   0.161   5.601   3.555 -0.9636  0.7353  0.2448
 2738TIP3    H229630   0.284   5.642   3.634 -0.0163 -0.8935 -0.3417
 2739TIP3   OH229631   4.809   4.272  16.817 -0.3430 -0.3486 -0.1018
 2739TIP3    H129632   4.901   4.245  16.813  0.5459  2.3196 -0.0620
 2739TIP3    H229633   4.793   4.286  16.910  0.2267  1.9562 -0.2624
 2740TIP3   OH229634   1.274   6.561  11.379 -0.4656  0.7622  0.0704
 2740TIP3    H129635   1.310   6.647  11.360 -0.6102  0.5697 -1.2231
 2740TIP3    H229636   1.194   6.556  11.326 -0.5786 -0.0753  0.2946
 2741TIP3   OH229637   4.255   1.610   0.023 -0.0994 -0.0181  0.0892
 2741TIP3    H129638   4.224   1.562  -0.053  1.9176  0.9628 -1.4704
 2741TIP3    H229639   4.178   1.655   0.057 -0.9458  0.0294 -1.7911
 2742TIP3   OH229640   5.087   4.975   0.983 -0.7959 -0.5198 -0.0188
 2742TIP3    H129641   5.003   4.972   0.936 -1.3713  1.3396  0.8013
 2742TIP3    H229642   5.070   4.930   1.066 -0.7952 -0.6810 -0.1049
 2743TIP3   OH229643   1.730   3.779   0.515  0.3888  0.2290  0.3632
 2743TIP3    H129644   1.749   3.729   0.436  2.5798  0.5165  0.6403
 2743TIP3    H229645   1.814   3.784   0.561 -0.2214  2.3966  1.3656
 2744TIP3   OH229646   2.641   0.873   1.117  0.5635  0.0495 -0.0700
 2744TIP3    H129647   2.681   0.952   1.154  0.3471 -0.6941  1.8788
 2744TIP3    H229648   2.551   0.875   1.149  0.6747 -1.1833  0.3773
 2745TIP3   OH229649   3.546   4.807   5.226  0.4395 -0.4840  0.1298
 2745TIP3    H129650   3.511   4.840   5.143 -0.8719 -0.6606  0.5889
 2745TIP3    H229651   3.607   4.737   5.201  2.6833  1.6462 -0.8373
 2746TIP3   OH229652   4.512   5.235  11.340  0.4070 -0.5909 -0.4781
 2746TIP3    H129653   4.519   5.307  11.402  0.1860 -0.7368 -0.2825
 2746TIP3    H229654   4.518   5.277  11.254 -2.2415  0.0255 -0.4783
 2747TIP3   OH229655   1.938   2.435  12.278  0.0923  0.1577  0.5282
 2747TIP3    H129656   1.897   2.521  12.279 -0.5021 -0.1244  0.3669
 2747TIP3    H229657   1.926   2.401  12.367 -0.1638  0.0114  0.4387
 2748TIP3   OH229658   5.315   2.036  15.144 -0.1851  0.0417 -0.3906
 2748TIP3    H129659   5.258   2.062  15.071 -4.2513 -0.2645  2.3767
 2748TIP3    H229660   5.311   1.940  15.144  0.5648  0.0030 -0.2681
 2749TIP3   OH229661   0.083   3.140  10.678  0.0713  0.3535 -0.6045
 2749TIP3    H129662   0.007   3.151  10.620 -0.4785 -0.0172  0.0384
 2749TIP3    H229663   0.122   3.057  10.650 -0.1918  0.1763 -0.4557
 2750TIP3   OH229664   5.884   6.498  12.557  0.3957  0.4135 -0.9339
 2750TIP3    H129665   5.842   6.521  12.641  2.5343 -2.2765  1.0251
 2750TIP3    H229666   5.950   6.566  12.545  0.3232  0.6227 -0.2451
 2751TIP3   OH229667   4.796   4.324   2.964  0.1500  0.5931 -0.2456
 2751TIP3    H129668   4.876   4.327   2.912 -0.0395 -2.3042 -0.8293
 2751TIP3    H229669   4.727   4.353   2.905  0.1906 -1.0337 -1.1372
 2752TIP3   OH229670   3.465   3.851  13.765 -0.6066  0.4038  0.1111
 2752TIP3    H129671   3.393   3.865  13.827 -0.5912  0.3598  0.1388
 2752TIP3    H229672   3.431   3.787  13.703 -0.2507 -0.3625  0.6900
 2753TIP3   OH229673   1.064   1.643   4.277 -0.0982  0.3533  0.1840
 2753TIP3    H129674   1.006   1.569   4.260 -3.3230  3.2530 -3.4384
 2753TIP3    H229675   1.127   1.641   4.205 -0.4400  1.2730 -0.1558
 2754TIP3   OH229676   2.095   5.308   1.333 -0.1265  0.0521 -0.1430
 2754TIP3    H129677   2.050   5.283   1.252 -0.6161  0.5685 -0.0362
 2754TIP3    H229678   2.162   5.371   1.305  1.0439 -1.2681 -0.3994
 2755TIP3   OH229679   6.011   3.073  13.117 -0.2357 -0.2973  0.1374
 2755TIP3    H129680   6.008   3.080  13.212 -1.1824 -1.0971  0.1821
 2755TIP3    H229681   6.009   3.163  13.086 -0.6661 -0.0524  0.8664
 2756TIP3   OH229682   3.971   2.156   1.364 -0.1968  0.0135  0.1339
 2756TIP3    H129683   3.901   2.167   1.300 -0.2769 -1.3456 -0.0467
 2756TIP3    H229684   4.049   2.138   1.312  0.1860  1.0094  0.3509
 2757TIP3   OH229685   2.132   5.900   4.935 -0.5259  0.2293  0.0025
 2757TIP3    H129686   2.156   5.942   5.018 -0.2882 -2.5352  1.4695
 2757TIP3    H229687   2.036   5.899   4.936 -0.5265 -0.0857  0.4628
 2758TIP3   OH229688   4.092   2.520  14.318  0.0462  0.7092 -0.5356
 2758TIP3    H129689   4.119   2.439  14.276  1.9442  1.2094 -0.3853
 2758TIP3    H229690   3.999   2.508  14.338  0.3752 -1.5355 -0.1966
 2759TIP3   OH229691   1.147   4.015   5.977 -0.2248 -0.9709 -0.0260
 2759TIP3    H129692   1.162   4.057   6.062  1.2071 -0.3891 -0.5206
 2759TIP3    H229693   1.220   3.954   5.968  0.9784  0.6192 -1.7842
 2760TIP3   OH229694   0.146   1.354   3.816 -0.2216 -0.2849  0.1930
 2760TIP3    H129695   0.203   1.358   3.739  0.0499  2.4076  0.4455
 2760TIP3    H229696   0.191   1.294   3.876  0.8658 -0.4517 -0.7540
 2761TIP3   OH229697   0.039   0.707  13.110 -0.2303 -0.3315 -0.0908
 2761TIP3    H129698   0.077   0.668  13.032 -2.4984 -1.0360 -0.9107
 2761TIP3    H229699   0.037   0.635  13.174  0.5123 -0.0692  0.2500
 2762TIP3   OH229700   4.907   5.468   3.908 -0.4989 -0.2579 -0.0483
 2762TIP3    H129701   4.868   5.553   3.928 -0.5084 -0.1864 -0.3595
 2762TIP3    H229702   4.969   5.452   3.979 -0.7728 -0.1660  0.2109
 2763TIP3   OH229703   5.853   3.381   1.050 -0.5563 -0.8432  0.0442
 2763TIP3    H129704   5.813   3.461   1.083 -0.4390 -0.1203 -1.4945
 2763TIP3    H229705   5.784   3.340   0.997  0.0167 -0.7366 -0.7931
 2764TIP3   OH229706   5.772   2.739   4.772 -0.0828 -0.0269 -0.1932
 2764TIP3    H129707   5.799   2.650   4.750  2.5789  0.2292  1.5504
 2764TIP3    H229708   5.794   2.790   4.694 -0.7539 -0.7293 -0.8597
 2765TIP3   OH229709   6.052   6.033  15.726  0.8541 -0.1810  0.3430
 2765TIP3    H129710   6.126   6.092  15.712  0.1714  0.6365  0.0848
 2765TIP3    H229711   6.039   5.990  15.641  0.1673  0.7034 -0.0060
 2766TIP3   OH229712   0.896   4.582   4.484 -0.0107  0.3007  0.5385
 2766TIP3    H129713   0.892   4.676   4.499  0.5735  0.3802  0.2158
 2766TIP3    H229714   0.805   4.553   4.489 -0.7228  1.4394 -2.9921
 2767TIP3   OH229715   6.509   6.703   5.698 -0.0736 -0.0996 -0.2434
 2767TIP3    H129716   6.578   6.769   5.709  1.0277 -1.0191 -1.2661
 2767TIP3    H229717   6.493   6.670   5.786  1.4351 -0.4512 -0.0660
 2768TIP3   OH229718   3.711   6.217   0.935 -0.0691 -0.2651  0.3067
 2768TIP3    H129719   3.641   6.227   0.999  0.7550 -0.6232  1.2754
 2768TIP3    H229720   3.738   6.306   0.913 -1.6037 -0.0655 -0.9809
 2769TIP3   OH229721   5.038   0.296   6.110  0.4224  0.3105  0.1451
 2769TIP3    H129722   5.086   0.234   6.164 -0.3611  1.0178  1.7289
 2769TIP3    H229723   5.105   0.340   6.058  1.0601 -1.2705 -0.4391
 2770TIP3   OH229724   0.770   6.271   4.023  0.1187  0.1126 -0.8193
 2770TIP3    H129725   0.697   6.269   3.961 -0.5013  0.4044 -0.1148
 2770TIP3    H229726   0.771   6.183   4.061 -1.1468  0.6604  0.5938
 2771TIP3   OH229727   1.556   3.391  11.158  0.6012  0.7270 -0.9399
 2771TIP3    H129728   1.463   3.389  11.135  1.1772  2.0921 -3.8614
 2771TIP3    H229729   1.559   3.440  11.241 -1.3659 -0.9151  0.1814
 2772TIP3   OH229730   3.583   4.344  12.663 -0.1378 -0.0386  0.8633
 2772TIP3    H129731   3.669   4.308  12.684  0.6410  0.8612 -0.5959
 2772TIP3    H229732   3.521   4.275  12.686  1.0190 -0.9084  1.4292
 2773TIP3   OH229733   1.210   5.117   5.432  0.7965 -0.2219  0.1128
 2773TIP3    H129734   1.144   5.154   5.491  0.8746 -0.5076  0.3850
 2773TIP3    H229735   1.274   5.187   5.420 -0.5483  0.7786 -1.7604
 2774TIP3   OH229736   5.259   5.620  14.115  0.1460 -0.3602  0.7204
 2774TIP3    H129737   5.195   5.665  14.169 -0.2403  1.4047 -1.0781
 2774TIP3    H229738   5.297   5.553  14.172 -1.6330  0.0809  2.5116
 2775TIP3   OH229739   0.408   4.286   3.080  0.1591 -0.7161 -0.4688
 2775TIP3    H129740   0.380   4.203   3.043 -0.6555 -0.6493 -0.0205
 2775TIP3    H229741   0.328   4.338   3.088  1.0457  1.6376 -4.3608
 2776TIP3   OH229742   6.775   1.398   4.708  0.4131 -0.2828  0.0847
 2776TIP3    H129743   6.816   1.420   4.624  0.3610  0.8679  0.3544
 2776TIP3    H229744   6.703   1.339   4.684 -0.5662  1.2368 -0.8570
 2777TIP3   OH229745   2.173   5.664  13.986 -0.0199 -0.3754 -0.5235
 2777TIP3    H129746   2.098   5.632  13.938  0.4283 -1.9740 -0.2287
 2777TIP3    H229747   2.236   5.691  13.919  0.7137 -2.8403 -0.9368
 2778TIP3   OH229748   4.859   3.992  15.117  0.5436  0.3848  0.0209
 2778TIP3    H129749   4.928   3.930  15.141 -0.0040  0.0037  0.6211
 2778TIP3    H229750   4.792   3.938  15.074 -0.2305  0.4349  1.1298
 2779TIP3   OH229751   3.037   4.356  13.722  0.0983  0.2614 -0.2616
 2779TIP3    H129752   3.061   4.314  13.805  3.2311  1.8242 -0.2443
 2779TIP3    H229753   2.980   4.292  13.679  0.0446 -1.4734  2.1824
 2780TIP3   OH229754   6.664   2.228   5.200 -0.3220 -0.8530  0.2395
 2780TIP3    H129755   6.652   2.230   5.295  0.3267 -2.6345  0.4019
 2780TIP3    H229756   6.601   2.162   5.170 -1.9074  1.0489 -0.8566
 2781TIP3   OH229757   1.059   6.055   0.477 -0.1232 -0.0766 -0.4259
 2781TIP3    H129758   0.974   6.032   0.438 -0.3755 -0.0973  0.1243
 2781TIP3    H229759   1.105   5.971   0.484 -0.1554 -0.1004 -0.4963
 2782TIP3   OH229760   2.791   4.924   4.474 -0.4536 -0.3490  0.0191
 2782TIP3    H129761   2.883   4.934   4.495 -0.7904  1.2818  0.8732
 2782TIP3    H229762   2.773   4.994   4.411 -1.3860  0.1857  0.8547
 2783TIP3   OH229763   1.693   4.194  14.827 -0.2385  0.3188 -0.4513
 2783TIP3    H129764   1.732   4.107  14.818  0.2718  0.6138 -1.1820
 2783TIP3    H229765   1.668   4.199  14.920  1.1168 -0.0408 -0.0318
 2784TIP3   OH229766   5.697   4.077  14.293  0.1499  0.2661  0.5190
 2784TIP3    H129767   5.737   3.993  14.271  1.3118  1.0850 -0.6773
 2784TIP3    H229768   5.771   4.137  14.304 -0.6661  1.2230  0.9432
 2785TIP3   OH229769   6.741   2.501   0.688  0.6957 -0.1399  0.1240
 2785TIP3    H129770   6.665   2.527   0.637  0.4567 -0.5988  0.2377
 2785TIP3    H229771   6.769   2.418   0.650  2.8078  1.3014 -1.6824
 2786TIP3   OH229772   1.704   5.430   4.145  0.4244 -0.3039  0.1656
 2786TIP3    H129773   1.611   5.414   4.123  0.9079 -1.0212 -1.5993
 2786TIP3    H229774   1.730   5.353   4.195  0.5509 -1.1024 -1.0726
 2787TIP3   OH229775   0.226   4.077  11.532 -0.3593  0.2527  0.3038
 2787TIP3    H129776   0.275   4.115  11.459 -1.2609  0.2079 -0.3356
 2787TIP3    H229777   0.294   4.044  11.591  0.4265 -2.3121 -1.8643
 2788TIP3   OH229778   5.681   0.124   5.935 -0.0717 -1.2109 -0.0745
 2788TIP3    H129779   5.602   0.080   5.968 -0.1533 -0.6514  0.4905
 2788TIP3    H229780   5.747   0.108   6.003  0.3609 -1.8188 -0.6234
 2789TIP3   OH229781   1.436   4.362   1.558  0.6027 -0.3241 -0.7907
 2789TIP3    H129782   1.454   4.270   1.541  2.7925 -0.1810  0.3388
 2789TIP3    H229783   1.349   4.363   1.598  0.9113 -1.9969 -0.0206
 2790TIP3   OH229784   3.703   4.322  14.128 -0.0255 -0.6777 -0.2204
 2790TIP3    H129785   3.618   4.278  14.132 -0.0057 -0.6822  0.2449
 2790TIP3    H229786   3.712   4.349  14.037 -0.4118 -0.9051 -0.3288
 2791TIP3   OH229787   3.203   4.719   0.631 -0.6292 -0.3003 -0.4942
 2791TIP3    H129788   3.225   4.699   0.722 -2.6770 -0.8957 -0.0811
 2791TIP3    H229789   3.178   4.811   0.631  1.7905  0.4534 -1.0144
 2792TIP3   OH229790   4.460   0.599  12.561 -0.0824 -0.3192  0.2392
 2792TIP3    H129791   4.540   0.649  12.581  0.2514  0.3238 -2.3593
 2792TIP3    H229792   4.458   0.531  12.628  2.3562 -0.0322  0.7280
 2793TIP3   OH229793   0.596   0.458   3.318  0.6859 -0.1088  0.5073
 2793TIP3    H129794   0.539   0.509   3.376 -0.4790 -0.9294  0.1268
 2793TIP3    H229795   0.605   0.511   3.240 -0.7725 -0.5787 -0.0102
 2794TIP3   OH229796   4.146   0.079   4.431  0.3042 -0.4037  0.1363
 2794TIP3    H129797   4.132   0.047   4.520 -0.5118  1.0649  0.5777
 2794TIP3    H229798   4.113   0.009   4.375  1.0675 -1.4613  0.9657
 2795TIP3   OH229799   4.468   0.349  12.682 -0.3059  0.1787  0.3385
 2795TIP3    H129800   4.462   0.399  12.763  0.4775 -1.3235  1.3790
 2795TIP3    H229801   4.414   0.271  12.698  1.6591 -1.2620  0.3460
 2796TIP3   OH229802   2.852   1.703  14.207  0.6297 -0.2063  0.2057
 2796TIP3    H129803   2.843   1.753  14.126  1.0504 -0.3460  0.0697
 2796TIP3    H229804   2.877   1.769  14.272 -1.1968  0.1640  0.5668
 2797TIP3   OH229805   5.478   1.676  13.542  0.2030  0.0479  0.3757
 2797TIP3    H129806   5.572   1.667  13.523  0.5381  1.8844  1.0271
 2797TIP3    H229807   5.470   1.759  13.588 -1.9632  0.7592 -1.0913
 2798TIP3   OH229808   4.935   5.409  13.697  0.7290  0.1070 -0.2136
 2798TIP3    H129809   4.894   5.496  13.698 -0.0412 -0.2511 -0.0098
 2798TIP3    H229810   4.929   5.381  13.606 -1.6540 -0.9269  0.1792
 2799TIP3   OH229811   3.326   4.754   2.799  0.3601 -0.4451 -0.2895
 2799TIP3    H129812   3.392   4.749   2.868  0.4240 -1.6841 -0.4222
 2799TIP3    H229813   3.376   4.774   2.720  0.4987 -0.7221 -0.2726
 2800TIP3   OH229814   3.195   2.562   2.929  0.0635 -0.4713  0.4203
 2800TIP3    H129815   3.241   2.586   2.849 -0.6020  0.3358  0.2683
 2800TIP3    H229816   3.187   2.467   2.925  0.3294 -0.4634 -0.3130
 2801TIP3   OH229817   1.926   4.612  11.479  0.6355 -0.6124 -0.1200
 2801TIP3    H129818   1.937   4.530  11.528  1.2680 -0.4256  0.0535
 2801TIP3    H229819   1.843   4.648  11.512  1.4447 -0.0802  1.4442
 2802TIP3   OH229820   1.883   1.478   3.373  0.1099 -0.2234 -0.0298
 2802TIP3    H129821   1.960   1.466   3.428  0.4994 -0.7785 -0.6638
 2802TIP3    H229822   1.889   1.568   3.342  0.2457 -0.1151  0.3120
 2803TIP3   OH229823   5.506   3.519   5.182 -0.1301 -0.4268  0.4676
 2803TIP3    H129824   5.572   3.485   5.243  0.0826 -0.7788  0.0454
 2803TIP3    H229825   5.472   3.441   5.137  0.4294 -0.0752 -0.5825
 2804TIP3   OH229826   3.574   0.489  11.267 -0.3506  0.0589 -0.1458
 2804TIP3    H129827   3.570   0.582  11.291 -2.1393 -0.2731  1.0574
 2804TIP3    H229828   3.489   0.472  11.226  1.0174 -0.4265 -3.0505
 2805TIP3   OH229829   5.793   2.196  16.207 -0.1211 -0.3678  0.4727
 2805TIP3    H129830   5.815   2.123  16.265  1.4363 -1.0580 -0.9172
 2805TIP3    H229831   5.839   2.177  16.125 -2.3582  0.4912 -1.0828
 2806TIP3   OH229832   6.533   6.389  16.368  0.1211 -0.5332  0.0193
 2806TIP3    H129833   6.572   6.361  16.451 -0.3322 -0.5041  0.2464
 2806TIP3    H229834   6.513   6.307  16.322  1.0465 -0.5424 -0.3864
 2807TIP3   OH229835   0.272   1.928  14.123  0.0805  0.2169  0.1286
 2807TIP3    H129836   0.361   1.956  14.141 -0.2253  1.5662 -0.3631
 2807TIP3    H229837   0.268   1.920  14.027 -0.1424 -0.5020  0.1892
 2808TIP3   OH229838   0.374   3.761   5.225 -0.1417 -0.3740 -0.0152
 2808TIP3    H129839   0.388   3.783   5.317  1.1044 -0.4292 -0.1709
 2808TIP3    H229840   0.282   3.737   5.219 -0.0660 -1.0526  1.3555
 2809TIP3   OH229841   1.490   2.653   3.089 -0.3800  0.1141  0.1916
 2809TIP3    H129842   1.552   2.629   3.021 -0.1999 -0.8809  0.6901
 2809TIP3    H229843   1.531   2.726   3.135  0.9905 -1.2284  1.2264
 2810TIP3   OH229844   2.417   1.199   1.236  0.0843 -0.0662 -1.2755
 2810TIP3    H129845   2.435   1.109   1.265 -0.8409 -0.3022 -1.3807
 2810TIP3    H229846   2.370   1.188   1.154  0.6381  0.5453 -1.6769
 2811TIP3   OH229847   5.495   6.355  15.777 -0.5403  0.6335  0.3523
 2811TIP3    H129848   5.412   6.308  15.778 -0.5529  0.6394 -0.4680
 2811TIP3    H229849   5.558   6.292  15.742 -0.7899  1.5765 -1.9396
 2812TIP3   OH229850   3.137   3.302  16.461  0.4187  0.4200  0.9061
 2812TIP3    H129851   3.177   3.284  16.376 -1.1615  1.7651 -0.1940
 2812TIP3    H229852   3.174   3.386  16.488 -0.5721  0.9862  0.5511
 2813TIP3   OH229853   0.276   1.311  16.027  0.3255  0.2258  0.1875
 2813TIP3    H129854   0.280   1.317  15.931 -2.1955 -1.8116 -0.1545
 2813TIP3    H229855   0.192   1.351  16.049  0.8021  0.4986  1.5590
 2814TIP3   OH229856   0.750   2.267  12.050 -0.0534  0.4158 -0.3466
 2814TIP3    H129857   0.710   2.312  11.975  0.2106  1.9614  0.3992
 2814TIP3    H229858   0.830   2.230  12.015 -0.1848  0.6870 -0.9530
 2815TIP3   OH229859   3.772   6.593  12.992 -0.3947 -0.5684  0.1689
 2815TIP3    H129860   3.769   6.553  12.906  0.1895 -0.5663  0.1427
 2815TIP3    H229861   3.682   6.622  13.009 -0.8487 -1.9593  0.2374
 2816TIP3   OH229862   2.189   3.676  15.310  0.0518 -0.3282  0.7305
 2816TIP3    H129863   2.107   3.677  15.260 -0.4896 -0.6290  1.5906
 2816TIP3    H229864   2.178   3.604  15.373  0.9575 -0.3398  0.8826
 2817TIP3   OH229865   0.244   3.928  15.276  0.4336 -0.6026  0.2148
 2817TIP3    H129866   0.295   3.863  15.324  0.2704 -0.3974  0.6745
 2817TIP3    H229867   0.261   3.909  15.184 -1.2145 -2.6169  0.2594
 2818TIP3   OH229868   0.411   6.696   3.368 -0.1538  0.2365  0.6904
 2818TIP3    H129869   0.425   6.784   3.333  0.8120  0.5171  1.7382
 2818TIP3    H229870   0.484   6.645   3.335 -1.4395 -0.5669 -1.0644
 2819TIP3   OH229871   3.268   5.733  15.673 -0.0817  0.0753  0.1796
 2819TIP3    H129872   3.238   5.806  15.728 -1.2947  0.1439 -0.5460
 2819TIP3    H229873   3.335   5.689  15.727 -1.9123 -0.4571  2.1719
 2820TIP3   OH229874   0.621   1.826   2.369 -0.4216  0.7845 -0.1532
 2820TIP3    H129875   0.650   1.893   2.430 -2.6583  2.5137 -0.8592
 2820TIP3    H229876   0.667   1.845   2.287 -2.7423  3.0455 -1.0499
 2821TIP3   OH229877   0.642   3.813   4.304  0.4153 -0.2542 -0.5407
 2821TIP3    H129878   0.631   3.735   4.359  2.7497  0.8032  1.6313
 2821TIP3    H229879   0.601   3.883   4.353  0.3591  0.3076 -1.3658
 2822TIP3   OH229880   2.179   3.170  16.828  0.2220 -0.5179 -0.4473
 2822TIP3    H129881   2.261   3.127  16.853  1.1485  0.6406 -1.3563
 2822TIP3    H229882   2.110   3.112  16.861  1.3994 -1.6721  0.0757
 2823TIP3   OH229883   0.210   0.045  16.525  0.0650  0.3605  0.3165
 2823TIP3    H129884   0.266  -0.025  16.558 -0.7167 -0.2299  0.4335
 2823TIP3    H229885   0.234   0.054  16.433  0.5289  0.2933  0.4298
 2824TIP3   OH229886   5.223   2.896  16.370 -0.4022 -0.4043  0.6356
 2824TIP3    H129887   5.187   2.943  16.294 -0.1697 -0.0909  0.7185
 2824TIP3    H229888   5.175   2.813  16.371  0.0607 -0.6985 -0.2527
 2825TIP3   OH229889   4.328   0.268  14.633  0.4131  0.4510 -0.6378
 2825TIP3    H129890   4.368   0.207  14.571 -0.4761  0.3200 -1.0960
 2825TIP3    H229891   4.235   0.264  14.614  0.0502 -0.0027  1.0816
 2826TIP3   OH229892   1.288   5.028   0.195 -0.1470 -0.4561 -0.0133
 2826TIP3    H129893   1.251   5.106   0.235  2.3559  1.4064 -1.0259
 2826TIP3    H229894   1.212   4.975   0.170 -2.1890  3.1374 -2.2139
 2827TIP3   OH229895   0.634   4.837  11.004 -0.4110  0.0596  0.2502
 2827TIP3    H129896   0.704   4.791  10.958  0.3826 -0.9555  2.3583
 2827TIP3    H229897   0.571   4.859  10.935  0.5407 -1.6524 -1.2614
 2828TIP3   OH229898   4.512   4.823   4.926 -0.0467  0.9200  0.5700
 2828TIP3    H129899   4.591   4.834   4.872 -0.0740 -1.4119 -0.0308
 2828TIP3    H229900   4.445   4.873   4.880 -0.5529 -2.4058 -2.7928
 2829TIP3   OH229901   0.950   5.679   0.706 -0.0248 -0.1782 -0.1917
 2829TIP3    H129902   0.916   5.590   0.698  0.6302 -0.4217 -0.3622
 2829TIP3    H229903   0.888   5.733   0.656  0.2104 -0.7094 -1.0847
 2830TIP3   OH229904   6.456   4.806   3.463 -0.4655  0.1930  0.2320
 2830TIP3    H129905   6.441   4.792   3.370  0.2393 -0.8112  0.2606
 2830TIP3    H229906   6.480   4.899   3.470 -0.1784  0.1888 -0.6280
 2831TIP3   OH229907   6.133   3.738  16.141 -0.2893 -0.4169  0.0903
 2831TIP3    H129908   6.178   3.757  16.059 -0.5250 -1.4513 -0.2979
 2831TIP3    H229909   6.158   3.648  16.161 -1.2472 -0.6067  0.4826
 2832TIP3   OH229910   1.340   0.647  10.494 -0.2763 -0.0646 -0.1393
 2832TIP3    H129911   1.290   0.569  10.518 -0.8188  0.2296 -0.2771
 2832TIP3    H229912   1.427   0.615  10.473  0.1439 -0.3903  1.8838
 2833TIP3   OH229913   0.120   4.151   4.358 -0.0323 -0.1965  0.3375
 2833TIP3    H129914   0.208   4.114   4.351  0.3771  0.7980  0.1370
 2833TIP3    H229915   0.115   4.215   4.288 -0.6837  0.2445  0.7756
 2834TIP3   OH229916   1.815   6.353  12.667 -0.1041  0.0109  0.5045
 2834TIP3    H129917   1.911   6.351  12.677 -0.0382 -1.0594 -0.2056
 2834TIP3    H229918   1.787   6.427  12.721  1.0945  0.1400  0.9776
 2835TIP3   OH229919   5.953   1.311  12.846 -0.3657  0.1942  0.4202
 2835TIP3    H129920   6.044   1.286  12.827  0.0086 -0.6781  3.0050
 2835TIP3    H229921   5.947   1.403  12.819  1.7867  0.7610  1.6976
 2836TIP3   OH229922   2.368   5.428  14.944  0.8234 -0.1764 -0.3223
 2836TIP3    H129923   2.421   5.502  14.913  1.7748 -0.3918  0.7165
 2836TIP3    H229924   2.309   5.409  14.872  1.6498  0.5705 -1.2242
 2837TIP3   OH229925   0.313   6.336   3.544 -0.5763 -0.2458 -0.2261
 2837TIP3    H129926   0.263   6.271   3.495 -0.5969  0.3640 -1.0278
 2837TIP3    H229927   0.404   6.319   3.521 -0.2534 -1.9500  1.9350
 2838TIP3   OH229928   1.806   2.451  15.545 -0.3175  0.8661  0.1223
 2838TIP3    H129929   1.877   2.406  15.499  1.4254  2.4670  1.1096
 2838TIP3    H229930   1.829   2.544  15.540 -2.2024  1.4114  0.7368
 2839TIP3   OH229931   6.784   6.056  14.963  0.0175  0.0994 -0.2011
 2839TIP3    H129932   6.807   6.145  14.988 -0.3430  0.1779 -0.1356
 2839TIP3    H229933   6.862   6.021  14.921  0.1763  0.4290 -0.1793
 2840TIP3   OH229934   1.604   5.578   2.781 -0.3612  0.2403  0.7900
 2840TIP3    H129935   1.524   5.620   2.750 -0.8400 -1.4631 -0.4561
 2840TIP3    H229936   1.576   5.491   2.809  1.0030 -0.2678  0.6437
 2841TIP3   OH229937   0.902   5.710   2.758 -0.2719 -0.6970 -0.5154
 2841TIP3    H129938   0.905   5.694   2.664 -0.4315  1.6488 -0.9858
 2841TIP3    H229939   0.989   5.686   2.790  0.4925  0.4576 -1.6525
 2842TIP3   OH229940   0.932   3.354  16.970  0.1605  0.5712 -0.2404
 2842TIP3    H129941   0.993   3.353  17.044 -0.2444 -0.4650  0.1062
 2842TIP3    H229942   0.983   3.388  16.897  1.0255  0.1408  0.1487
 2843TIP3   OH229943   6.471   5.148  14.336 -0.6201  0.2371  0.3105
 2843TIP3    H129944   6.555   5.134  14.293  1.3911 -2.4877  4.5033
 2843TIP3    H229945   6.427   5.064  14.333 -1.2508  0.4704  1.7601
 2844TIP3   OH229946   1.218   1.673  16.354 -0.1491 -0.3247 -0.2397
 2844TIP3    H129947   1.174   1.590  16.336 -0.6559  0.0412 -0.6898
 2844TIP3    H229948   1.302   1.666  16.309 -0.4671 -0.3264 -0.8385
 2845TIP3   OH229949   0.550   5.190  11.054  0.5224 -0.4766  0.0087
 2845TIP3    H129950   0.508   5.187  11.140 -0.5634  1.1398 -0.4269
 2845TIP3    H229951   0.631   5.239  11.069  0.0957  0.2368  0.0410
 2846TIP3   OH229952   6.005   2.635   2.644  0.2268  0.6597  0.0867
 2846TIP3    H129953   6.024   2.697   2.574 -0.6966  0.7097 -0.1380
 2846TIP3    H229954   6.080   2.641   2.702  0.3617  1.6655 -0.1635
 2847TIP3   OH229955   3.967   6.497  11.887 -0.5008 -0.8594 -0.2124
 2847TIP3    H129956   3.939   6.516  11.797 -1.2809 -2.1989 -0.2804
 2847TIP3    H229957   4.011   6.412  11.880 -1.8016 -1.6667  0.8604
 2848TIP3   OH229958   0.022   5.195  13.337  0.1843 -0.1157  0.0958
 2848TIP3    H129959  -0.001   5.118  13.388 -1.8536  0.5762  0.3384
 2848TIP3    H229960   0.023   5.164  13.246  0.3766 -0.6419  0.2770
 2849TIP3   OH229961   3.889   5.760   0.940  0.4357 -0.5974  0.2229
 2849TIP3    H129962   3.811   5.705   0.928 -0.5079  0.6963  0.1423
 2849TIP3    H229963   3.960   5.698   0.954 -0.5534 -1.8373 -0.0005
 2850TIP3   OH229964   0.224   4.277  11.951 -0.3130  0.0079 -0.6027
 2850TIP3    H129965   0.307   4.267  11.905 -0.1111  1.4939 -0.6087
 2850TIP3    H229966   0.203   4.189  11.982  1.0694 -0.4595 -0.9309
 2851TIP3   OH229967   3.630   5.083   1.695 -0.4459  0.1234 -0.1494
 2851TIP3    H129968   3.554   5.023   1.694 -0.5975  0.1594  2.1843
 2851TIP3    H229969   3.611   5.144   1.767  2.8272 -1.3864  2.2760
 2852TIP3   OH229970   6.810   1.227   0.437 -0.2489 -0.0036  0.5656
 2852TIP3    H129971   6.814   1.132   0.449  0.1315 -0.0359  0.1621
 2852TIP3    H229972   6.799   1.261   0.526  0.1868 -0.3900  0.7719
 2853TIP3   OH229973   3.197   5.897   0.681  0.3792  0.1960 -0.4906
 2853TIP3    H129974   3.233   5.876   0.595 -1.7553  1.4635 -1.7896
 2853TIP3    H229975   3.210   5.992   0.689 -0.4468  0.2701  0.0658
 2854TIP3   OH229976   0.918   6.078  12.414 -0.2347  0.7858  0.0266
 2854TIP3    H129977   0.880   6.122  12.338  2.6598 -1.2111 -2.8687
 2854TIP3    H229978   0.890   5.987  12.407  0.1626  0.5301  1.3411
 2855TIP3   OH229979   2.233   4.594  11.537  0.4320  0.0473 -0.5664
 2855TIP3    H129980   2.195   4.592  11.625  0.1190  0.0985 -0.6999
 2855TIP3    H229981   2.266   4.505  11.523  0.6281  0.0808 -0.3363
 2856TIP3   OH229982   5.015   0.143  15.744 -0.1450 -0.1208 -0.2574
 2856TIP3    H129983   5.067   0.137  15.824 -0.0345 -2.4640 -0.4355
 2856TIP3    H229984   5.076   0.124  15.673 -0.9274 -1.6140 -0.5757
 2857TIP3   OH229985   1.174   3.049   1.323  0.5053  0.2434 -0.1241
 2857TIP3    H129986   1.217   3.024   1.405 -1.5185 -2.4244  0.3024
 2857TIP3    H229987   1.123   3.127   1.345 -1.2066 -1.2708  1.7254
 2858TIP3   OH229988   2.341   6.305  11.434  0.2092  0.0427  0.4212
 2858TIP3    H129989   2.314   6.268  11.350 -0.7960  0.6166  0.4798
 2858TIP3    H229990   2.435   6.288  11.439  0.5101  0.9838 -1.3303
 2859TIP3   OH229991   6.621   2.031  12.793 -0.0427 -0.8751  0.0757
 2859TIP3    H129992   6.626   1.936  12.782 -1.6211 -0.8050 -2.1314
 2859TIP3    H229993   6.620   2.064  12.703  1.4709  1.3289  0.8109
 2860TIP3   OH229994   3.197   3.454   2.493  0.4012  0.1220 -0.2647
 2860TIP3    H129995   3.117   3.435   2.444  1.3460 -2.7183 -0.9291
 2860TIP3    H229996   3.194   3.392   2.567  0.4626  2.2540  1.6294
 2861TIP3   OH229997   1.842   3.097  16.438  0.2616  0.2730  0.0824
 2861TIP3    H129998   1.928   3.082  16.478  1.3223 -1.6421 -2.5862
 2861TIP3    H229999   1.795   3.014  16.451 -0.9044  0.9947  0.7171
 2862TIP3   OH230000   1.058   4.106  12.673  0.2357  0.1416  0.0408
 2862TIP3    H130001   1.068   4.111  12.578  1.4641  0.8488  0.1870
 2862TIP3    H230002   1.078   4.194  12.704  1.0598 -0.3824  1.0501
 2863TIP3   OH230003   1.835   4.669   5.946  0.3417 -0.0918  0.2777
 2863TIP3    H130004   1.748   4.691   5.912  0.1193 -0.7025  0.4385
 2863TIP3    H230005   1.866   4.600   5.888  1.6909  1.6421 -1.1938
 2864TIP3   OH230006   0.067   3.197   5.569  0.3241 -0.2823 -0.6714
 2864TIP3    H130007   0.000   3.131   5.550 -1.4384  0.8038  1.3454
 2864TIP3    H230008   0.114   3.164   5.645  0.3727  0.1542 -0.5080
 2865TIP3   OH230009   6.284   6.019   5.363 -0.5741  0.6084  0.3907
 2865TIP3    H130010   6.301   6.087   5.428 -0.5246 -0.4671  1.5381
 2865TIP3    H230011   6.369   5.978   5.349 -0.7058  0.4384  0.0815
 2866TIP3   OH230012   1.887   5.699   3.760 -0.4590  0.3021  0.0206
 2866TIP3    H130013   1.833   5.640   3.813  0.9340  0.4293  1.6977
 2866TIP3    H230014   1.932   5.642   3.698 -0.1341 -0.2377  0.7390
 2867TIP3   OH230015   6.607   5.435   1.497 -0.6796  0.0884 -0.2014
 2867TIP3    H130016   6.654   5.380   1.560  1.2677  1.7170 -0.1183
 2867TIP3    H230017   6.538   5.476   1.549  0.3771  0.7686  0.7089
 2868TIP3   OH230018   6.149   0.790   4.398  0.1644 -0.2202  0.2747
 2868TIP3    H130019   6.098   0.864   4.365  1.6720  0.8676  0.2605
 2868TIP3    H230020   6.146   0.726   4.327 -1.1349 -0.1662  0.2685
 2869TIP3   OH230021   5.899   4.584   3.877  0.3313 -0.2819  0.4828
 2869TIP3    H130022   5.912   4.601   3.784  1.3786  0.7274  0.8090
 2869TIP3    H230023   5.879   4.490   3.881 -0.3118 -0.2217 -0.8042
 2870TIP3   OH230024   2.011   2.969  14.047  0.5679  0.1707  0.5402
 2870TIP3    H130025   1.941   2.935  14.103 -0.8418  0.0250 -1.1770
 2870TIP3    H230026   2.028   2.898  13.985  2.3785  0.1585  0.9979
 2871TIP3   OH230027   2.633   5.457   1.304  0.5797  0.6791 -0.5101
 2871TIP3    H130028   2.624   5.535   1.248  1.3033  1.2636  0.1476
 2871TIP3    H230029   2.646   5.493   1.392  1.7737 -0.1527 -0.3163
 2872TIP3   OH230030   2.657   3.784  13.226 -0.2644 -0.0529  0.1465
 2872TIP3    H130031   2.645   3.876  13.202  0.5296 -0.4998 -2.2087
 2872TIP3    H230032   2.574   3.742  13.205 -0.3558 -0.0272  0.4514
 2873TIP3   OH230033   5.856   6.075  11.383 -0.4224 -0.0239  0.3404
 2873TIP3    H130034   5.860   6.008  11.452 -1.1878  0.5303  0.9445
 2873TIP3    H230035   5.764   6.075  11.356 -0.0578 -0.4980 -0.9692
 2874TIP3   OH230036   4.431   5.044   4.544 -0.2538  0.5222 -0.2715
 2874TIP3    H130037   4.517   5.067   4.577 -0.2462  1.4919 -0.9210
 2874TIP3    H230038   4.445   4.964   4.494 -0.0182 -0.1591  0.8486
 2875TIP3   OH230039   4.591   3.567  16.483 -0.1941  0.1588  0.3675
 2875TIP3    H130040   4.556   3.499  16.542 -0.3046 -1.7171 -1.7145
 2875TIP3    H230041   4.519   3.628  16.471 -1.6369 -1.6594 -0.9414
 2876TIP3   OH230042   3.332   0.332  15.867  0.0649 -0.4639  0.6918
 2876TIP3    H130043   3.404   0.374  15.821 -0.4297 -0.3466  0.0109
 2876TIP3    H230044   3.271   0.305  15.797 -0.7947 -0.1000  1.2833
 2877TIP3   OH230045   0.957   1.234   2.695 -0.2244 -0.2717 -0.1265
 2877TIP3    H130046   0.897   1.194   2.758 -1.9700  0.8289 -1.0202
 2877TIP3    H230047   0.976   1.164   2.632  0.3656 -0.9412  0.7597
 2878TIP3   OH230048   1.839   5.565   0.496  0.0410 -0.2095 -0.0550
 2878TIP3    H130049   1.809   5.569   0.587  0.3341  0.6357  0.0214
 2878TIP3    H230050   1.760   5.553   0.444 -0.4950  1.9968  0.1326
 2879TIP3   OH230051   3.047   1.944  15.620  0.6478 -0.0205 -0.4744
 2879TIP3    H130052   2.989   2.007  15.576  2.3283  0.6414 -1.8173
 2879TIP3    H230053   3.027   1.861  15.578 -0.5286 -0.1409  0.2760
 2880TIP3   OH230054   5.109   1.227   0.360  0.4270 -0.5308 -0.6218
 2880TIP3    H130055   5.019   1.211   0.334 -0.4405  1.1180  1.1424
 2880TIP3    H230056   5.160   1.212   0.281 -1.5348 -0.1729 -2.0244
 2881TIP3   OH230057   3.336   1.498   6.258 -1.1677  0.5618  0.9385
 2881TIP3    H130058   3.371   1.534   6.340  2.5616 -0.6922  0.0839
 2881TIP3    H230059   3.350   1.404   6.265  1.4087  0.5845 -1.9112
 2882TIP3   OH230060   0.852   1.639  12.111 -0.1571  0.3340 -0.1621
 2882TIP3    H130061   0.863   1.546  12.093  0.5948  0.6365 -1.4314
 2882TIP3    H230062   0.790   1.669  12.045  0.5725  0.9648 -0.5771
 2883TIP3   OH230063   3.645   5.628  14.417 -0.0866 -0.4554  0.7884
 2883TIP3    H130064   3.720   5.687  14.430  0.8702 -1.6118  0.7218
 2883TIP3    H230065   3.596   5.633  14.498  0.1263  0.2247  0.8842
 2884TIP3   OH230066   3.841   1.467   5.468  0.5826 -0.3542  0.5955
 2884TIP3    H130067   3.828   1.463   5.563  1.3316 -0.7256  0.6937
 2884TIP3    H230068   3.884   1.384   5.447  1.1730  0.0815  0.0548
 2885TIP3   OH230069   6.111   4.948  11.927  0.0124  0.4435  0.3354
 2885TIP3    H130070   6.082   4.889  11.859 -1.1365 -0.0582  1.2266
 2885TIP3    H230071   6.167   5.012  11.882  0.5185 -0.7593 -0.7873
 2886TIP3   OH230072   0.894   3.633   0.751  0.0748 -0.4247  0.2342
 2886TIP3    H130073   0.911   3.717   0.795 -2.6354 -0.4148  1.4519
 2886TIP3    H230074   0.900   3.654   0.657 -1.4775  1.4120  0.4864
 2887TIP3   OH230075   1.477   2.778   1.280  0.3932 -0.0620  0.1352
 2887TIP3    H130076   1.476   2.765   1.185  0.6636 -3.0863  0.4390
 2887TIP3    H230077   1.386   2.770   1.306  0.0800  2.4552  0.0371
 2888TIP3   OH230078   0.704   0.915  10.177 -0.2132 -0.6237 -0.3490
 2888TIP3    H130079   0.799   0.929  10.186 -0.4583  0.4079  0.9924
 2888TIP3    H230080   0.692   0.894  10.084  1.3951 -1.4125 -0.4229
 2889TIP3   OH230081   5.909   2.407   4.956  0.4809 -0.2544 -0.6534
 2889TIP3    H130082   5.845   2.345   4.991  0.5000  0.2753  0.3827
 2889TIP3    H230083   5.987   2.354   4.940 -0.3026 -0.9770 -2.2874
 2890TIP3   OH230084   0.900   6.676   3.042  0.2817  0.3486  0.0415
 2890TIP3    H130085   0.970   6.658   2.979 -1.1615  1.4348 -2.0072
 2890TIP3    H230086   0.886   6.770   3.036 -1.7595  0.0888 -0.1261
 2891TIP3   OH230087   4.133   1.751  15.227 -0.7253 -0.1542 -0.0256
 2891TIP3    H130088   4.102   1.809  15.297 -0.2800 -1.6332  1.4742
 2891TIP3    H230089   4.116   1.662  15.260 -1.5248 -0.9212 -2.2927
 2892TIP3   OH230090   4.477   3.003   3.858 -0.2686 -0.9875 -0.5432
 2892TIP3    H130091   4.412   2.937   3.832 -1.1750 -0.0879 -0.6258
 2892TIP3    H230092   4.430   3.059   3.920 -0.0933  0.6451 -1.8320
 2893TIP3   OH230093   4.666   3.011   2.925 -0.1760  0.3026 -0.0390
 2893TIP3    H130094   4.680   2.922   2.893 -0.3393 -1.0796  3.3318
 2893TIP3    H230095   4.752   3.040   2.956 -0.5160  0.4771  0.7730
 2894TIP3   OH230096   0.688   5.490   0.103 -0.3177 -0.1727  0.8284
 2894TIP3    H130097   0.710   5.450   0.187 -1.0980 -0.9522  0.6836
 2894TIP3    H230098   0.627   5.428   0.063  0.2310  0.0732 -0.4244
 2895TIP3   OH230099   5.375   3.863   1.560  0.4713 -0.1861  0.3072
 2895TIP3    H130100   5.407   3.871   1.650  0.1692  1.1303  0.3100
 2895TIP3    H230101   5.455   3.859   1.507  0.7035  1.8094  0.4242
 2896TIP3   OH230102   5.112   5.138   1.729 -0.0472 -0.5553  0.6507
 2896TIP3    H130103   5.134   5.109   1.641  0.2785 -1.1455  0.9184
 2896TIP3    H230104   5.111   5.058   1.781 -0.2905 -0.2192  1.1731
 2897TIP3   OH230105   0.652   5.890   3.958  0.4223  0.0800  0.0710
 2897TIP3    H130106   0.697   5.806   3.969  0.4934  0.2465  1.2793
 2897TIP3    H230107   0.680   5.922   3.873 -0.0674 -1.3890 -0.6712
 2898TIP3   OH230108   0.698   2.538   4.728  0.2110 -0.2493 -0.4621
 2898TIP3    H130109   0.610   2.525   4.765  0.9641 -0.5330  1.3641
 2898TIP3    H230110   0.757   2.512   4.799  1.7894  1.6872 -0.9856
 2899TIP3   OH230111   5.006   2.561   1.948  0.0928  0.0978  0.5469
 2899TIP3    H130112   5.001   2.638   1.891  0.9999 -0.7033 -0.6687
 2899TIP3    H230113   5.095   2.564   1.984 -0.0457 -0.1016  0.9059
 2900TIP3   OH230114   4.034   4.752  16.415  0.1533  0.2730  0.0513
 2900TIP3    H130115   4.120   4.715  16.437  1.0266  2.0349 -0.1896
 2900TIP3    H230116   4.035   4.759  16.319 -1.0046 -1.3326 -0.1082
 2901TIP3   OH230117   1.712   0.900  13.777 -0.2195 -0.0206  0.0399
 2901TIP3    H130118   1.699   0.857  13.693 -0.3463 -0.5415  0.3195
 2901TIP3    H230119   1.806   0.895  13.793 -0.3077 -0.8376  0.3929
 2902TIP3   OH230120   1.552   3.952  14.582 -0.4186 -0.3137 -0.2710
 2902TIP3    H130121   1.504   4.035  14.589 -0.5037 -0.4291  0.5316
 2902TIP3    H230122   1.644   3.979  14.582 -0.3990  0.0470 -3.3733
 2903TIP3   OH230123   5.831   1.270   2.624 -0.2400 -0.2337  0.1544
 2903TIP3    H130124   5.779   1.338   2.580  0.7861  0.8590  0.5661
 2903TIP3    H230125   5.915   1.273   2.580 -0.4601 -1.8999 -0.4203
 2904TIP3   OH230126   2.357   1.762  12.732  0.1217 -0.0367  0.0297
 2904TIP3    H130127   2.264   1.740  12.731 -0.0716  0.7684 -0.3647
 2904TIP3    H230128   2.387   1.744  12.642 -0.1206  1.5710 -0.4032
 2905TIP3   OH230129   0.279   2.592   4.287 -0.6803 -0.2445 -1.0659
 2905TIP3    H130130   0.363   2.546   4.280  0.6770  1.7286  0.7609
 2905TIP3    H230131   0.279   2.653   4.214 -0.1421  0.2423 -0.6755
 2906TIP3   OH230132   0.550   3.814  16.979  0.0676  0.0954  0.5508
 2906TIP3    H130133   0.632   3.773  16.950  1.5288  0.7835  3.3837
 2906TIP3    H230134   0.545   3.895  16.929  0.7892 -0.2404 -0.0910
 2907TIP3   OH230135   5.727   5.642  14.348 -0.5070 -0.0548 -0.0570
 2907TIP3    H130136   5.659   5.663  14.284 -1.5272 -0.7483  0.7728
 2907TIP3    H230137   5.800   5.609  14.295 -1.1368 -0.1123 -0.9057
 2908TIP3   OH230138   2.971   2.270   6.489 -0.6434 -0.2202 -0.3865
 2908TIP3    H130139   2.922   2.200   6.532 -0.7957 -0.4313 -0.8909
 2908TIP3    H230140   3.042   2.225   6.444  0.8451  0.2064  1.4386
 2909TIP3   OH230141   4.384   6.036   1.019 -0.2168 -0.0577  0.3371
 2909TIP3    H130142   4.434   6.028   0.938  1.3156  0.8063  1.1369
 2909TIP3    H230143   4.293   6.023   0.993  0.4920 -3.1019 -0.9555
 2910TIP3   OH230144   1.824   1.967   3.120  0.1055  0.2184  0.7257
 2910TIP3    H130145   1.804   2.060   3.111 -1.0684 -0.0191  0.7190
 2910TIP3    H230146   1.842   1.939   3.030  1.4252  0.6243  0.8402
 2911TIP3   OH230147   4.512   3.421   6.497  0.7985 -0.8590  0.0804
 2911TIP3    H130148   4.600   3.459   6.501  0.3949  0.2858 -1.1799
 2911TIP3    H230149   4.453   3.495   6.505 -0.0670 -1.5640  0.4453
 2912TIP3   OH230150   5.525   1.395  12.814 -0.1517 -0.0059 -0.2775
 2912TIP3    H130151   5.482   1.363  12.735 -1.1114 -0.5748  0.4690
 2912TIP3    H230152   5.607   1.434  12.782 -1.1003  0.9191 -1.6916
 2913TIP3   OH230153   5.054   4.897  12.926  0.0512  0.3154  0.0235
 2913TIP3    H130154   4.992   4.863  12.990  1.5101 -0.2999  1.1633
 2913TIP3    H230155   5.071   4.823  12.867 -0.3446  0.5105 -0.3435
 2914TIP3   OH230156   4.765   2.382   3.400  0.6035 -0.6175 -0.0941
 2914TIP3    H130157   4.737   2.473   3.408 -0.1938 -1.0483  3.0792
 2914TIP3    H230158   4.751   2.361   3.307  0.0066  2.1978 -0.7353
 2915TIP3   OH230159   5.220   1.382   1.091 -0.3104  0.1574 -0.3322
 2915TIP3    H130160   5.284   1.365   1.161 -1.9311 -1.7024  0.8081
 2915TIP3    H230161   5.174   1.461   1.118 -0.6342 -0.3118  0.5255
 2916TIP3   OH230162   2.666   3.298  12.903  0.3142 -0.1572 -0.1423
 2916TIP3    H130163   2.755   3.278  12.932  0.4150  0.4646 -0.0138
 2916TIP3    H230164   2.674   3.308  12.808  0.0814 -1.6639 -0.3466
 2917TIP3   OH230165   1.118   5.296   3.691 -0.0413 -0.8246  0.7371
 2917TIP3    H130166   1.033   5.281   3.650  0.8678 -0.1861 -1.5466
 2917TIP3    H230167   1.123   5.390   3.703  0.7575 -0.7339 -0.1787
 2918TIP3   OH230168   6.781   2.958  15.380 -0.3180  0.1306 -0.0478
 2918TIP3    H130169   6.791   2.869  15.346 -0.6913 -0.2804  0.8965
 2918TIP3    H230170   6.731   3.004  15.312 -0.8355 -0.6091 -0.1789
 2919TIP3   OH230171   4.094   4.995  14.803 -0.1184  0.5142 -0.1019
 2919TIP3    H130172   4.111   4.901  14.797  2.3181  0.8855  0.2272
 2919TIP3    H230173   4.151   5.034  14.737  0.8361  1.9320  1.4911
 2920TIP3   OH230174   0.339   5.011  14.354 -0.1858  0.4983 -0.2563
 2920TIP3    H130175   0.388   4.969  14.284 -1.0038  0.8991 -1.1003
 2920TIP3    H230176   0.367   4.967  14.434 -0.0496 -0.7341 -0.9611
 2921TIP3   OH230177   6.737   2.610   1.370 -0.0399 -0.2525 -0.1801
 2921TIP3    H130178   6.680   2.686   1.364 -0.5220 -0.6495 -0.6458
 2921TIP3    H230179   6.794   2.629   1.446  0.5340  1.0220 -0.8957
 2922TIP3   OH230180   3.425   2.808  12.323  0.5576  0.0515  0.3793
 2922TIP3    H130181   3.382   2.893  12.316  1.5667  0.4598 -1.6646
 2922TIP3    H230182   3.502   2.815  12.267  1.8041 -1.5579  1.7766
 2923TIP3   OH230183   1.067   4.589   5.010 -0.3836  0.0263  0.3519
 2923TIP3    H130184   1.067   4.493   5.009 -2.3654 -0.0248 -1.4708
 2923TIP3    H230185   1.103   4.614   4.925  1.9908  1.0097  1.5650
 2924TIP3   OH230186   2.871   4.852  12.991 -0.1673  0.7685  0.2068
 2924TIP3    H130187   2.930   4.788  12.950 -1.0031  1.5027 -2.3660
 2924TIP3    H230188   2.918   4.935  12.986 -1.1020  1.2586 -1.3738
 2925TIP3   OH230189   1.908   3.927  12.751  0.1231 -0.7146 -0.2065
 2925TIP3    H130190   1.944   4.016  12.745  0.5528 -0.8323  0.4644
 2925TIP3    H230191   1.968   3.873  12.700 -0.6268 -0.4905 -1.3479
 2926TIP3   OH230192   3.260   3.395  15.409  0.1597 -0.1649  0.8152
 2926TIP3    H130193   3.325   3.372  15.343 -0.2601 -0.9230  0.6607
 2926TIP3    H230194   3.181   3.417  15.359  0.6033  1.9026  0.9368
 2927TIP3   OH230195   1.090   3.457  10.799 -0.1522  0.1341 -0.2365
 2927TIP3    H130196   1.043   3.484  10.720 -2.6655 -0.2789  1.0117
 2927TIP3    H230197   1.147   3.386  10.770 -1.1152 -0.0976 -1.6516
 2928TIP3   OH230198   1.781   1.405  16.388  0.2814  0.2361 -0.8042
 2928TIP3    H130199   1.691   1.374  16.382 -0.0782  0.8338  0.8535
 2928TIP3    H230200   1.828   1.354  16.322 -1.2420 -0.1212 -1.6791
 2929TIP3   OH230201   2.960   0.190  15.370 -0.4313 -0.1516 -0.0084
 2929TIP3    H130202   2.891   0.199  15.435  0.6429  1.4241  0.9626
 2929TIP3    H230203   2.928   0.239  15.294 -1.0065 -0.6821 -0.1158
 2930TIP3   OH230204   4.756   5.047  15.805 -0.7325  0.0162 -0.4261
 2930TIP3    H130205   4.816   5.074  15.735  0.3183 -0.3807  0.3026
 2930TIP3    H230206   4.803   5.066  15.886 -0.1054 -3.4156  0.1657
 2931TIP3   OH230207   6.103   3.931  13.138 -0.5446  0.1180 -0.5892
 2931TIP3    H130208   6.061   3.939  13.224 -0.8640  0.2256 -0.7531
 2931TIP3    H230209   6.167   3.861  13.150 -0.6693  0.0495 -0.2932
 2932TIP3   OH230210   5.727   4.310   4.192  0.3548 -0.2057  0.5410
 2932TIP3    H130211   5.813   4.272   4.177 -0.1979 -1.7861  1.1899
 2932TIP3    H230212   5.732   4.398   4.154  1.2408 -1.3890 -2.3063
 2933TIP3   OH230213   6.306   5.582   3.019  0.0069 -0.2110 -0.0699
 2933TIP3    H130214   6.366   5.535   3.077 -0.4518  0.1083  0.6730
 2933TIP3    H230215   6.341   5.567   2.931  0.9457 -0.3578  0.3180
 2934TIP3   OH230216   5.574   5.142   3.644  0.5921  0.7156  0.5005
 2934TIP3    H130217   5.535   5.070   3.594 -0.0238  0.7813  0.8683
 2934TIP3    H230218   5.512   5.215   3.632  0.2614  0.6422  1.6023
 2935TIP3   OH230219   2.097   2.759  15.123  0.2605 -0.1187  0.4544
 2935TIP3    H130220   2.018   2.794  15.165  0.3761 -0.4159  0.9366
 2935TIP3    H230221   2.083   2.773  15.030 -0.5946 -0.6458  0.4906
 2936TIP3   OH230222   4.950   3.274  12.913 -0.3137  0.3994  0.5558
 2936TIP3    H130223   4.976   3.184  12.935  0.6878  0.7510  0.8792
 2936TIP3    H230224   4.998   3.294  12.832  0.8189  1.2093  1.3941
 2937TIP3   OH230225   4.108   5.779  16.103  0.0318  0.6236  0.1176
 2937TIP3    H130226   4.102   5.768  16.008 -4.2090  0.5144  0.2336
 2937TIP3    H230227   4.123   5.872  16.116  2.6870  0.3851 -0.5422
 2938TIP3   OH230228   1.629   6.374  16.673  0.8067 -0.6120 -0.9670
 2938TIP3    H130229   1.688   6.423  16.615 -0.5269 -0.1708 -2.0089
 2938TIP3    H230230   1.546   6.372  16.626 -0.8350  1.1799  1.6483
 2939TIP3   OH230231   5.685   1.081  13.968 -0.0671 -0.2621  0.4331
 2939TIP3    H130232   5.597   1.062  14.002  0.0663 -0.5146  0.6383
 2939TIP3    H230233   5.721   0.996  13.943  0.5560 -0.3071  1.4237
 2940TIP3   OH230234   1.824   6.227   0.694  0.2775  0.3408  0.1146
 2940TIP3    H130235   1.759   6.224   0.764 -0.3823  0.7681 -0.4676
 2940TIP3    H230236   1.908   6.216   0.738 -0.1950 -0.3575  0.8605
 2941TIP3   OH230237   3.358   6.231  10.792  0.9109  0.2462 -0.2470
 2941TIP3    H130238   3.433   6.174  10.801 -0.3847 -1.7198 -1.2183
 2941TIP3    H230239   3.344   6.238  10.697 -0.3899  0.1715 -0.0818
 2942TIP3   OH230240   4.826   4.145  11.362 -0.6966 -0.4441  0.4664
 2942TIP3    H130241   4.790   4.158  11.274 -0.7628 -0.9887  0.4071
 2942TIP3    H230242   4.750   4.144  11.419 -0.6802 -0.4209  0.4890
 2943TIP3   OH230243   3.922   6.775   3.286  0.5691 -0.4739  0.4731
 2943TIP3    H130244   3.855   6.770   3.218  0.6281  0.6603  0.3059
 2943TIP3    H230245   3.874   6.775   3.368  0.3600  0.2447  0.3566
 2944TIP3   OH230246   5.233   0.581   5.980 -0.0113  0.1194  0.3447
 2944TIP3    H130247   5.278   0.630   5.910  1.0161 -0.8028  0.3391
 2944TIP3    H230248   5.300   0.522   6.015 -1.5873 -2.4884 -0.7515
 2945TIP3   OH230249   5.446   5.126  15.907  0.2216 -0.2153 -0.4922
 2945TIP3    H130250   5.524   5.181  15.899 -1.2183  2.0765  0.2426
 2945TIP3    H230251   5.408   5.126  15.819 -0.7042  1.5217 -0.1313
 2946TIP3   OH230252   5.758   1.598  14.988 -0.3394 -0.4115  0.2512
 2946TIP3    H130253   5.830   1.660  14.977 -0.9863  0.2098 -0.6335
 2946TIP3    H230254   5.685   1.651  15.020 -0.9384 -0.6854 -0.6330
 2947TIP3   OH230255   6.381   1.395  15.016 -0.0748  0.3956 -0.0874
 2947TIP3    H130256   6.293   1.420  15.045 -0.3051  0.4139 -0.7847
 2947TIP3    H230257   6.424   1.479  14.996  0.1873  0.4013  0.4855
 2948TIP3   OH230258   1.363   5.716  12.098 -0.4387  0.7622  0.0478
 2948TIP3    H130259   1.317   5.633  12.088 -0.3909  0.4568  2.0181
 2948TIP3    H230260   1.306   5.780  12.056 -1.8295  0.1400  0.9144
 2949TIP3   OH230261   3.421   3.190   4.195 -0.0836  0.0844  0.2964
 2949TIP3    H130262   3.432   3.108   4.148 -0.7519 -0.1488  0.5322
 2949TIP3    H230263   3.406   3.164   4.286  2.1484  0.5511  0.8646
 2950TIP3   OH230264   5.241   0.026   1.169  0.1557 -0.3962  0.6392
 2950TIP3    H130265   5.260   0.118   1.185  1.3998 -0.8702  2.0501
 2950TIP3    H230266   5.304  -0.001   1.102  1.1891 -0.7077  1.7058
 2951TIP3   OH230267   0.844   2.710  10.871  0.6483  0.4035  0.1801
 2951TIP3    H130268   0.860   2.753  10.787 -1.9529  2.5044  0.6176
 2951TIP3    H230269   0.749   2.696  10.872  0.8686 -1.3204  2.0005
 2952TIP3   OH230270   2.460   3.574  14.665 -0.1347 -0.0607 -0.1228
 2952TIP3    H130271   2.427   3.530  14.587 -0.1558 -0.5923  0.1815
 2952TIP3    H230272   2.443   3.512  14.736  1.5400 -0.3652  0.0555
 2953TIP3   OH230273   4.016   5.520  16.215 -0.8544 -0.0937  0.8035
 2953TIP3    H130274   4.064   5.439  16.196 -1.1824 -0.1261  0.0881
 2953TIP3    H230275   4.035   5.577  16.140  0.1017  0.8399  1.7275
 2954TIP3   OH230276   2.010   2.503   4.843  0.1147  0.1990  0.6228
 2954TIP3    H130277   2.012   2.594   4.870 -0.5999  0.1580  0.8514
 2954TIP3    H230278   1.920   2.489   4.813  0.2666 -0.3781  0.4165
 2955TIP3   OH230279   3.676   5.891  13.063 -0.2813  0.3840  0.0667
 2955TIP3    H130280   3.718   5.977  13.071  0.1830  0.1613  0.0552
 2955TIP3    H230281   3.689   5.866  12.971  1.2026 -0.5110  0.4995
 2956TIP3   OH230282   5.438   5.776  11.902 -0.2294  0.0419 -0.3305
 2956TIP3    H130283   5.474   5.760  11.815 -0.0201 -1.7173  0.0460
 2956TIP3    H230284   5.343   5.781  11.888 -0.2752 -1.1780 -0.5650
 2957TIP3   OH230285   5.515   4.364  16.351 -0.5774 -0.1799  0.2356
 2957TIP3    H130286   5.605   4.335  16.336 -0.1666  0.6964  0.9129
 2957TIP3    H230287   5.461   4.289  16.325  0.1843  0.1386 -2.7006
 2958TIP3   OH230288   4.624   6.057   4.534 -0.2963 -0.3366 -0.0277
 2958TIP3    H130289   4.585   6.017   4.456  0.3713  0.2070 -0.6584
 2958TIP3    H230290   4.622   6.151   4.517  1.6629 -0.3019 -0.2973
 2959TIP3   OH230291   5.720   3.300  12.691  1.2490  0.3549  0.5725
 2959TIP3    H130292   5.656   3.231  12.677  0.3586  1.0108  1.2788
 2959TIP3    H230293   5.802   3.265  12.655  1.1641 -1.6204  2.1687
 2960TIP3   OH230294   5.524   4.558  11.388 -0.4093  0.3863  0.2147
 2960TIP3    H130295   5.463   4.507  11.335  0.7049 -1.4465  0.6340
 2960TIP3    H230296   5.609   4.547  11.344  0.1850  0.3745  1.3313
 2961TIP3   OH230297   0.719   2.060   1.974 -0.4039 -0.5534 -0.2076
 2961TIP3    H130298   0.700   1.972   2.007 -0.8841  0.0777  1.2762
 2961TIP3    H230299   0.637   2.108   1.984 -0.8633 -0.5134 -3.1828
 2962TIP3   OH230300   5.781   0.841  13.891 -0.4293  0.4545 -0.6158
 2962TIP3    H130301   5.862   0.828  13.841 -0.9052 -0.4261 -1.1683
 2962TIP3    H230302   5.766   0.758  13.936  0.3892  1.4445  1.6445
 2963TIP3   OH230303   4.214   0.385   0.765 -0.2545  0.0545  0.0223
 2963TIP3    H130304   4.218   0.480   0.766  0.3472  0.0316  0.3440
 2963TIP3    H230305   4.134   0.365   0.717  0.3936  0.6986 -1.3770
 2964TIP3   OH230306   3.839   4.280  16.133  0.2346 -0.0253  0.9408
 2964TIP3    H130307   3.845   4.355  16.192  1.0277 -1.0249  2.2054
 2964TIP3    H230308   3.748   4.252  16.138  0.4003 -0.4458  2.2196
 2965TIP3   OH230309   4.416   6.501   4.432  0.6357  0.2062  0.0315
 2965TIP3    H130310   4.461   6.585   4.423 -0.3161  0.5860 -1.3368
 2965TIP3    H230311   4.396   6.495   4.526  1.5287  1.0520  0.3005
 2966TIP3   OH230312   1.147   6.026  13.026 -0.7057 -0.7139  0.4647
 2966TIP3    H130313   1.070   5.995  13.074 -1.9043  0.3262 -0.6636
 2966TIP3    H230314   1.128   6.003  12.935  0.4064 -0.5867  0.1950
 2967TIP3   OH230315   4.469   0.041  12.289  0.2859  0.7599 -0.5710
 2967TIP3    H130316   4.434   0.017  12.375 -0.9879  0.7416 -1.0746
 2967TIP3    H230317   4.464   0.137  12.287 -0.4411  0.7216 -0.9188
 2968TIP3   OH230318   5.405   2.365  16.306 -0.0385  0.3816  0.1151
 2968TIP3    H130319   5.427   2.393  16.395 -0.7261 -1.1065  0.8101
 2968TIP3    H230320   5.384   2.446  16.259 -1.7416  1.0645  1.9236
 2969TIP3   OH230321   3.543   6.328   1.137 -0.0662  0.6578  0.5729
 2969TIP3    H130322   3.452   6.303   1.155 -0.5879  2.0200 -0.0782
 2969TIP3    H230323   3.540   6.422   1.121  1.0988  0.3647 -1.8173
 2970TIP3   OH230324   3.650   6.263  14.892  0.3261 -0.5836  0.0650
 2970TIP3    H130325   3.722   6.305  14.844 -0.5717  0.0466 -0.7801
 2970TIP3    H230326   3.590   6.234  14.824 -1.1155  0.5597  0.7971
 2971TIP3   OH230327   5.826   5.815  11.923 -0.1172 -0.4495  0.2344
 2971TIP3    H130328   5.888   5.826  11.995  1.0925  1.2719 -0.9878
 2971TIP3    H230329   5.765   5.889  11.932 -0.2965 -0.5428 -0.1827
 2972TIP3   OH230330   0.559   2.649  15.199  0.0300  0.4200  0.0874
 2972TIP3    H130331   0.644   2.695  15.198  0.6040 -0.4694 -3.1928
 2972TIP3    H230332   0.580   2.559  15.222 -0.2309  0.4647  0.5165
 2973TIP3   OH230333   3.892   3.471  14.902 -0.2013 -0.3604  0.2979
 2973TIP3    H130334   3.813   3.489  14.852  0.2029  0.2495 -0.1416
 2973TIP3    H230335   3.909   3.378  14.887 -0.4756 -0.3460 -0.1290
 2974TIP3   OH230336   0.904   4.256   4.511 -0.4774 -0.1588  0.5888
 2974TIP3    H130337   0.949   4.185   4.558  0.9152 -1.0601 -1.9561
 2974TIP3    H230338   0.866   4.214   4.434 -1.8408  1.4372  0.3381
 2975TIP3   OH230339   2.481   2.184   4.942  0.4193 -0.6464 -0.0290
 2975TIP3    H130340   2.571   2.169   4.970  0.5777  0.2528 -0.0278
 2975TIP3    H230341   2.485   2.264   4.889 -0.4981 -0.1458  0.6267
 2976TIP3   OH230342   6.114   3.462   4.003  0.4730 -0.4497 -0.0003
 2976TIP3    H130343   6.188   3.478   3.945 -0.8703  1.2283 -1.3349
 2976TIP3    H230344   6.081   3.376   3.976  0.7676 -0.3549 -0.6851
 2977TIP3   OH230345   1.338   4.504   1.831  0.2035  0.1036  0.1883
 2977TIP3    H130346   1.409   4.514   1.767  0.5919 -1.0826  0.4090
 2977TIP3    H230347   1.268   4.459   1.783  0.6494 -1.1585  0.6621
 2978TIP3   OH230348   6.202   1.379   0.512 -0.6643 -0.1730 -0.2152
 2978TIP3    H130349   6.271   1.312   0.502  0.5842  0.7000  1.8558
 2978TIP3    H230350   6.243   1.460   0.481 -1.0001  0.2332  0.4012
 2979TIP3   OH230351   1.496   5.208  15.818  0.9962  0.1589 -0.1893
 2979TIP3    H130352   1.516   5.280  15.757  2.9995 -0.5692 -0.4579
 2979TIP3    H230353   1.482   5.251  15.902 -1.3730  1.1429 -0.9896
 2980TIP3   OH230354   6.122   2.611   0.777  0.3979  0.0338 -0.0726
 2980TIP3    H130355   6.098   2.688   0.827  0.1275 -0.5113  0.6587
 2980TIP3    H230356   6.056   2.546   0.799 -0.5088  0.1624 -2.1409
 2981TIP3   OH230357   0.842   1.882   5.529 -0.0531 -0.2661  0.2112
 2981TIP3    H130358   0.793   1.953   5.570  0.3305  1.0625 -1.4885
 2981TIP3    H230359   0.829   1.807   5.587 -2.1597  0.6333  1.0259
 2982TIP3   OH230360   3.787   2.425  16.520  0.5438  0.2795  0.8653
 2982TIP3    H130361   3.856   2.370  16.555  1.9952  0.6235 -1.2581
 2982TIP3    H230362   3.722   2.364  16.485  1.2474 -0.1156  0.2006
 2983TIP3   OH230363   0.482   0.276  10.729 -0.5676  0.0076  0.1069
 2983TIP3    H130364   0.468   0.370  10.742 -0.5525  0.0511 -0.2013
 2983TIP3    H230365   0.572   0.269  10.699 -0.5494 -0.1110  0.1916
 2984TIP3   OH230366   3.878   1.711   5.329 -0.7042 -0.1700 -0.0965
 2984TIP3    H130367   3.876   1.618   5.350  1.0142 -0.4951 -1.1435
 2984TIP3    H230368   3.924   1.752   5.402 -1.2554 -0.1504  0.2506
 2985TIP3   OH230369   3.233   0.937  15.478 -0.0286  0.0871  0.4179
 2985TIP3    H130370   3.166   0.954  15.544 -0.7364 -1.0423  0.0218
 2985TIP3    H230371   3.202   0.983  15.400  0.4890  0.9001  0.6829
 2986TIP3   OH230372   0.845   2.024  15.318  0.4111  0.4637 -0.1394
 2986TIP3    H130373   0.922   2.076  15.340  0.1230  0.1787  1.7131
 2986TIP3    H230374   0.855   1.944  15.369 -0.3331 -0.2665 -1.1101
 2987TIP3   OH230375   1.223   3.422   4.653 -0.3649  0.4461 -0.0634
 2987TIP3    H130376   1.274   3.349   4.619  1.2168  0.1833  2.5418
 2987TIP3    H230377   1.171   3.453   4.579  0.8926 -1.6201 -1.9135
 2988TIP3   OH230378   1.459   0.453  16.544 -0.3098  0.2082  0.1008
 2988TIP3    H130379   1.467   0.394  16.468  0.3497 -1.2989  1.2748
 2988TIP3    H230380   1.397   0.520  16.516 -1.3877 -1.2421 -1.2147
 2989TIP3   OH230381   6.610   3.898   2.640  0.6055 -0.1885 -0.3193
 2989TIP3    H130382   6.670   3.892   2.715 -0.2854  0.6513  0.4792
 2989TIP3    H230383   6.530   3.937   2.676  0.8224  2.1078 -2.0803
 2990TIP3   OH230384   1.351   1.169  10.742 -0.4945 -0.0057 -0.2228
 2990TIP3    H130385   1.396   1.138  10.820  0.1903  0.4779 -0.4243
 2990TIP3    H230386   1.298   1.242  10.772  2.4758  2.5826 -0.7694
 2991TIP3   OH230387   6.084   5.688  14.454  0.2288  0.3865  0.4797
 2991TIP3    H130388   6.170   5.646  14.452  1.3413  2.5158  0.1801
 2991TIP3    H230389   6.030   5.636  14.395  1.7541 -0.1192 -0.5286
 2992TIP3   OH230390   1.154   4.386   3.744  0.0968 -0.0121  0.3023
 2992TIP3    H130391   1.112   4.431   3.817  2.4718  0.2748  1.6099
 2992TIP3    H230392   1.196   4.456   3.694  0.1173 -0.3879 -0.2125
 2993TIP3   OH230393   3.694   3.420   1.444 -0.3749  0.8655 -0.2066
 2993TIP3    H130394   3.738   3.364   1.507 -1.0107 -0.0594 -0.5678
 2993TIP3    H230395   3.740   3.404   1.361 -1.4409 -0.1971 -0.6114
 2994TIP3   OH230396   0.574   1.227  12.488 -0.1120  0.0620 -0.1642
 2994TIP3    H130397   0.531   1.197  12.568 -1.2704  0.9389 -0.4192
 2994TIP3    H230398   0.588   1.321  12.502  3.8859 -0.5094  0.8316
 2995TIP3   OH230399   0.908   0.109  12.062  0.3419 -0.0255 -0.3486
 2995TIP3    H130400   0.823   0.151  12.049  1.1034  1.3992 -1.0685
 2995TIP3    H230401   0.924   0.062  11.980 -0.3367 -1.4747  0.3123
 2996TIP3   OH230402   1.239   2.805  16.773  0.6490 -0.0842  0.0197
 2996TIP3    H130403   1.180   2.794  16.698  0.2713 -0.4742  0.3750
 2996TIP3    H230404   1.210   2.886  16.814 -0.1235 -0.6535  0.6230
 2997TIP3   OH230405   2.104   6.201  11.609 -0.3239 -0.3038 -0.4177
 2997TIP3    H130406   2.171   6.247  11.558 -1.2114  1.2733 -0.2206
 2997TIP3    H230407   2.154   6.146  11.670  0.8649  1.7450  0.5734
 2998TIP3   OH230408   5.667   3.262   4.587  0.0217  0.1030  0.6102
 2998TIP3    H130409   5.606   3.192   4.611  0.5489 -0.3816  0.5528
 2998TIP3    H230410   5.678   3.312   4.668 -2.2026  1.5701  0.0775
 2999TIP3   OH230411   1.364   0.230  16.381  0.3450  0.2684  0.0214
 2999TIP3    H130412   1.285   0.268  16.343 -0.1248  1.3232  1.9529
 2999TIP3    H230413   1.355   0.136  16.366 -0.6914  0.4797 -0.8119
 3000TIP3   OH230414   0.782   5.309   2.043 -0.2484 -0.7037 -0.0990
 3000TIP3    H130415   0.780   5.222   2.082  1.8977  1.0920  4.7968
 3000TIP3    H230416   0.867   5.315   2.000  0.0305 -0.7052  0.4525
 3001TIP3   OH230417   2.055   1.657   1.296  0.1799  0.3264  0.8647
 3001TIP3    H130418   2.037   1.702   1.379 -1.5760 -0.1444  0.7688
 3001TIP3    H230419   2.140   1.615   1.310 -0.4795 -0.4966  2.8057
 3002TIP3   OH230420   1.776   5.569  10.537 -0.0927  0.4734 -0.2339
 3002TIP3    H130421   1.831   5.519  10.476  0.1554 -0.2742  0.5741
 3002TIP3    H230422   1.836   5.630  10.580  0.0873 -0.1997  0.4978
 3003TIP3   OH230423   2.423   1.772   2.010 -0.6809  0.0989  0.1023
 3003TIP3    H130424   2.479   1.706   1.969  0.9673 -0.2107  2.6107
 3003TIP3    H230425   2.465   1.855   1.988 -0.1122 -0.0314  0.6564
 3004TIP3   OH230426   0.693   0.567  12.140 -0.4258  0.6986  0.5880
 3004TIP3    H130427   0.767   0.618  12.106  0.7295  0.4964  2.6445
 3004TIP3    H230428   0.694   0.583  12.234 -1.5602 -1.1993  0.9795
 3005TIP3   OH230429   2.929   2.425   2.077 -0.8166 -0.2348 -0.2265
 3005TIP3    H130430   2.936   2.519   2.091 -0.0696  0.0601 -2.2227
 3005TIP3    H230431   3.000   2.404   2.017 -0.6561 -2.1777  0.5673
 3006TIP3   OH230432   2.169   6.082   2.556 -0.5236  0.7553 -0.0133
 3006TIP3    H130433   2.120   6.114   2.632  0.1656  0.9175  0.3753
 3006TIP3    H230434   2.104   6.074   2.487 -1.2573  0.1204  0.7399
 3007TIP3   OH230435   3.905   3.478  11.758  0.2733  0.6614 -0.1125
 3007TIP3    H130436   3.971   3.460  11.824  0.5022  1.2797 -0.1658
 3007TIP3    H230437   3.952   3.473  11.675 -0.1373 -0.7062 -0.2829
 3008TIP3   OH230438   4.360   3.089   3.615 -0.6262  0.4398 -0.1686
 3008TIP3    H130439   4.414   3.101   3.693 -1.7948  0.6054  0.6404
 3008TIP3    H230440   4.302   3.165   3.614 -1.1532  0.0390 -0.7589
 3009TIP3   OH230441   3.000   5.063  14.978  0.0744 -0.6226  0.0926
 3009TIP3    H130442   3.027   4.977  14.946 -1.0943 -0.8858 -0.2661
 3009TIP3    H230443   2.964   5.046  15.065 -0.3037 -0.5307 -0.0426
 3010TIP3   OH230444   3.759   0.383  11.823 -0.4172 -0.2404  0.2722
 3010TIP3    H130445   3.689   0.353  11.765 -1.7145  2.4167  0.2891
 3010TIP3    H230446   3.713   0.420  11.898  1.0250  1.0928  0.5513
 3011TIP3   OH230447   4.807   1.294   0.353  0.3108  0.1950 -0.5275
 3011TIP3    H130448   4.786   1.289   0.446  2.2654 -0.8499 -0.0878
 3011TIP3    H230449   4.775   1.380   0.326 -3.0087 -0.6141  0.3376
 3012TIP3   OH230450   0.031   1.200  14.443 -0.0687 -0.0217 -0.2136
 3012TIP3    H130451  -0.053   1.245  14.452  0.0073 -0.1431  1.5185
 3012TIP3    H230452   0.078   1.249  14.376 -0.4283  1.8168  0.8175
 3013TIP3   OH230453   0.508   5.096  14.583 -0.6027 -0.2876 -0.1807
 3013TIP3    H130454   0.598   5.126  14.570 -0.0324 -1.2833  1.1478
 3013TIP3    H230455   0.512   5.001  14.569 -1.2817 -0.4397  0.5721
 3014TIP3   OH230456   0.315   1.166  14.842 -0.1242 -0.1678 -0.1544
 3014TIP3    H130457   0.244   1.122  14.794 -0.1097  0.7991 -1.0965
 3014TIP3    H230458   0.353   1.097  14.896  0.1083 -1.4097 -1.8237
 3015TIP3   OH230459   2.509   1.845  11.903  0.3080  0.4783 -0.1228
 3015TIP3    H130460   2.467   1.811  11.983  1.1709  0.8875  0.5132
 3015TIP3    H230461   2.554   1.769  11.866 -0.8714  0.0624 -0.7471
 3016TIP3   OH230462   1.229   6.304  10.397 -0.3005  0.5131 -0.5798
 3016TIP3    H130463   1.185   6.373  10.346 -2.4697  0.0605  0.5640
 3016TIP3    H230464   1.279   6.255  10.332 -0.3037  1.9502 -1.7316
 3017TIP3   OH230465   4.981   6.576  12.616 -0.2369 -0.8650 -0.0512
 3017TIP3    H130466   4.966   6.647  12.554 -0.8231  1.0579  2.1499
 3017TIP3    H230467   5.073   6.553  12.604 -0.2365 -0.2635 -1.3217
 3018TIP3   OH230468   1.952   3.757  11.929 -0.2177 -0.7214 -1.5052
 3018TIP3    H130469   1.902   3.724  12.003 -0.4603 -0.3692 -1.5135
 3018TIP3    H230470   1.992   3.678  11.891  0.2746 -0.8536 -0.7372
 3019TIP3   OH230471   5.544   3.279  11.230 -0.1003  0.0060  0.3844
 3019TIP3    H130472   5.469   3.225  11.255 -0.9870  1.0975  0.1694
 3019TIP3    H230473   5.511   3.369  11.234  1.9511  0.7653  2.9926
 3020TIP3   OH230474   0.857   0.496   2.619  0.2702  0.2186  0.0820
 3020TIP3    H130475   0.921   0.554   2.659  0.6855 -0.5082  0.4807
 3020TIP3    H230476   0.907   0.421   2.589 -0.1186  0.4582 -1.2722
 3021TIP3   OH230477   4.253   4.197  12.115  0.0180  0.0744 -0.3019
 3021TIP3    H130478   4.201   4.174  12.192  1.5580  3.2590  1.9123
 3021TIP3    H230479   4.342   4.167  12.136  0.3656  0.5567 -1.0449
 3022TIP3   OH230480   3.031   0.020  14.413 -0.3160  0.1474  0.4223
 3022TIP3    H130481   3.014   0.058  14.500  1.1284 -0.3305  0.9497
 3022TIP3    H230482   2.962  -0.044  14.402 -0.2850 -0.0864  1.4231
 3023TIP3   OH230483   2.945   0.087  16.889  0.0786  0.5485  0.5867
 3023TIP3    H130484   2.884   0.088  16.962 -2.6821  1.1103 -1.5752
 3023TIP3    H230485   2.978  -0.003  16.887  1.2350  0.8250  3.1821
 3024TIP3   OH230486   3.496   2.271  11.046  0.0010  0.0761 -0.7780
 3024TIP3    H130487   3.492   2.251  11.139 -0.9963 -0.6041 -0.9494
 3024TIP3    H230488   3.557   2.207  11.009 -0.6887 -0.5671 -0.8105
 3025TIP3   OH230489   1.728   2.681  12.941 -0.3911  0.1761  0.1300
 3025TIP3    H130490   1.661   2.661  13.007 -1.6923  1.5992 -0.6859
 3025TIP3    H230491   1.761   2.596  12.914 -0.3341 -0.4750  2.0855
 3026TIP3   OH230492   1.470   0.084   5.249  0.7376 -0.4743  0.0491
 3026TIP3    H130493   1.440   0.016   5.308 -2.3212 -0.3063 -1.1062
 3026TIP3    H230494   1.499   0.037   5.171 -0.7737 -0.5551 -0.5020
 3027TIP3   OH230495   0.434   1.105   1.795  0.1511 -0.6505  0.2169
 3027TIP3    H130496   0.466   1.046   1.727  1.1434 -1.7363  1.5634
 3027TIP3    H230497   0.340   1.113   1.779  0.4421 -0.4576 -1.5663
 3028TIP3   OH230498   3.739   6.252  16.527  0.5985  0.3962  0.5815
 3028TIP3    H130499   3.686   6.306  16.468  0.6617  1.2745  1.3152
 3028TIP3    H230500   3.772   6.181  16.471 -0.1520  0.6540 -0.2094
 3029TIP3   OH230501   1.380   4.419  13.875 -0.2602  0.1486 -0.1186
 3029TIP3    H130502   1.398   4.414  13.781 -0.3694  1.7695 -0.2538
 3029TIP3    H230503   1.435   4.350  13.914 -0.2163 -0.5481 -1.3520
 3030TIP3   OH230504   5.571   4.609   2.711  0.2130 -0.1654  0.2988
 3030TIP3    H130505   5.586   4.670   2.638  0.5939  0.3387  0.7872
 3030TIP3    H230506   5.554   4.666   2.786  0.1052 -0.6762  0.6640
 3031TIP3   OH230507   0.967   0.115   1.693  0.1432 -0.0961 -0.8754
 3031TIP3    H130508   0.956   0.187   1.755 -1.7947 -1.0979  0.0324
 3031TIP3    H230509   1.052   0.077   1.715 -0.9155 -1.0807  1.9960
 3032TIP3   OH230510   2.787   6.656   0.571  0.3680  0.1491 -0.5382
 3032TIP3    H130511   2.878   6.655   0.600  0.5866  2.1888 -1.0247
 3032TIP3    H230512   2.790   6.683   0.480 -0.6724 -0.9296 -0.9220
 3033TIP3   OH230513   2.020   1.052   5.340  0.2491 -0.1056  0.3262
 3033TIP3    H130514   2.076   1.061   5.263  0.8825 -0.1215  0.7783
 3033TIP3    H230515   1.992   1.142   5.359  1.3957  0.1271  1.0222
 3034TIP3   OH230516   1.434   3.019  13.332 -0.4066  0.3237 -0.0161
 3034TIP3    H130517   1.502   2.989  13.272  0.0248  1.8372 -0.3110
 3034TIP3    H230518   1.471   3.096  13.375 -1.5989  0.6472  0.4882
 3035TIP3   OH230519   6.099   5.606   5.521 -0.1149  0.2099  0.0759
 3035TIP3    H130520   6.113   5.684   5.467  1.2288 -1.0849 -1.5862
 3035TIP3    H230521   6.027   5.560   5.477  1.4890 -1.2315 -1.1367
 3036TIP3   OH230522   4.646   6.524   2.533 -0.0119 -0.7199  0.5299
 3036TIP3    H130523   4.660   6.458   2.601  0.1972 -2.7500 -1.3878
 3036TIP3    H230524   4.637   6.474   2.452  0.1744  1.6239 -1.0300
 3037TIP3   OH230525   3.091   6.661  11.694  0.0652  0.3176  0.3243
 3037TIP3    H130526   3.077   6.723  11.622  1.1031  0.7048  0.4370
 3037TIP3    H230527   3.186   6.648  11.696  0.2048  1.2531  2.3977
 3038TIP3   OH230528   4.765   1.113   4.803 -0.4925 -0.2062 -0.4645
 3038TIP3    H130529   4.850   1.157   4.797 -0.1488 -0.2033  2.5229
 3038TIP3    H230530   4.785   1.021   4.791 -0.4227 -0.0215 -1.8471
 3039TIP3   OH230531   4.405   3.529   4.391 -0.4795 -0.3506  0.0301
 3039TIP3    H130532   4.412   3.477   4.311 -0.5017 -0.9519  0.4110
 3039TIP3    H230533   4.387   3.464   4.459  1.7790 -0.1406  0.9049
 3040TIP3   OH230534   5.029   2.343  12.229  0.2009  0.0943 -0.3089
 3040TIP3    H130535   5.071   2.313  12.148 -3.3872 -2.9932 -1.3081
 3040TIP3    H230536   5.053   2.276  12.294  0.0446  0.4953  0.1692
 3041TIP3   OH230537   1.667   0.196   3.156  0.5804  0.2540  0.1583
 3041TIP3    H130538   1.712   0.264   3.105 -0.7406  0.4266 -0.8304
 3041TIP3    H230539   1.736   0.134   3.180  1.2917  0.2584 -1.7075
 3042TIP3   OH230540   5.046   4.436   3.986  0.2122  0.1011  0.3504
 3042TIP3    H130541   4.975   4.376   3.964 -0.6821  0.6217  1.7252
 3042TIP3    H230542   5.003   4.509   4.029  1.4231  1.1775 -0.2153
 3043TIP3   OH230543   2.355   5.245   1.536 -0.0555 -0.2835  0.1220
 3043TIP3    H130544   2.429   5.186   1.549  0.3480  0.1897 -0.0016
 3043TIP3    H230545   2.354   5.262   1.441 -0.0578  0.0507  0.1813
 3044TIP3   OH230546   3.167   0.855   3.116 -0.2893 -0.4004  0.4694
 3044TIP3    H130547   3.147   0.893   3.031  0.1663 -0.8831  0.1389
 3044TIP3    H230548   3.164   0.928   3.177 -0.8500 -0.0900  0.0767
 3045TIP3   OH230549   5.694   2.453  15.646  0.0274  0.2039 -0.0371
 3045TIP3    H130550   5.789   2.464  15.658  0.3661 -1.7460 -0.5632
 3045TIP3    H230551   5.671   2.515  15.577  0.9828  0.4651 -0.1422
 3046TIP3   OH230552   0.329   3.051   0.491  0.4285 -0.0468 -0.4283
 3046TIP3    H130553   0.270   3.073   0.419 -0.1317 -0.9016 -0.2533
 3046TIP3    H230554   0.375   3.132   0.510 -1.6778  1.0654  0.3236
 3047TIP3   OH230555   3.603   4.147  16.421  0.1826  0.1865 -0.2343
 3047TIP3    H130556   3.670   4.079  16.426  0.0830  0.1372  0.5087
 3047TIP3    H230557   3.528   4.111  16.468  0.3383  1.0485  0.7018
 3048TIP3   OH230558   5.358   0.729   2.366 -0.4777  0.1923 -0.3522
 3048TIP3    H130559   5.389   0.715   2.456  2.1890 -0.7920 -1.3006
 3048TIP3    H230560   5.352   0.824   2.357  1.2504  0.4101  0.3330
 3049TIP3   OH230561   0.937   0.091   0.314 -0.3143  0.3188 -0.0358
 3049TIP3    H130562   0.904   0.180   0.306 -1.3137  0.0005  0.3342
 3049TIP3    H230563   0.968   0.068   0.226 -1.8097  0.3643 -0.5927
 3050TIP3   OH230564   0.043   2.568   3.649 -0.0780 -0.1965  0.2098
 3050TIP3    H130565  -0.006   2.594   3.727  0.5359 -0.8636  0.8209
 3050TIP3    H230566   0.122   2.620   3.651  0.6969 -1.3554  0.9152
 3051TIP3   OH230567   2.358   6.270  14.277 -0.4508 -0.2596 -0.6627
 3051TIP3    H130568   2.298   6.343  14.295 -0.2341 -0.5327  1.4395
 3051TIP3    H230569   2.336   6.243  14.188 -1.2787  1.6653 -1.1073
 3052TIP3   OH230570   0.517   2.850  17.015  0.0913  0.3809 -0.1798
 3052TIP3    H130571   0.520   2.939  17.049  0.7156 -0.0741  0.9932
 3052TIP3    H230572   0.472   2.858  16.931 -0.1909  1.7423  0.0846
 3053TIP3   OH230573   5.028   1.031  11.006 -0.0075 -0.2609 -0.5270
 3053TIP3    H130574   4.943   1.070  11.029 -0.9342 -0.6739 -2.9623
 3053TIP3    H230575   5.013   0.937  11.008  0.7503 -0.3771  0.1820
 3054TIP3   OH230576   4.517   4.940   3.863  0.1800 -0.0347 -0.1667
 3054TIP3    H130577   4.517   4.845   3.851 -2.4284 -0.1857  0.3623
 3054TIP3    H230578   4.585   4.972   3.804  0.3473 -2.1461 -1.2173
 3055TIP3   OH230579   6.087   6.760  12.087  0.2187  0.3814 -0.2967
 3055TIP3    H130580   6.125   6.807  12.013  1.8958  1.3474  1.0848
 3055TIP3    H230581   6.151   6.693  12.109  1.7479  2.5346  2.5706
 3056TIP3   OH230582   0.272   4.362  14.341  0.1238 -0.3985 -0.4075
 3056TIP3    H130583   0.183   4.336  14.366  0.7077 -0.7567  1.4199
 3056TIP3    H230584   0.303   4.290  14.286 -0.2429 -0.9195  0.0540
 3057TIP3   OH230585   2.771   6.669  12.605 -0.2197  0.2538 -0.5338
 3057TIP3    H130586   2.755   6.628  12.690  0.3250 -0.9330 -0.9835
 3057TIP3    H230587   2.747   6.761  12.618  0.1897  0.1731  1.0015
 3058TIP3   OH230588   5.042   6.541   9.748 -0.1196 -0.3430  0.4518
 3058TIP3    H130589   5.028   6.636   9.749 -1.1978 -0.4479 -1.1866
 3058TIP3    H230590   4.989   6.509   9.820 -1.1402  0.1629 -0.0458
 3059TIP3   OH230591   1.530   5.724  14.439 -0.5905 -0.4627  0.3903
 3059TIP3    H130592   1.453   5.668  14.435  0.5230 -1.9685 -1.4260
 3059TIP3    H230593   1.604   5.664  14.436  0.7049  1.0276 -3.4686
 3060TIP3   OH230594   4.617   3.394   0.317  0.0961 -0.4758 -0.0324
 3060TIP3    H130595   4.545   3.397   0.381 -1.4742  1.4454 -1.7297
 3060TIP3    H230596   4.660   3.310   0.333 -1.1948 -0.7510  2.4756
 3061TIP3   OH230597   5.214   0.374  13.177 -0.0354 -0.2100  0.2968
 3061TIP3    H130598   5.280   0.400  13.241  0.5697  0.5453 -0.5947
 3061TIP3    H230599   5.180   0.290  13.208  0.6092 -0.1008  1.3139
 3062TIP3   OH230600   4.840   1.098   4.203 -0.5429  0.2872 -0.6963
 3062TIP3    H130601   4.922   1.094   4.253 -0.4592 -0.1252 -0.8649
 3062TIP3    H230602   4.774   1.124   4.268 -0.1596  1.3785 -0.7136
 3063TIP3   OH230603   0.175   4.254   3.365  0.3534 -0.0145 -0.6288
 3063TIP3    H130604   0.251   4.196   3.360  0.8252  0.5617 -0.2230
 3063TIP3    H230605   0.189   4.318   3.295  0.5984  0.5116 -0.1015
 3064TIP3   OH230606   1.590   1.034   3.602  0.0607 -0.1218  0.3177
 3064TIP3    H130607   1.563   1.012   3.691  0.4450 -0.6853  0.3001
 3064TIP3    H230608   1.519   1.088   3.568  0.5030  1.1784  1.3991
 3065TIP3   OH230609   1.255   1.475  13.747  0.2275 -0.2484 -0.6665
 3065TIP3    H130610   1.198   1.515  13.682 -2.5347  0.3055  1.8648
 3065TIP3    H230611   1.312   1.546  13.777 -1.3424  0.6297  0.3706
 3066TIP3   OH230612   1.644   1.511   5.277  0.0263 -0.3855 -0.2864
 3066TIP3    H130613   1.657   1.462   5.358  2.4793  1.7017  0.7139
 3066TIP3    H230614   1.714   1.576   5.276 -0.5813  0.4094 -3.5720
 3067TIP3   OH230615   0.949   6.295   0.421  0.6384  0.3274  0.2997
 3067TIP3    H130616   0.998   6.368   0.384  0.1641 -0.0750 -1.1894
 3067TIP3    H230617   1.013   6.246   0.472  1.1406  1.3328  0.6636
 3068TIP3   OH230618   2.450   4.126   3.274  0.3561 -0.2488 -0.4309
 3068TIP3    H130619   2.544   4.129   3.257  0.6585 -1.2249  0.8820
 3068TIP3    H230620   2.418   4.212   3.246  1.2496 -0.6302 -2.8579
 3069TIP3   OH230621   5.315   4.180   2.619 -0.3696  0.5787  0.2853
 3069TIP3    H130622   5.284   4.133   2.696  0.7752  0.5509  0.7595
 3069TIP3    H230623   5.240   4.182   2.559 -0.4149 -2.0880  0.1349
 3070TIP3   OH230624   3.666   6.138   1.280 -0.1912 -0.1720  0.2612
 3070TIP3    H130625   3.684   6.093   1.198 -1.3288 -0.6627  0.2472
 3070TIP3    H230626   3.636   6.225   1.254  0.8094  0.1735  0.2320
 3071TIP3   OH230627   6.287   4.867   2.804  0.6672 -0.5243 -0.5988
 3071TIP3    H130628   6.236   4.796   2.843 -0.0527 -0.5066 -1.4710
 3071TIP3    H230629   6.223   4.916   2.752  1.2978  0.3424 -0.5817
 3072TIP3   OH230630   0.515   0.959  16.813  0.5132 -0.4093  0.2482
 3072TIP3    H130631   0.596   0.941  16.861  0.0988 -0.7278  0.8417
 3072TIP3    H230632   0.534   0.934  16.723  0.5149 -2.1760  0.7100
 3073TIP3   OH230633   2.392   5.059  12.775  0.5781 -0.2681 -0.1977
 3073TIP3    H130634   2.364   5.016  12.855 -0.0262  1.8714  0.7905
 3073TIP3    H230635   2.311   5.088  12.733  0.7820 -2.4167 -2.2877
 3074TIP3   OH230636   5.154   6.640   2.342  0.1486 -0.1278 -0.2324
 3074TIP3    H130637   5.229   6.642   2.402 -0.1472 -2.6307  0.3088
 3074TIP3    H230638   5.123   6.731   2.340  0.3465  0.1442  3.1969
 3075TIP3   OH230639   1.091   0.025   2.509 -0.9661  0.4343  0.0327
 3075TIP3    H130640   1.033   0.042   2.583 -2.0874 -0.0376 -0.7231
 3075TIP3    H230641   1.152  -0.042   2.542 -2.1625 -0.6182  0.2044
 3076TIP3   OH230642   3.853   3.899   2.631  0.0327 -0.3099 -0.1427
 3076TIP3    H130643   3.775   3.912   2.577  0.8337  1.7221 -0.8914
 3076TIP3    H230644   3.881   3.809   2.611 -1.4899 -0.7067 -0.6488
 3077TIP3   OH230645   0.793   1.030  12.563  0.1144  0.3460  0.0345
 3077TIP3    H130646   0.724   1.090  12.535  0.0515 -0.1755 -0.9768
 3077TIP3    H230647   0.855   1.086  12.611  1.2640  1.7739 -2.8790
 3078TIP3   OH230648   1.932   1.703   3.778 -0.4604  0.4967  0.4791
 3078TIP3    H130649   1.939   1.772   3.711  3.6236 -0.0818 -0.0076
 3078TIP3    H230650   1.889   1.631   3.733 -0.8430  1.2716 -0.4391
 3079TIP3   OH230651   6.775   4.414   1.166  0.7362 -0.4396 -0.6631
 3079TIP3    H130652   6.717   4.359   1.114 -1.2337  1.3206 -0.4847
 3079TIP3    H230653   6.720   4.488   1.193  2.2255 -0.2122  2.1793
 3080TIP3   OH230654   2.397   5.838   0.521 -0.2104 -0.2787 -0.3632
 3080TIP3    H130655   2.483   5.867   0.553 -1.2995  1.8457  0.8593
 3080TIP3    H230656   2.416   5.796   0.437  1.8614  1.5738 -0.9259
 3081TIP3   OH230657   1.321   5.316   4.794 -0.0952  0.2787  0.1631
 3081TIP3    H130658   1.315   5.409   4.816 -2.8390  0.1539  0.3461
 3081TIP3    H230659   1.415   5.298   4.788  0.5493  2.6677  1.7714
 3082TIP3   OH230660   3.643   2.204  15.187 -0.0033  0.3188  0.3993
 3082TIP3    H130661   3.596   2.266  15.244 -1.4268  0.2705 -0.6568
 3082TIP3    H230662   3.693   2.258  15.127  1.4231  0.3715  1.5864
 3083TIP3   OH230663   1.159   0.576   2.700 -0.3415  0.0586  0.1858
 3083TIP3    H130664   1.220   0.541   2.635 -1.4685 -0.1780 -0.7908
 3083TIP3    H230665   1.181   0.669   2.706 -1.6033  0.6207 -2.2547
 3084TIP3   OH230666   4.446   4.027   2.486  0.7285 -0.4332 -0.2801
 3084TIP3    H130667   4.420   3.943   2.525  0.2464 -0.4448 -0.6122
 3084TIP3    H230668   4.458   4.086   2.560 -2.7203  0.3090 -0.1137
 3085TIP3   OH230669   1.522   5.193   0.642  0.0681 -0.1496  0.3518
 3085TIP3    H130670   1.526   5.125   0.575 -0.5596  0.2636 -0.1204
 3085TIP3    H230671   1.576   5.160   0.713  1.4018 -0.2570 -0.6680
 3086TIP3   OH230672   3.913   4.079  12.657 -0.3223 -0.3467  0.3233
 3086TIP3    H130673   3.916   4.007  12.720 -0.0791 -0.1256  0.5687
 3086TIP3    H230674   3.841   4.058  12.599  1.8393 -2.6302 -1.7861
 3087TIP3   OH230675   2.411   0.415   2.968 -0.9887  0.0915  0.1613
 3087TIP3    H130676   2.319   0.430   2.945 -0.2182  2.8114 -1.6723
 3087TIP3    H230677   2.442   0.499   3.000  0.8911 -0.7753  0.7667
 3088TIP3   OH230678   0.319   3.103   2.006 -0.3984 -0.7462 -0.1635
 3088TIP3    H130679   0.403   3.140   2.032 -0.1769 -1.4423  0.1265
 3088TIP3    H230680   0.328   3.010   2.023 -1.2557 -0.8148 -0.0664
 3089TIP3   OH230681   3.416   2.120   3.589 -0.4290 -0.1144  0.7614
 3089TIP3    H130682   3.328   2.112   3.626 -1.0532 -0.3122 -0.6951
 3089TIP3    H230683   3.408   2.087   3.500  0.8594  0.9903  0.1979
 3090TIP3   OH230684   6.263   6.703   3.866 -0.3769 -0.1884 -0.7820
 3090TIP3    H130685   6.303   6.663   3.788  0.1989 -0.5447 -0.3174
 3090TIP3    H230686   6.236   6.628   3.920 -0.5534  0.0543 -0.5299
 3091TIP3   OH230687   0.388   4.820  16.286  1.0016  0.4038 -0.0913
 3091TIP3    H130688   0.413   4.912  16.294  2.0781  0.2057 -0.9841
 3091TIP3    H230689   0.293   4.821  16.294  0.8876  1.7452 -1.1565
 3092TIP3   OH230690   4.509   4.486  16.326  0.2607 -0.4359  0.0739
 3092TIP3    H130691   4.562   4.409  16.305  0.0407 -0.8926  1.1244
 3092TIP3    H230692   4.548   4.521  16.407 -1.7875 -1.5836  1.6755
 3093TIP3   OH230693   5.281   5.113  10.489  0.6491  0.5267  0.6523
 3093TIP3    H130694   5.359   5.167  10.502  0.3217  1.0212  0.5453
 3093TIP3    H230695   5.215   5.172  10.454  0.4042 -0.0158  0.1674
 3094TIP3   OH230696   6.150   3.588  10.212 -0.3085 -0.1265 -0.0057
 3094TIP3    H130697   6.144   3.499  10.247  0.4992 -0.0916  0.2372
 3094TIP3    H230698   6.059   3.614  10.198 -0.5549 -1.7255 -1.9642
 3095TIP3   OH230699   2.212   1.027  14.344 -0.0991 -0.0274  0.5075
 3095TIP3    H130700   2.273   1.094  14.313 -1.4124  0.2639 -1.6815
 3095TIP3    H230701   2.167   0.997  14.265 -0.1100 -2.9897  1.5004
 3096TIP3   OH230702   0.093   1.525   2.607 -0.2256 -0.1769 -0.1263
 3096TIP3    H130703   0.014   1.544   2.558 -1.9056 -3.6438  0.9442
 3096TIP3    H230704   0.161   1.515   2.541 -1.3379  0.0029 -1.3207
 3097TIP3   OH230705   6.272   1.750   4.529 -0.7346 -0.1384  0.3124
 3097TIP3    H130706   6.252   1.729   4.620 -2.3575 -3.7323 -0.6934
 3097TIP3    H230707   6.215   1.823   4.508  1.6286  2.7041  2.7654
 3098TIP3   OH230708   3.419   2.573   5.192 -0.4840  0.2408 -0.1297
 3098TIP3    H130709   3.492   2.544   5.137  0.6459  0.6061  1.1115
 3098TIP3    H230710   3.461   2.624   5.261 -1.8963  0.0994  0.8591
 3099TIP3   OH230711   3.701   1.443  15.417  0.9088 -0.1399  0.3590
 3099TIP3    H130712   3.796   1.437  15.406  0.7327 -0.7004 -1.1046
 3099TIP3    H230713   3.669   1.469  15.330 -0.4289 -1.8931  0.2872
 3100TIP3   OH230714   4.102   4.507   3.579 -0.1618 -0.5624  0.1925
 3100TIP3    H130715   4.015   4.497   3.540  0.2045 -1.7347 -0.3808
 3100TIP3    H230716   4.087   4.509   3.673 -0.7320 -1.8137  0.1440
 3101TIP3   OH230717   5.765   6.014  13.218 -0.1139 -0.9820  0.1412
 3101TIP3    H130718   5.698   6.076  13.247  0.9529 -0.7706  2.3873
 3101TIP3    H230719   5.826   6.067  13.168  0.0638 -0.4817  0.8648
 3102TIP3   OH230720   5.486   6.165  14.570  0.2438  0.0319  0.3383
 3102TIP3    H130721   5.530   6.096  14.620  1.2502  0.4158  0.0015
 3102TIP3    H230722   5.433   6.117  14.505  1.6134 -0.4472 -0.4781
 3103TIP3   OH230723   1.828   2.116   1.510  0.2978 -0.1102  0.3886
 3103TIP3    H130724   1.849   2.063   1.587  1.1216 -0.3601  0.0000
 3103TIP3    H230725   1.782   2.056   1.451  1.8245 -0.6270 -0.3420
 3104TIP3   OH230726   1.009   3.365  11.609 -0.2538  0.1127 -0.3728
 3104TIP3    H130727   1.033   3.443  11.660 -0.6714  0.6262 -0.9540
 3104TIP3    H230728   0.926   3.337  11.646 -1.3544  1.3998 -1.7438
 3105TIP3   OH230729   0.511   1.057   2.101 -0.0690  0.6564 -1.1145
 3105TIP3    H130730   0.601   1.081   2.123  0.5531 -0.7960 -1.9558
 3105TIP3    H230731   0.496   1.096   2.015 -0.0938  0.5512 -1.1582
 3106TIP3   OH230732   3.289   5.302  17.007  0.1676  0.4672 -0.3310
 3106TIP3    H130733   3.198   5.285  17.030  0.3411  0.2743  0.2336
 3106TIP3    H230734   3.299   5.397  17.019 -0.0436  0.5456 -0.7297
 3107TIP3   OH230735   3.490   4.226   1.189 -0.5257  0.2088  0.1526
 3107TIP3    H130736   3.511   4.250   1.279 -1.0548 -0.2097  0.3941
 3107TIP3    H230737   3.575   4.215   1.146 -0.2452 -0.7877  0.9308
 3108TIP3   OH230738   4.967   1.534   1.460  0.2341 -0.0410 -0.3823
 3108TIP3    H130739   4.935   1.486   1.384  1.0106 -0.3382 -0.5418
 3108TIP3    H230740   4.894   1.587   1.489 -0.8263 -1.6688  0.0751
 3109TIP3   OH230741   3.435   0.677  13.053  0.6808 -0.6689  0.6923
 3109TIP3    H130742   3.375   0.617  13.097 -1.5339  0.0283 -1.2171
 3109TIP3    H230743   3.383   0.755  13.035  3.0598  1.3077  1.7336
 3110TIP3   OH230744   1.911   6.621  16.022  0.3444  0.3953  0.3492
 3110TIP3    H130745   2.005   6.623  16.036  0.2867 -0.7699  0.9780
 3110TIP3    H230746   1.875   6.678  16.090  0.6249  1.6504 -0.4999
 3111TIP3   OH230747   5.797   6.832   2.166  0.4866 -0.0479  0.2478
 3111TIP3    H130748   5.845   6.915   2.157 -0.3183  0.4385  0.3643
 3111TIP3    H230749   5.752   6.822   2.082  1.4818 -0.9535 -0.1929
 3112TIP3   OH230750   4.371   4.021  13.395  0.7242  0.0224  0.0082
 3112TIP3    H130751   4.408   4.024  13.483  0.4887 -0.6090  0.1337
 3112TIP3    H230752   4.298   3.960  13.402  0.0735  0.7429 -0.3942
 3113TIP3   OH230753   1.579   2.878   4.034  0.4642  0.4827 -0.6053
 3113TIP3    H130754   1.557   2.859   4.126  2.5368  1.2717  0.1182
 3113TIP3    H230755   1.635   2.955   4.039  1.8925 -0.3844 -2.4047
 3114TIP3   OH230756   0.158   4.398   2.262 -0.1117 -0.1137 -0.0955
 3114TIP3    H130757   0.195   4.344   2.192  1.0564  1.0633 -0.4342
 3114TIP3    H230758   0.186   4.355   2.343 -0.3036 -0.7328 -0.3541
 3115TIP3   OH230759   1.755   5.538   0.763  0.2683 -0.5571  0.1186
 3115TIP3    H130760   1.826   5.576   0.814 -0.3916  1.8362 -0.6468
 3115TIP3    H230761   1.724   5.464   0.815  2.4516 -0.8706  1.0605
 3116TIP3   OH230762   4.755   1.588  10.616  0.5857 -0.2498  0.6503
 3116TIP3    H130763   4.782   1.563  10.528  0.0788  1.0483  0.1023
 3116TIP3    H230764   4.731   1.680  10.608 -0.1042 -0.2945  2.0107
 3117TIP3   OH230765   1.036   1.177  13.538 -0.0028  0.7119 -0.2399
 3117TIP3    H130766   1.108   1.177  13.600 -0.4819  0.3831  0.3254
 3117TIP3    H230767   0.990   1.095  13.554  0.3091  0.2459 -1.5653
 3118TIP3   OH230768   3.554   2.427  15.549 -0.1453 -0.2101  0.2802
 3118TIP3    H130769   3.513   2.405  15.465 -0.3904  1.1725 -0.0017
 3118TIP3    H230770   3.648   2.425  15.533 -0.0395 -3.1033  0.8478
 3119TIP3   OH230771   5.348   4.828  16.433  0.0475  0.0067  0.0704
 3119TIP3    H130772   5.306   4.810  16.517  1.6790 -0.6652  0.7929
 3119TIP3    H230773   5.426   4.772  16.433  2.2722  2.8730 -0.1474
 3120TIP3   OH230774   3.219   0.528  14.690  0.1792 -0.3312  0.8576
 3120TIP3    H130775   3.217   0.460  14.623 -0.2120  1.4461 -1.0651
 3120TIP3    H230776   3.264   0.601  14.647 -0.0201  0.8621  2.5912
 3121TIP3   OH230777   0.928   6.752   4.403 -0.1467  0.2569  0.2398
 3121TIP3    H130778   0.841   6.774   4.435 -0.2641 -0.4275  0.4252
 3121TIP3    H230779   0.984   6.823   4.433 -0.6905  0.8682 -0.1501
 3122TIP3   OH230780   3.074   6.282  10.803  0.5763 -0.3264  0.4105
 3122TIP3    H130781   2.986   6.259  10.833  0.6503  0.8227  1.5855
 3122TIP3    H230782   3.065   6.293  10.708 -0.5002 -0.3980  0.4925
 3123TIP3   OH230783   3.072   5.297   1.377  0.2302  0.5299  0.2108
 3123TIP3    H130784   2.991   5.287   1.327  1.0019  0.1868 -0.9894
 3123TIP3    H230785   3.117   5.371   1.337  1.4656 -0.5573 -0.4732
 3124TIP3   OH230786   4.681   1.847   0.824 -0.1701  0.2875 -0.6030
 3124TIP3    H130787   4.737   1.852   0.902 -0.6998 -0.3521 -0.1728
 3124TIP3    H230788   4.647   1.936   0.813  0.1157  0.4415 -0.2659
 3125TIP3   OH230789   1.439   2.625  13.478  0.4535  0.1444 -0.0615
 3125TIP3    H130790   1.491   2.698  13.512  0.6551  0.0352 -0.1401
 3125TIP3    H230791   1.388   2.595  13.554  1.3256 -0.4751  0.2831
 3126TIP3   OH230792   6.282   4.539  12.567 -0.3692 -0.0858  0.2821
 3126TIP3    H130793   6.337   4.578  12.499 -1.9736  0.8455 -0.5473
 3126TIP3    H230794   6.343   4.490  12.621  0.9450 -1.1601 -2.0124
 3127TIP3   OH230795   6.174   3.068   4.220 -0.4795  0.3557  0.8180
 3127TIP3    H130796   6.080   3.073   4.205 -0.0514  0.7095 -2.2848
 3127TIP3    H230797   6.196   2.976   4.202 -0.1486  0.3959  1.0061
 3128TIP3   OH230798   1.291   5.078  11.087  0.0566  0.1153  0.0005
 3128TIP3    H130799   1.302   5.173  11.093 -0.3708  0.1200  1.0786
 3128TIP3    H230800   1.278   5.061  10.994  2.2140  0.8579 -0.5008
 3129TIP3   OH230801   6.165   6.588  10.234 -0.4477  0.4484 -0.9407
 3129TIP3    H130802   6.118   6.607  10.153 -0.6587  0.0723 -0.9084
 3129TIP3    H230803   6.119   6.640  10.300 -2.4901 -1.8641 -0.4240
 3130TIP3   OH230804   0.193   1.306   6.217  1.0465  0.4780  0.0982
 3130TIP3    H130805   0.132   1.329   6.148 -0.4023  0.2359  1.2557
 3130TIP3    H230806   0.244   1.385   6.233 -1.4863  1.9423  1.6190
 3131TIP3   OH230807   1.826   4.811   2.493  0.3366  0.1322 -0.2664
 3131TIP3    H130808   1.782   4.829   2.410 -0.0312 -0.7146 -0.2603
 3131TIP3    H230809   1.911   4.855   2.485  0.5366 -0.4235 -1.3248
 3132TIP3   OH230810   6.719   2.028   4.128 -0.2577 -0.0787  0.1165
 3132TIP3    H130811   6.669   2.109   4.138 -0.9195 -0.3367 -0.9919
 3132TIP3    H230812   6.789   2.035   4.193 -0.1895  1.4646 -0.0924
 3133TIP3   OH230813   6.162   3.612  15.767 -0.2063  0.1366 -0.6960
 3133TIP3    H130814   6.133   3.665  15.693 -0.3578  0.4783 -0.3925
 3133TIP3    H230815   6.189   3.529  15.728  0.5157  0.6139 -1.2331
 3134TIP3   OH230816   2.627   2.058  13.077 -0.3369 -0.3450 -0.0575
 3134TIP3    H130817   2.569   2.123  13.036  0.1345 -1.6046 -2.9844
 3134TIP3    H230818   2.583   2.034  13.158 -4.1450 -1.4280 -2.2057
 3135TIP3   OH230819   6.107   4.519  13.551  0.3313  0.6445  0.0644
 3135TIP3    H130820   6.037   4.462  13.582  0.0964  0.8356 -0.1128
 3135TIP3    H230821   6.096   4.600  13.600  0.5499  0.6053  0.1797
 3136TIP3   OH230822   3.981   1.850  13.927  0.1675  0.2173 -0.5436
 3136TIP3    H130823   3.887   1.836  13.931  0.4973 -1.9283  1.8504
 3136TIP3    H230824   4.007   1.813  13.842 -0.7906 -2.1741  0.1305
 3137TIP3   OH230825   4.345   0.028  14.465 -0.3017 -0.1568 -0.2473
 3137TIP3    H130826   4.310  -0.045  14.517  0.5586  0.1189  0.7718
 3137TIP3    H230827   4.287   0.034  14.390 -1.2100 -1.0072  0.3536
 3138TIP3   OH230828   0.846   3.464  13.747 -0.3754 -0.0087  0.4048
 3138TIP3    H130829   0.867   3.429  13.833  0.5157 -0.7532 -0.0958
 3138TIP3    H230830   0.923   3.444  13.693 -0.4890  1.3286 -0.3154
 3139TIP3   OH230831   6.055   4.259   1.150 -0.0005  0.2729  0.3931
 3139TIP3    H130832   6.094   4.216   1.226 -0.7319  1.0963  1.2478
 3139TIP3    H230833   6.090   4.210   1.075  1.7020  0.2159  1.1737
 3140TIP3   OH230834   5.332   5.463  12.048  0.1166 -0.2190  0.3204
 3140TIP3    H130835   5.352   5.491  11.958  1.0821  2.2715  1.2191
 3140TIP3    H230836   5.294   5.376  12.038 -0.5345  0.2944 -2.5617
 3141TIP3   OH230837   2.401   0.295   5.059  0.0326  0.2505  0.3270
 3141TIP3    H130838   2.332   0.230   5.073 -2.2177  2.7236  1.7028
 3141TIP3    H230839   2.404   0.344   5.141  1.1029  2.3126 -0.8604
 3142TIP3   OH230840   4.128   6.659   0.270  0.1387 -0.3257  0.3888
 3142TIP3    H130841   4.093   6.645   0.358 -1.3568 -2.5504 -0.4645
 3142TIP3    H230842   4.076   6.730   0.233  1.6569  1.5616  1.6672
 3143TIP3   OH230843   5.621   0.404   1.470 -0.1098  0.0359 -0.0979
 3143TIP3    H130844   5.706   0.363   1.453  0.1387  0.1812  0.7440
 3143TIP3    H230845   5.585   0.421   1.383  0.6890 -0.0990 -0.4663
 3144TIP3   OH230846   0.032   4.601   5.390  0.1519  0.1242  0.2389
 3144TIP3    H130847  -0.055   4.637   5.406 -0.1835 -0.9030  0.8183
 3144TIP3    H230848   0.040   4.528   5.452  1.6976  0.6270  0.6684
 3145TIP3   OH230849   1.576   1.070  12.691 -0.0300  0.2022 -0.4356
 3145TIP3    H130850   1.602   0.987  12.729  0.9723  0.5287 -0.3937
 3145TIP3    H230851   1.606   1.067  12.601 -0.2267  0.4146 -0.5115
 3146TIP3   OH230852   4.062   4.484   5.523  0.0683 -0.4064 -0.0064
 3146TIP3    H130853   4.072   4.555   5.587  0.1343 -0.9471  0.5907
 3146TIP3    H230854   4.146   4.481   5.478 -0.5459  1.1388 -1.3634
 3147TIP3   OH230855   2.429   3.422   2.831  0.4756  0.2235 -0.1357
 3147TIP3    H130856   2.407   3.338   2.790 -0.7810  1.0814 -1.3394
 3147TIP3    H230857   2.431   3.484   2.758 -0.2285  1.5317  0.9081
 3148TIP3   OH230858   2.002   4.013  11.663 -0.0673  0.1645 -1.0289
 3148TIP3    H130859   2.058   4.087  11.689  0.8069 -0.8076 -0.0651
 3148TIP3    H230860   2.040   3.982  11.580  1.4629 -1.0625  0.0619
 3149TIP3   OH230861   0.967   6.651   2.078 -0.0379 -0.1429 -0.1974
 3149TIP3    H130862   0.966   6.566   2.033 -0.2457  0.3517 -1.1555
 3149TIP3    H230863   0.906   6.705   2.029 -0.6087  0.3053  0.9610
 3150TIP3   OH230864   1.940   5.018   1.426  1.5346 -0.0256 -0.1429
 3150TIP3    H130865   1.897   5.083   1.371 -1.0285 -0.7940  0.8175
 3150TIP3    H230866   1.996   5.069   1.485  0.7944  1.1735 -0.4478
 3151TIP3   OH230867   0.018   4.015  10.181 -0.1760  0.2040 -0.0461
 3151TIP3    H130868   0.062   4.011  10.266 -1.7396  0.5243  0.8102
 3151TIP3    H230869   0.043   3.934  10.138  1.1549  0.3287  0.4462
 3152TIP3   OH230870   2.878   2.185  13.068 -0.3213 -0.3567  0.1495
 3152TIP3    H130871   2.790   2.147  13.067 -1.6260  2.4038  0.2854
 3152TIP3    H230872   2.894   2.210  12.977  0.0811 -0.3287  0.2277
 3153TIP3   OH230873   2.130   6.139   0.503  0.1152  0.1210  1.0026
 3153TIP3    H130874   2.051   6.099   0.466  1.4317 -1.2398 -0.4719
 3153TIP3    H230875   2.121   6.232   0.482 -0.2798 -0.2756 -0.7392
 3154TIP3   OH230876   3.436   0.988   2.633  0.2432  0.1364  0.0959
 3154TIP3    H130877   3.436   0.980   2.537  2.1316  1.1014 -0.0438
 3154TIP3    H230878   3.448   1.082   2.648  1.0994 -0.1420  1.2538
 3155TIP3   OH230879   4.439   5.465  13.085  0.2178  0.2715  0.1910
 3155TIP3    H130880   4.437   5.401  13.155 -2.5238 -0.4860 -0.4661
 3155TIP3    H230881   4.442   5.414  13.004  3.3524  1.1239 -0.3750
 3156TIP3   OH230882   0.914   5.732  11.073  0.5806 -0.4319  0.1605
 3156TIP3    H130883   0.903   5.822  11.102 -0.4851  0.5610 -2.9367
 3156TIP3    H230884   0.875   5.730  10.985 -0.4647 -4.1827  0.5243
 3157TIP3   OH230885   3.622   5.129  14.984  0.0004  0.3969 -0.4321
 3157TIP3    H130886   3.647   5.104  15.072  1.1289 -1.2057 -1.1533
 3157TIP3    H230887   3.681   5.201  14.961  1.2278 -0.6365 -0.6331
 3158TIP3   OH230888   1.412   0.217  16.684 -0.5700  0.1167 -0.0912
 3158TIP3    H130889   1.411   0.280  16.611  0.3210 -1.8404 -1.9141
 3158TIP3    H230890   1.494   0.236  16.730 -1.0530  1.2649  0.3314
 3159TIP3   OH230891   2.798   2.038  16.312  0.0532  0.1215 -0.4974
 3159TIP3    H130892   2.855   1.969  16.346 -2.2139 -0.8675  1.5558
 3159TIP3    H230893   2.776   2.010  16.223  2.9236  0.7324 -1.5245
 3160TIP3   OH230894   1.923   1.159  12.810 -0.6221 -0.1686 -0.1983
 3160TIP3    H130895   2.015   1.136  12.800 -0.4654 -0.0530  0.8854
 3160TIP3    H230896   1.882   1.079  12.841 -0.9135 -0.2468 -0.7673
 3161TIP3   OH230897   2.299   4.112   3.991 -0.3600 -0.3470 -0.0427
 3161TIP3    H130898   2.270   4.147   4.075  1.9128 -1.2112  1.1995
 3161TIP3    H230899   2.389   4.084   4.007  0.6852  0.7922 -3.1669
 3162TIP3   OH230900   5.283   1.240   5.275 -0.2029 -0.1046 -0.2368
 3162TIP3    H130901   5.249   1.161   5.317  0.8748  0.1530  1.2143
 3162TIP3    H230902   5.217   1.264   5.210 -0.6900 -2.0156 -0.4955
 3163TIP3   OH230903   6.819   3.170  14.129  0.4441  0.1787  0.0844
 3163TIP3    H130904   6.746   3.201  14.075  0.1392 -1.4184 -0.4647
 3163TIP3    H230905   6.784   3.166  14.218  0.0521  0.0321 -0.0740
 3164TIP3   OH230906   5.936   4.188  15.015 -0.5537 -0.0115  0.0042
 3164TIP3    H130907   6.023   4.162  15.046 -1.1201 -0.0128  1.7106
 3164TIP3    H230908   5.876   4.154  15.082 -1.8971 -0.1983 -1.2476
 3165TIP3   OH230909   5.287   2.387   4.134 -0.4216  0.4065 -0.1117
 3165TIP3    H130910   5.309   2.332   4.059  2.1671  1.6277 -0.3275
 3165TIP3    H230911   5.285   2.326   4.208  0.4533 -0.2740 -0.6366
 3166TIP3   OH230912   2.025   5.368  10.432  0.1315 -0.1576 -0.2976
 3166TIP3    H130913   2.057   5.421  10.359  1.4202  0.0978  0.4207
 3166TIP3    H230914   2.042   5.278  10.404  1.0163 -0.0464 -0.1579
 3167TIP3   OH230915   5.179   5.116   5.458  0.3920 -0.2768 -0.3192
 3167TIP3    H130916   5.134   5.174   5.397  0.9061  1.8392  1.1924
 3167TIP3    H230917   5.223   5.175   5.519  1.5967 -2.2873  0.8658
 3168TIP3   OH230918   3.407   5.999   0.418 -0.1845 -0.8121 -0.1992
 3168TIP3    H130919   3.426   6.014   0.325 -0.4267 -0.0989 -0.1426
 3168TIP3    H230920   3.449   6.073   0.463 -0.8958 -0.6183  0.1627
 3169TIP3   OH230921   5.701   0.438  10.974 -0.0128 -0.4476  0.2232
 3169TIP3    H130922   5.721   0.427  10.881  0.7127  1.7334  0.0508
 3169TIP3    H230923   5.703   0.533  10.988 -1.2287 -0.6504  2.2386
 3170TIP3   OH230924   4.420   0.910   3.835 -0.1842 -0.4989  0.2339
 3170TIP3    H130925   4.489   0.921   3.900 -0.8103 -0.9368  0.9827
 3170TIP3    H230926   4.339   0.931   3.882 -0.5708 -0.0289 -0.6202
 3171TIP3   OH230927   6.049   2.065   5.090  0.7803 -0.4273  0.1884
 3171TIP3    H130928   5.994   2.005   5.041  1.7289 -0.8530 -0.3923
 3171TIP3    H230929   6.063   2.022   5.175 -1.3236  0.5693  1.1040
 3172TIP3   OH230930   0.169   2.009  14.688 -0.4590  0.7477  0.0054
 3172TIP3    H130931   0.103   1.965  14.742 -2.5882  2.5213 -1.0326
 3172TIP3    H230932   0.197   1.942  14.626 -0.3979 -0.3631  1.1819
 3173TIP3   OH230933   2.794   4.704  14.222  0.3754 -0.2481  0.1810
 3173TIP3    H130934   2.711   4.703  14.175  0.0590  1.5392  0.6317
 3173TIP3    H230935   2.771   4.730  14.312  1.4555  0.6643  0.2121
 3174TIP3   OH230936   5.914   4.455   2.360 -0.2623  0.1096 -0.8958
 3174TIP3    H130937   5.938   4.368   2.394  1.8805  0.9275 -0.1719
 3174TIP3    H230938   5.911   4.443   2.265  1.8886 -0.3877 -0.9503
 3175TIP3   OH230939   4.276   1.135   2.984 -0.3655  0.1942 -0.0567
 3175TIP3    H130940   4.352   1.094   3.026  0.5232  0.9342 -0.8821
 3175TIP3    H230941   4.273   1.223   3.021 -0.0354  0.5910 -0.9391
 3176TIP3   OH230942   5.009   5.795   1.541  0.4489  0.0964 -0.5428
 3176TIP3    H130943   5.048   5.868   1.590  0.3009 -0.6762  0.7668
 3176TIP3    H230944   5.077   5.770   1.479  1.5463 -0.3261  0.7742
 3177TIP3   OH230945   0.879   3.393  16.237  0.4429  0.5617 -0.6026
 3177TIP3    H130946   0.865   3.487  16.228  0.0328  0.9227  2.6363
 3177TIP3    H230947   0.964   3.385  16.279 -0.3185 -0.3406  0.8810
 3178TIP3   OH230948   1.253   5.611  13.704 -0.4851 -0.2530  0.2557
 3178TIP3    H130949   1.173   5.587  13.659 -0.6661  0.1689  0.3494
 3178TIP3    H230950   1.321   5.609  13.636 -0.6561 -0.1691  0.0844
 3179TIP3   OH230951   2.479   3.605  12.546  0.6848 -0.1494 -0.2410
 3179TIP3    H130952   2.389   3.575  12.550  0.5203  0.2329 -0.8947
 3179TIP3    H230953   2.473   3.700  12.543  1.1622 -0.0745  0.8440
 3180TIP3   OH230954   3.411   1.873  13.165 -0.4797 -0.5300 -0.0676
 3180TIP3    H130955   3.427   1.958  13.124  0.1464  0.3260  1.8447
 3180TIP3    H230956   3.493   1.852  13.209 -1.9547  0.0973  3.2606
 3181TIP3   OH230957   0.877   2.025  16.063 -0.0925  0.2009 -0.1283
 3181TIP3    H130958   0.806   2.034  16.126  0.2048  1.1543  0.0871
 3181TIP3    H230959   0.942   1.971  16.109  0.3520  1.3217  0.6198
 3182TIP3   OH230960   3.808   3.615  11.970 -0.4168 -0.3239 -0.0221
 3182TIP3    H130961   3.892   3.659  11.982 -0.9389  0.4635  0.8995
 3182TIP3    H230962   3.827   3.542  11.912  0.9521 -0.3046  0.3756
 3183TIP3   OH230963   3.748   0.716  11.534  0.3953 -0.3758  0.6763
 3183TIP3    H130964   3.668   0.665  11.549  0.4707 -0.3047  1.3604
 3183TIP3    H230965   3.803   0.660  11.479 -0.1855 -0.3621  0.0777
 3184TIP3   OH230966   1.316   3.167  11.221 -0.7064 -0.2450 -0.1034
 3184TIP3    H130967   1.256   3.212  11.281  0.6639 -0.3467  1.3913
 3184TIP3    H230968   1.337   3.232  11.154  1.3031  1.4811  2.0528
 3185TIP3   OH230969   0.298   6.500  16.295 -0.8521  0.6446 -0.5482
 3185TIP3    H130970   0.319   6.407  16.290  1.7754  1.1278 -0.0365
 3185TIP3    H230971   0.207   6.503  16.323 -0.2619 -1.7974  2.0206
 3186TIP3   OH230972   5.631   1.585  13.928 -0.7577  0.3364  0.1284
 3186TIP3    H130973   5.688   1.537  13.990 -0.5432  1.0214  0.4689
 3186TIP3    H230974   5.686   1.656  13.896 -0.8195 -0.1103 -0.9887
 3187TIP3   OH230975   0.233   5.880  16.702  0.1708 -0.3125 -0.8862
 3187TIP3    H130976   0.246   5.813  16.769 -0.3263  0.9209  0.5156
 3187TIP3    H230977   0.145   5.863  16.668 -0.4802  0.3467  0.3808
 3188TIP3   OH230978   6.734   5.827   1.648  0.0508 -0.4362 -0.1318
 3188TIP3    H130979   6.689   5.789   1.572  1.2891  0.0948 -1.1737
 3188TIP3    H230980   6.757   5.752   1.702  2.2914 -1.2844 -2.0609
 3189TIP3   OH230981   2.503   3.253   2.158  0.3556  0.2267  0.3793
 3189TIP3    H130982   2.508   3.247   2.253  1.6585  1.1467  0.3898
 3189TIP3    H230983   2.567   3.189   2.127 -0.2094 -0.2166  0.0966
 3190TIP3   OH230984   3.725   2.807   3.974 -0.6046 -0.5515 -0.1495
 3190TIP3    H130985   3.632   2.784   3.976 -0.2378 -2.1571  0.4963
 3190TIP3    H230986   3.738   2.865   4.049 -1.0796 -0.2896 -0.2686
 3191TIP3   OH230987   6.271   4.950   1.483 -0.6547 -0.1471  0.2281
 3191TIP3    H130988   6.291   4.903   1.564 -0.2213 -1.6606 -0.7118
 3191TIP3    H230989   6.213   5.022   1.510  0.8744  0.4657  2.1082
 3192TIP3   OH230990   6.104   0.461  16.231 -0.4957  0.0957  0.2303
 3192TIP3    H130991   6.056   0.534  16.271  0.1538  0.3763  0.5091
 3192TIP3    H230992   6.161   0.429  16.300 -0.3365 -0.2856 -0.0735
 3193TIP3   OH230993   1.569   0.601   0.874  0.3150  0.2346  0.1073
 3193TIP3    H130994   1.558   0.531   0.938  0.6156  1.0679  1.1063
 3193TIP3    H230995   1.594   0.557   0.793  0.9960 -0.7811  0.8448
 3194TIP3   OH230996   4.861   5.518   1.568  0.0408 -0.0951  0.1556
 3194TIP3    H130997   4.873   5.613   1.563  1.1683 -0.2557 -0.6814
 3194TIP3    H230998   4.944   5.485   1.601  0.2334 -0.9042 -1.0731
 3195TIP3   OH230999   4.271   3.194   0.954  0.1090 -0.0122  0.5695
 3195TIP3    H131000   4.222   3.211   0.873  1.7517 -1.1233 -0.7281
 3195TIP3    H231001   4.330   3.269   0.962  0.6438 -0.3740  0.1472
 3196TIP3   OH231002   2.884   2.460  13.540 -0.1800 -0.8524 -0.2187
 3196TIP3    H131003   2.821   2.423  13.477 -0.1713 -0.6861 -0.3271
 3196TIP3    H231004   2.952   2.394  13.548 -0.5880 -1.2174  0.2261
 3197TIP3   OH231005   4.957   0.923  14.475 -0.4845  0.4973  0.1999
 3197TIP3    H131006   4.882   0.868  14.499 -1.3753  1.3061 -0.6818
 3197TIP3    H231007   4.975   0.974  14.554  0.0176 -0.6394  0.8588
 3198TIP3   OH231008   5.044   0.699   0.442 -0.1416 -0.4984 -0.1713
 3198TIP3    H131009   5.065   0.773   0.386 -1.6100  1.6281  1.9167
 3198TIP3    H231010   5.113   0.697   0.508 -0.9832  0.0794  0.7438
 3199TIP3   OH231011   3.326   1.075  11.905  0.0338 -0.4120 -0.4211
 3199TIP3    H131012   3.404   1.080  11.849  0.1274  0.1304 -0.2525
 3199TIP3    H231013   3.343   1.140  11.973 -1.4586  1.2160 -1.5163
 3200TIP3   OH231014   6.130   2.903  10.793  0.0421  0.4476 -0.0057
 3200TIP3    H131015   6.127   2.965  10.865  0.3156  0.9578 -0.4200
 3200TIP3    H231016   6.210   2.853  10.808  0.1440  0.6112  0.0003
 3201TIP3   OH231017   2.598   1.029  16.056 -0.1899  0.0803  0.2962
 3201TIP3    H131018   2.528   0.981  16.101 -0.2850  0.3719  0.4658
 3201TIP3    H231019   2.657   0.961  16.024 -1.6680 -0.3359 -1.7939
 3202TIP3   OH231020   6.615   0.828  10.167  0.3933  0.6955  0.3343
 3202TIP3    H131021   6.540   0.883  10.145  0.7880  1.1331  0.0756
 3202TIP3    H231022   6.658   0.812  10.083  1.2718  1.4433  0.6417
 3203TIP3   OH231023   4.010   2.534  11.646 -0.0446  0.7292 -0.1056
 3203TIP3    H131024   3.936   2.586  11.677 -0.1619  0.3203  0.3157
 3203TIP3    H231025   4.019   2.464  11.711  0.9994  1.0321  0.1024
 3204TIP3   OH231026   0.100   5.343   5.385  0.1969  0.0357  0.1241
 3204TIP3    H131027   0.182   5.375   5.348 -0.5609  1.0125 -0.7816
 3204TIP3    H231028   0.053   5.307   5.310 -0.5002  0.1502  0.5024
 3205TIP3   OH231029   3.875   3.271  15.156 -0.1256 -0.1080  0.1689
 3205TIP3    H131030   3.963   3.248  15.184  1.1615  2.7025 -1.1611
 3205TIP3    H231031   3.873   3.250  15.063 -1.5405 -1.7764  0.5174
 3206TIP3   OH231032   4.141   5.675   4.018 -0.4840  0.2182  0.1307
 3206TIP3    H131033   4.157   5.597   3.964 -1.6422  0.4044 -0.4992
 3206TIP3    H231034   4.131   5.641   4.107 -0.1983 -0.2630 -0.0176
 3207TIP3   OH231035   1.711   5.986  14.962  0.1805  0.5274  0.6076
 3207TIP3    H131036   1.616   5.979  14.956  0.0165  2.3265  0.3237
 3207TIP3    H231037   1.741   5.992  14.871  0.4133  1.2428  0.7195
 3208TIP3   OH231038   5.959   3.879  12.761 -0.1911 -0.0721 -0.0287
 3208TIP3    H131039   6.006   3.811  12.809 -1.3333 -0.2408  0.8953
 3208TIP3    H231040   5.908   3.832  12.695 -0.2859 -0.0307  0.0149
 3209TIP3   OH231041   0.957   0.039  13.659 -0.3770  0.1402  0.3198
 3209TIP3    H131042   0.886  -0.006  13.613 -0.6626  1.4053 -0.5271
 3209TIP3    H231043   0.995  -0.027  13.716 -0.7580 -1.1744 -0.9096
 3210TIP3   OH231044   2.740   6.180  16.679  0.0885 -0.1312 -0.3680
 3210TIP3    H131045   2.690   6.107  16.717  0.5064  0.1115  0.6830
 3210TIP3    H231046   2.767   6.147  16.593 -1.6374 -0.3604 -0.8701
 3211TIP3   OH231047   2.140   2.536  15.768  0.2440 -0.0726  0.2551
 3211TIP3    H131048   2.150   2.582  15.685 -2.1042 -0.3673 -0.2775
 3211TIP3    H231049   2.055   2.565  15.802 -0.0315 -1.9023  1.2718
 3212TIP3   OH231050   4.450   3.493   1.954  0.8811 -0.3041  0.7511
 3212TIP3    H131051   4.400   3.462   1.879  1.4637 -0.9164  0.6059
 3212TIP3    H231052   4.476   3.582   1.930  2.3804 -1.0294 -0.4694
 3213TIP3   OH231053   4.351   0.402   2.147 -0.0610 -0.4383  0.2431
 3213TIP3    H131054   4.420   0.456   2.109 -1.0164  0.6544 -0.0136
 3213TIP3    H231055   4.380   0.385   2.237  0.8576 -0.5916 -0.0791
 3214TIP3   OH231056   1.475   0.805  13.867 -0.2350  0.1772 -0.7060
 3214TIP3    H131057   1.443   0.818  13.956  1.3450 -3.5191  0.5533
 3214TIP3    H231058   1.551   0.862  13.860 -0.8376  1.1005 -0.0256
 3215TIP3   OH231059   5.654   1.877   1.434 -0.4367 -0.2409  0.4416
 3215TIP3    H131060   5.710   1.855   1.359 -0.9589 -0.2407  0.0497
 3215TIP3    H231061   5.715   1.886   1.507 -0.0204 -1.2098  0.2300
 3216TIP3   OH231062   0.874   4.999   5.800  0.0429 -0.2586  0.1576
 3216TIP3    H131063   0.798   5.007   5.857  0.2571  0.4181  0.3571
 3216TIP3    H231064   0.873   4.908   5.770 -0.7879 -0.2744  0.2303
 3217TIP3   OH231065   0.825   4.761  12.148  0.0538 -0.1937  0.1962
 3217TIP3    H131066   0.794   4.708  12.075 -1.3131  0.6205  0.1338
 3217TIP3    H231067   0.783   4.722  12.225 -0.6390  0.5126  0.1967
 3218TIP3   OH231068   6.535   1.268  13.994 -1.2445 -0.2538 -0.0331
 3218TIP3    H131069   6.519   1.213  14.071 -0.0630 -0.3454  0.1624
 3218TIP3    H231070   6.625   1.247  13.968 -1.5799 -0.1161 -1.3605
 3219TIP3   OH231071   3.742   1.853   4.535 -0.1246  0.5126 -0.8083
 3219TIP3    H131072   3.751   1.788   4.465 -1.6857 -0.6535  0.0133
 3219TIP3    H231073   3.795   1.820   4.607  0.1971  0.8880 -0.8676
 3220TIP3   OH231074   2.916   2.730   4.901  0.4480  0.3385  0.9609
 3220TIP3    H131075   2.864   2.688   4.833  1.6252  1.6431 -0.8183
 3220TIP3    H231076   2.887   2.687   4.982  1.1652 -3.4941 -0.5817
 3221TIP3   OH231077   1.593   0.675   2.640  0.2764 -0.4076  0.7441
 3221TIP3    H131078   1.596   0.668   2.544  0.9725 -1.5786  0.8303
 3221TIP3    H231079   1.595   0.769   2.657  0.4411 -0.1850 -0.3852
 3222TIP3   OH231080   3.405   4.215   2.470 -0.0665 -0.1840 -0.0038
 3222TIP3    H131081   3.392   4.136   2.417  0.5147 -1.4256  1.6391
 3222TIP3    H231082   3.498   4.234   2.463 -0.2510  0.5374 -0.6114
 3223TIP3   OH231083   3.585   1.251   2.935  0.6464  0.2636  0.0114
 3223TIP3    H131084   3.560   1.294   3.017  1.4729  0.1185  0.3406
 3223TIP3    H231085   3.668   1.292   2.910  0.5657  0.0760 -0.5895
 3224TIP3   OH231086   0.004   2.629  16.388 -0.1395  0.1970  0.0764
 3224TIP3    H131087   0.083   2.638  16.440 -0.2721 -0.3785  0.3891
 3224TIP3    H231088   0.013   2.544  16.344 -1.3522 -0.6872  1.4725
 3225TIP3   OH231089   3.134   5.731   2.477 -0.0754  0.1818  0.0192
 3225TIP3    H131090   3.129   5.740   2.382 -0.9961 -0.8281 -0.0359
 3225TIP3    H231091   3.222   5.696   2.493  0.0256  0.2052 -0.4660
 3226TIP3   OH231092   4.109   6.038   2.138  0.0797 -0.5151  0.4587
 3226TIP3    H131093   4.026   5.991   2.133  0.0482 -0.6872  2.0679
 3226TIP3    H231094   4.136   6.030   2.229  0.7689  1.4063  0.4707
 3227TIP3   OH231095   2.791   4.758  16.580 -0.0848 -0.4241 -0.1397
 3227TIP3    H131096   2.861   4.699  16.607  0.6438  1.1278  1.5427
 3227TIP3    H231097   2.736   4.768  16.658 -0.5265  0.6434 -0.5616
 3228TIP3   OH231098   6.818   4.640  16.935 -0.3761  1.0255 -0.2674
 3228TIP3    H131099   6.819   4.727  16.974  1.0741  0.8600  0.0866
 3228TIP3    H231100   6.885   4.643  16.867 -0.1325  0.1119 -0.0790
 3229TIP3   OH231101   5.365   4.143   1.117 -0.1966  0.5777  0.7994
 3229TIP3    H131102   5.295   4.132   1.180 -2.0002  0.6148 -1.0919
 3229TIP3    H231103   5.333   4.102   1.037  2.7673 -1.1696  0.3410
 3230TIP3   OH231104   3.444   3.388   0.976  0.4331 -0.1000 -0.0685
 3230TIP3    H131105   3.511   3.450   0.946  0.4335 -0.3416 -0.5766
 3230TIP3    H231106   3.428   3.331   0.901 -1.6520  1.0717 -0.5910
 3231TIP3   OH231107   6.275   0.738  11.291 -0.2079  0.4629  0.6762
 3231TIP3    H131108   6.289   0.801  11.220  0.3687  0.1208  0.4745
 3231TIP3    H231109   6.320   0.658  11.261  0.8380  0.5887  1.8227
 3232TIP3   OH231110   1.334   6.111  10.218 -0.1283  0.6511  0.1447
 3232TIP3    H131111   1.363   6.020  10.220 -0.7980  0.4382  0.6336
 3232TIP3    H231112   1.397   6.156  10.161 -0.2883 -0.2890 -0.7872
 3233TIP3   OH231113   0.794   6.579   1.246  0.6859  0.1299  0.5496
 3233TIP3    H131114   0.814   6.589   1.339 -0.3814  0.0731  0.7909
 3233TIP3    H231115   0.790   6.669   1.212  1.4986  0.1409  0.4489
 3234TIP3   OH231116   2.560   5.121   4.639 -0.6206  0.3291  0.2248
 3234TIP3    H131117   2.595   5.050   4.585 -2.0433 -0.2820  0.0657
 3234TIP3    H231118   2.547   5.193   4.578 -0.4879  0.2645  0.1190
 3235TIP3   OH231119   0.893   0.835   4.979  0.1900  0.1459 -0.0821
 3235TIP3    H131120   0.955   0.873   4.917 -2.3174 -0.1797 -3.0109
 3235TIP3    H231121   0.946   0.775   5.032  2.5647  0.8226 -1.5378
 3236TIP3   OH231122   3.633   1.877  13.726  0.1935 -0.6865 -0.0717
 3236TIP3    H131123   3.630   1.945  13.659 -0.6061 -1.8490 -1.2700
 3236TIP3    H231124   3.618   1.923  13.808 -0.8642  0.5251 -0.9105
 3237TIP3   OH231125   0.844   1.039  12.225 -0.0086 -0.3665  0.0092
 3237TIP3    H131126   0.831   0.949  12.254  0.4273 -1.0219 -1.6918
 3237TIP3    H231127   0.911   1.074  12.283  1.8622 -2.0816 -0.9916
 3238TIP3   OH231128   6.410   3.565   1.603  0.4843 -0.1716  0.3763
 3238TIP3    H131129   6.349   3.497   1.632 -1.2731  1.1960  0.1019
 3238TIP3    H231130   6.433   3.613   1.683  0.8444 -0.4100  0.4163
 3239TIP3   OH231131   2.303   5.843  15.991 -0.4185  0.0310 -0.0669
 3239TIP3    H131132   2.264   5.873  15.909  1.0133  0.9592 -0.4429
 3239TIP3    H231133   2.329   5.753  15.974 -2.9365 -0.8916  0.4236
 3240TIP3   OH231134   6.673   3.899   2.086 -0.5100  0.0150  0.2329
 3240TIP3    H131135   6.730   3.916   2.011  0.0472 -0.9800  0.4077
 3240TIP3    H231136   6.627   3.981   2.100  1.5884  1.1841  0.6904
 3241TIP3   OH231137   3.516   1.135  17.010  0.1703 -0.3857 -0.0603
 3241TIP3    H131138   3.579   1.132  16.938  0.3861  0.7314  0.0636
 3241TIP3    H231139   3.437   1.095  16.975  0.4507 -0.3548 -0.7383
 3242TIP3   OH231140   5.964   4.373  12.440  0.1052 -0.0908 -0.0078
 3242TIP3    H131141   5.874   4.344  12.455 -0.0536  0.7367  0.7862
 3242TIP3    H231142   5.974   4.449  12.498  0.8162  0.7812 -1.2263
 3243TIP3   OH231143   4.482   4.290  14.233  0.2785  0.1104  0.0208
 3243TIP3    H131144   4.440   4.290  14.319 -0.0867 -1.2123 -0.1362
 3243TIP3    H231145   4.554   4.353  14.241  1.1071 -1.0009  1.7260
 3244TIP3   OH231146   4.889   5.918   4.573  0.2325  1.0196 -0.0666
 3244TIP3    H131147   4.794   5.930   4.565 -0.1966 -1.2660  0.8373
 3244TIP3    H231148   4.917   5.893   4.485 -0.1496  0.9743 -0.1790
 3245TIP3   OH231149   2.505   6.537   4.253  0.2539 -0.1345  0.1195
 3245TIP3    H131150   2.509   6.613   4.195  0.6803 -0.4706 -0.3002
 3245TIP3    H231151   2.480   6.465   4.196  0.2164 -0.3801  0.4432
 3246TIP3   OH231152   0.176   6.032   5.457 -0.1539 -0.2246  0.2637
 3246TIP3    H131153   0.167   6.021   5.552 -1.1870 -0.0144  0.1961
 3246TIP3    H231154   0.108   5.977   5.419 -0.2134  0.2518 -0.3348
 3247TIP3   OH231155   3.183   6.531   2.392  0.3586  0.0222 -0.1285
 3247TIP3    H131156   3.176   6.626   2.382 -1.0599  0.0412  0.7232
 3247TIP3    H231157   3.277   6.514   2.398  0.7456  1.1495 -2.1132
 3248TIP3   OH231158   3.956   4.820  14.058  0.8271 -0.4474  0.6504
 3248TIP3    H131159   3.993   4.873  13.988 -0.7988 -2.3076 -1.8052
 3248TIP3    H231160   3.994   4.733  14.045 -1.3911 -1.4472  0.4074
 3249TIP3   OH231161   3.794   1.962   4.276  0.6933  0.0686 -0.3024
 3249TIP3    H131162   3.841   2.031   4.324 -0.5310  1.0359 -0.4385
 3249TIP3    H231163   3.711   1.953   4.322  0.1001 -0.0370 -1.3703
 3250TIP3   OH231164   5.029   5.033   2.664 -0.3848  0.3010  0.4748
 3250TIP3    H131165   4.960   4.967   2.657 -1.1424  0.9999  1.2190
 3250TIP3    H231166   5.107   4.989   2.630 -0.7527 -1.1415  1.3931
 3251TIP3   OH231167   5.512   3.673  14.928  0.7398 -0.1863  1.0341
 3251TIP3    H131168   5.550   3.760  14.941  0.8067 -0.1303  0.4896
 3251TIP3    H231169   5.495   3.669  14.834  0.1641 -0.5254  1.1501
 3252TIP3   OH231170   5.043   0.650  13.266 -0.7020  0.7047 -0.2185
 3252TIP3    H131171   5.045   0.556  13.250  1.2401  0.4055  1.4527
 3252TIP3    H231172   4.951   0.670  13.284 -0.7311 -1.5842  2.9662
 3253TIP3   OH231173   6.468   3.968  16.987 -0.1406  0.2240  0.4481
 3253TIP3    H131174   6.376   3.996  16.989 -1.2444 -3.0320  1.7900
 3253TIP3    H231175   6.515   4.044  16.952 -3.4616  1.5998 -1.5423
 3254TIP3   OH231176   3.773   2.704   6.308 -0.2684  0.2631 -0.3617
 3254TIP3    H131177   3.852   2.653   6.292  0.0179  0.3770  0.6515
 3254TIP3    H231178   3.723   2.696   6.226  0.6550 -0.0291 -0.9160
 3255TIP3   OH231179   3.764   1.857  14.621  0.2437  0.0199  0.4397
 3255TIP3    H131180   3.743   1.767  14.646  1.3329 -1.2830 -2.7626
 3255TIP3    H231181   3.687   1.907  14.649 -1.6157 -2.3846  0.0683
 3256TIP3   OH231182   6.207   0.415  15.373  0.1723  0.4776 -0.1124
 3256TIP3    H131183   6.221   0.342  15.312 -0.3569 -0.3529  0.7319
 3256TIP3    H231184   6.259   0.392  15.450 -0.2605  0.8326  0.2893
 3257TIP3   OH231185   6.102   3.767   0.048 -0.1065 -0.2042  0.4695
 3257TIP3    H131186   6.027   3.775   0.108  0.3739 -0.0148  1.0504
 3257TIP3    H231187   6.124   3.857   0.025 -1.2650 -0.2954 -1.2592
 3258TIP3   OH231188   0.408   0.527   3.553  0.5268  0.8367 -0.4780
 3258TIP3    H131189   0.470   0.585   3.597 -0.2298  1.1687  0.1661
 3258TIP3    H231190   0.335   0.519   3.614 -0.5166  1.2554 -1.6219
 3259TIP3   OH231191   0.825   5.379  10.896  0.0391 -0.2296 -0.5000
 3259TIP3    H131192   0.794   5.433  10.969 -0.5869 -0.5696 -0.5129
 3259TIP3    H231193   0.879   5.312  10.938 -1.8424 -1.5812 -0.1141
 3260TIP3   OH231194   3.160   6.223   4.480 -0.0136 -0.4646 -0.1780
 3260TIP3    H131195   3.092   6.288   4.496  0.1033  0.1859 -2.0702
 3260TIP3    H231196   3.115   6.139   4.486 -1.5261 -0.0189 -3.2300
 3261TIP3   OH231197   2.491   0.538   1.782 -0.4688  0.1544  1.0674
 3261TIP3    H131198   2.528   0.465   1.732  1.1871  2.3595 -1.2206
 3261TIP3    H231199   2.401   0.547   1.749 -0.2138  0.0070  0.3151
 3262TIP3   OH231200   5.302   3.032  11.238 -0.3316  0.5983  0.0742
 3262TIP3    H131201   5.211   3.016  11.214 -0.5106  0.4048  0.8599
 3262TIP3    H231202   5.304   3.024  11.333  0.4213  1.0295  0.1048
 3263TIP3   OH231203   5.479   0.812  11.354  0.0990  0.1008  0.1727
 3263TIP3    H131204   5.451   0.781  11.268 -1.0804 -0.4422  0.7228
 3263TIP3    H231205   5.513   0.734  11.398  1.0536  0.4510  0.0799
 3264TIP3   OH231206   0.149   3.286   0.623 -0.2605  0.9795 -0.4905
 3264TIP3    H131207   0.135   3.330   0.707  2.9861  1.6588 -0.1898
 3264TIP3    H231208   0.150   3.192   0.645 -1.3577  1.0425 -0.1286
 3265TIP3   OH231209   4.636   5.736  14.744  0.5261 -0.0682 -0.2964
 3265TIP3    H131210   4.585   5.764  14.821  0.4577  0.1225 -0.4109
 3265TIP3    H231211   4.581   5.669  14.703 -0.1895  0.9788 -1.0857
 3266TIP3   OH231212   2.742   6.102   0.674 -0.2923 -0.2259 -0.1293
 3266TIP3    H131213   2.789   6.030   0.715 -0.9269 -1.6562 -1.8131
 3266TIP3    H231214   2.811   6.162   0.646  0.2790 -0.4529  0.7561
 3267TIP3   OH231215   3.093   2.893   6.501 -0.0700 -0.5066 -0.3274
 3267TIP3    H131216   3.118   2.804   6.522 -0.9997 -0.4578  1.1946
 3267TIP3    H231217   2.997   2.891   6.497 -0.1023  0.3986 -0.3962
 3268TIP3   OH231218   0.287   5.823   0.882 -0.2387  0.0163  0.0013
 3268TIP3    H131219   0.376   5.850   0.904  0.6459 -1.7768 -1.1489
 3268TIP3    H231220   0.245   5.806   0.966  0.1725  1.7081  0.6064
 3269TIP3   OH231221   1.648   6.683  10.948 -0.1212 -0.5611 -0.3476
 3269TIP3    H131222   1.628   6.592  10.927  0.4952 -0.7065 -0.3163
 3269TIP3    H231223   1.672   6.723  10.865 -3.0848  0.3309 -0.9052
 3270TIP3   OH231224   3.713   5.042   3.901 -0.1001  0.0819 -0.6989
 3270TIP3    H131225   3.660   4.963   3.915 -2.8040  1.7205 -1.1734
 3270TIP3    H231226   3.766   5.049   3.981 -1.2016 -1.1611  0.1820
 3271TIP3   OH231227   2.800   6.259   2.598 -0.2459 -0.3247  0.2975
 3271TIP3    H131228   2.807   6.181   2.544  1.3719 -0.4719  0.6609
 3271TIP3    H231229   2.787   6.331   2.537 -1.3710 -0.8131 -0.0624
 3272TIP3   OH231230   2.039   3.073  10.738 -0.4933 -0.0977 -0.1990
 3272TIP3    H131231   2.076   3.161  10.749 -0.8649  0.0085  0.2089
 3272TIP3    H231232   1.946   3.084  10.753 -0.3428 -0.8409  1.4706
 3273TIP3   OH231233   6.582   0.441  13.555 -0.0196 -0.3243  0.0259
 3273TIP3    H131234   6.626   0.520  13.520  0.1829  0.6283  2.2755
 3273TIP3    H231235   6.645   0.371  13.540  0.1415  0.0561 -1.2839
 3274TIP3   OH231236   0.348   3.738   5.756 -0.2438 -0.0494 -0.1211
 3274TIP3    H131237   0.338   3.727   5.851  1.3193  1.0049  0.2144
 3274TIP3    H231238   0.397   3.820   5.747 -0.2009 -0.2288 -1.8480
 3275TIP3   OH231239   3.181   5.633   3.783 -0.0958  0.0963 -0.0783
 3275TIP3    H131240   3.113   5.571   3.808 -0.9850  0.6644 -0.9719
 3275TIP3    H231241   3.234   5.645   3.862 -1.4819  0.1912  0.8718
 3276TIP3   OH231242   4.666   6.053   1.309 -0.0301  0.3742 -0.2840
 3276TIP3    H131243   4.701   6.067   1.222  0.4696 -0.0357 -0.1549
 3276TIP3    H231244   4.735   6.085   1.368  0.9388 -2.0099  0.0104
 3277TIP3   OH231245   0.279   2.722  15.220  0.4185  0.7549 -0.1751
 3277TIP3    H131246   0.242   2.636  15.240 -0.0187  1.2422  1.2427
 3277TIP3    H231247   0.373   2.707  15.215  0.1796 -0.2935 -2.7087
 3278TIP3   OH231248   0.217   6.499   1.734 -0.0172  0.0196 -0.1438
 3278TIP3    H131249   0.137   6.463   1.772  1.3501 -0.5592  2.5055
 3278TIP3    H231250   0.266   6.533   1.810  2.7039 -0.6242 -1.4812
 3279TIP3   OH231251   1.390   4.185   3.444  0.1924  0.0310 -0.5601
 3279TIP3    H131252   1.460   4.195   3.508 -0.9221 -0.5898  0.8425
 3279TIP3    H231253   1.338   4.265   3.453 -1.6844 -1.2921  1.6252
 3280TIP3   OH231254   6.330   5.723  12.051 -0.1222  0.1551 -0.3736
 3280TIP3    H131255   6.256   5.690  12.102 -0.5316  0.5642 -0.7016
 3280TIP3    H231256   6.339   5.814  12.078 -1.3744  0.8685 -2.1722
 3281TIP3   OH231257   5.359   4.707  15.173 -0.3973 -0.2653 -0.2428
 3281TIP3    H131258   5.308   4.732  15.249 -0.5576  0.1168 -0.4750
 3281TIP3    H231259   5.331   4.767  15.104  0.8050  0.3585 -0.2191
 3282TIP3   OH231260   3.569   5.969   4.280 -0.5366 -0.5414  0.0151
 3282TIP3    H131261   3.501   5.902   4.272 -1.0903 -0.1283  1.0817
 3282TIP3    H231262   3.650   5.920   4.291 -0.9170 -1.0528  0.6504
 3283TIP3   OH231263   4.941   6.355   6.418  0.3851 -0.1639 -0.1634
 3283TIP3    H131264   4.916   6.290   6.484  0.0401  0.9745  0.8737
 3283TIP3    H231265   4.859   6.377   6.374 -0.1013  1.6822  1.4988
 3284TIP3   OH231266   3.646   4.178  15.053 -0.0429  0.2563  0.1889
 3284TIP3    H131267   3.705   4.145  14.985 -0.0565 -0.7004  0.6298
 3284TIP3    H231268   3.689   4.257  15.085  0.2090  0.4444 -0.5888
 3285TIP3   OH231269   2.926   0.037  16.216  0.0129  0.2928 -0.1321
 3285TIP3    H131270   2.879   0.056  16.135  0.3952  1.6864 -0.0543
 3285TIP3    H231271   3.011   0.080  16.205 -0.0899  0.8751  1.1718
 3286TIP3   OH231272   1.589   6.071   2.831  0.5378 -0.1606  0.1218
 3286TIP3    H131273   1.660   6.051   2.893 -0.2412  0.4059  1.2268
 3286TIP3    H231274   1.536   5.992   2.830 -0.1396  0.2603  1.1625
 3287TIP3   OH231275   2.797   0.029  15.950  0.0706 -0.2897 -0.3496
 3287TIP3    H131276   2.717   0.078  15.932 -0.0120  0.1993  1.2392
 3287TIP3    H231277   2.767  -0.056  15.981  0.1935 -0.5219 -0.8536
 3288TIP3   OH231278   6.016   0.704   4.967 -0.2600  0.2528 -0.0603
 3288TIP3    H131279   6.083   0.770   4.985 -0.7151  0.7544 -0.1883
 3288TIP3    H231280   6.059   0.641   4.909  0.2547  0.2928  0.2694
 3289TIP3   OH231281   5.567   3.127   5.327 -0.0908 -0.0770  0.4184
 3289TIP3    H131282   5.582   3.034   5.314  3.5997  0.4870 -0.5699
 3289TIP3    H231283   5.544   3.160   5.240 -1.8288 -0.0492  0.8471
 3290TIP3   OH231284   3.614   1.060  14.107  0.7900  0.4819 -0.6464
 3290TIP3    H131285   3.621   0.983  14.050  0.6652  0.0194 -0.0417
 3290TIP3    H231286   3.666   1.037  14.184 -0.5196  0.3711  0.2295
 3291TIP3   OH231287   3.859   0.942  11.351 -0.2458 -0.3968  0.0883
 3291TIP3    H131288   3.835   0.979  11.436  0.7187 -0.8105  0.5611
 3291TIP3    H231289   3.895   0.856  11.372 -2.1405 -1.4975 -0.9628
 3292TIP3   OH231290   2.914   6.352  16.808 -0.2962 -0.4881  0.2096
 3292TIP3    H131291   2.944   6.357  16.717  0.5192  0.6788  0.5300
 3292TIP3    H231292   2.833   6.300  16.803 -0.3983 -0.2431 -1.2101
 3293TIP3   OH231293   1.460   4.006   1.887 -0.1515  0.0725  0.6766
 3293TIP3    H131294   1.483   4.020   1.979 -1.6780  2.6464  0.7703
 3293TIP3    H231295   1.541   3.977   1.845  0.9009  0.1317  2.5753
 3294TIP3   OH231296   3.405   1.906   0.708 -0.7805 -0.3094  0.2540
 3294TIP3    H131297   3.415   1.851   0.785  0.4969  0.2132  0.4815
 3294TIP3    H231298   3.310   1.907   0.691 -0.9599 -1.3442  1.1223
 3295TIP3   OH231299   6.018   3.120  16.856  0.0863 -0.1750 -0.0610
 3295TIP3    H131300   6.104   3.144  16.823  0.3268 -0.2654  0.4822
 3295TIP3    H231301   5.958   3.180  16.812  0.2513 -1.0178 -1.5085
 3296TIP3   OH231302   3.242   1.325  12.422  0.4798 -0.6383  0.0093
 3296TIP3    H131303   3.204   1.277  12.495  0.4277 -0.2052  0.2714
 3296TIP3    H231304   3.306   1.265  12.384  0.5974 -0.8162  0.4868
 3297TIP3   OH231305   4.969   2.010  13.224  0.3521  0.0944 -0.1480
 3297TIP3    H131306   4.933   1.926  13.198  0.7954  0.1569 -1.0149
 3297TIP3    H231307   4.893   2.065  13.244  0.0575 -0.4313  0.1738
 3298TIP3   OH231308   4.131   6.623   5.069  0.2690 -0.1696 -0.2048
 3298TIP3    H131309   4.116   6.535   5.103  0.0057  0.6199  1.8793
 3298TIP3    H231310   4.218   6.646   5.101  0.7365 -0.0095 -1.5521
 3299TIP3   OH231311   4.199   1.346   3.993  0.0188 -0.4073 -0.3778
 3299TIP3    H131312   4.199   1.324   4.086 -1.0199 -0.0740 -0.2886
 3299TIP3    H231313   4.240   1.432   3.988  0.1673 -0.4698 -0.2455
 3300TIP3   OH231314   3.033   4.811  11.769  0.4982  0.1991 -0.1052
 3300TIP3    H131315   3.102   4.786  11.707  0.2289 -1.1633  0.1021
 3300TIP3    H231316   2.957   4.830  11.713  1.0396  1.8153 -0.3411
 3301TIP3   OH231317   6.593   2.015  10.301  0.7175 -0.0489  0.4265
 3301TIP3    H131318   6.682   2.050  10.311 -0.4543  3.1781  0.6278
 3301TIP3    H231319   6.569   1.986  10.389  0.8910  0.8998  0.7954
 3302TIP3   OH231320   0.084   4.408  14.750 -0.5140  0.5017 -0.1010
 3302TIP3    H131321   0.060   4.394  14.658  0.4919 -0.0189 -0.2958
 3302TIP3    H231322   0.162   4.354  14.763 -0.9492  0.1411  1.2139
 3303TIP3   OH231323   4.844   3.849  13.082 -0.3458  0.1086  0.0808
 3303TIP3    H131324   4.833   3.776  13.143 -1.8231 -0.7293 -1.1254
 3303TIP3    H231325   4.894   3.812  13.009  2.1256  1.3059  1.0209
 3304TIP3   OH231326   1.433   3.771   0.318 -0.3600 -0.0781  0.3125
 3304TIP3    H131327   1.490   3.825   0.374 -1.4058  0.5484  0.8031
 3304TIP3    H231328   1.345   3.805   0.333 -0.6930  0.0881 -1.7040
 3305TIP3   OH231329   0.654   4.082   3.893 -0.5444  0.4033 -0.0940
 3305TIP3    H131330   0.631   4.144   3.825  1.7611  1.9317  0.4058
 3305TIP3    H231331   0.749   4.090   3.902 -0.4241 -1.7699  1.3934
 3306TIP3   OH231332   6.646   2.692  11.942  0.0559  0.1135 -0.2039
 3306TIP3    H131333   6.643   2.719  11.850 -1.4343  0.8316  0.0143
 3306TIP3    H231334   6.729   2.726  11.974  0.3580  0.3139 -1.1509
 3307TIP3   OH231335   5.202   4.792  15.390 -0.0683  0.0267  0.0636
 3307TIP3    H131336   5.131   4.800  15.325 -0.7984  2.4754  1.0547
 3307TIP3    H231337   5.199   4.874  15.439  0.3229 -1.7641  3.3683
 3308TIP3   OH231338   1.352   6.731   4.435 -0.3955 -0.2560  0.5718
 3308TIP3    H131339   1.401   6.756   4.356 -0.3450 -1.4289  0.2012
 3308TIP3    H231340   1.346   6.811   4.486 -0.1537  0.4586 -0.4838
 3309TIP3   OH231341   1.164   5.811  10.790 -0.5003 -0.0550  0.7540
 3309TIP3    H131342   1.097   5.759  10.746 -0.6365 -0.5561  1.5378
 3309TIP3    H231343   1.116   5.868  10.850 -0.4729  2.0060 -1.0398
 3310TIP3   OH231344   5.123   0.034  13.741  0.0490 -0.5535  0.2912
 3310TIP3    H131345   5.054   0.006  13.801 -0.0761 -1.9954 -0.5020
 3310TIP3    H231346   5.185  -0.039  13.740  0.1903 -0.4335 -1.1165
 3311TIP3   OH231347   3.207   1.393   3.793  0.0316 -0.5132 -0.1476
 3311TIP3    H131348   3.290   1.433   3.817 -0.6792 -0.3086  2.1883
 3311TIP3    H231349   3.227   1.342   3.714  2.1809  0.0954 -0.0633
 3312TIP3   OH231350   0.654   5.584  11.956 -0.0479  0.5114  0.0927
 3312TIP3    H131351   0.589   5.536  12.007  0.4841  0.3420  0.6265
 3312TIP3    H231352   0.609   5.665  11.930 -0.3238  0.6232  0.8658
 3313TIP3   OH231353   4.775   0.645   1.696  0.2806  0.1243  0.4855
 3313TIP3    H131354   4.781   0.607   1.784  0.1765  0.5545  0.6871
 3313TIP3    H231355   4.683   0.670   1.687 -0.4363 -2.7004 -0.9688
 3314TIP3   OH231356   3.203   0.731  12.849 -0.4063 -0.1786  0.0583
 3314TIP3    H131357   3.172   0.797  12.787 -2.3931 -0.8084  0.3026
 3314TIP3    H231358   3.124   0.684  12.875  0.5251 -0.6562  2.2362
 3315TIP3   OH231359   3.135   6.605   3.234 -0.2471 -0.0427  0.1240
 3315TIP3    H131360   3.221   6.635   3.205 -1.1390  1.7333 -0.8511
 3315TIP3    H231361   3.122   6.649   3.319  0.2745 -1.2612  0.8571
 3316TIP3   OH231362   4.033   1.396  16.329 -0.8477 -0.0051  0.2274
 3316TIP3    H131363   3.981   1.317  16.345 -1.0567 -0.2559 -1.5343
 3316TIP3    H231364   4.091   1.372  16.256  0.2535  0.9510  0.7645
 3317TIP3   OH231365   1.133   3.081   3.699 -0.0741  0.2657 -0.4403
 3317TIP3    H131366   1.080   3.065   3.622 -0.1685 -1.9866  0.0054
 3317TIP3    H231367   1.221   3.052   3.674  0.4301  1.7148 -0.4174
 3318TIP3   OH231368   6.804   4.598  14.917  0.0533  0.1182  0.2414
 3318TIP3    H131369   6.833   4.516  14.878 -1.3050  0.2686 -1.1991
 3318TIP3    H231370   6.800   4.659  14.844 -3.3436  0.2034  0.3477
 3319TIP3   OH231371   2.096   4.005   5.688  0.5584  0.5019  0.0222
 3319TIP3    H131372   2.067   3.965   5.771  0.8257  1.1258  0.4242
 3319TIP3    H231373   2.062   4.094   5.691 -1.1132 -0.0310 -1.4417
 3320TIP3   OH231374   2.822   3.024   4.692 -0.1541 -0.1819  0.3681
 3320TIP3    H131375   2.786   3.013   4.604  2.3006  1.1152 -0.9090
 3320TIP3    H231376   2.910   2.988   4.686  1.0961  2.4616  1.4418
 3321TIP3   OH231377   4.084   4.928  13.212 -0.2895 -0.1619 -0.2212
 3321TIP3    H131378   4.045   5.008  13.246 -2.1116 -0.3548 -1.7095
 3321TIP3    H231379   4.068   4.863  13.280 -0.2398  0.3528  0.2914
 3322TIP3   OH231380   5.233   6.474  13.972 -0.0381 -0.1072  0.5096
 3322TIP3    H131381   5.145   6.446  13.998 -0.1207  0.7566  1.2102
 3322TIP3    H231382   5.286   6.464  14.051  1.0960 -2.8550 -0.4822
 3323TIP3   OH231383   2.705   4.969   3.764 -0.4754  0.0773  0.1457
 3323TIP3    H131384   2.790   5.009   3.745  0.0185  1.3568  4.2557
 3323TIP3    H231385   2.643   5.021   3.713  0.7646  2.4601  0.9072
 3324TIP3   OH231386   2.679   5.318   3.991 -0.0570 -0.0963  0.4659
 3324TIP3    H131387   2.695   5.348   3.902 -1.4179  0.6900  0.4694
 3324TIP3    H231388   2.760   5.273   4.016  1.4536  2.1713 -0.1168
 3325TIP3   OH231389   6.204   6.831  11.862  0.5063  0.3309  0.1009
 3325TIP3    H131390   6.173   6.767  11.798 -0.7723 -2.4056  3.1748
 3325TIP3    H231391   6.289   6.797  11.890  0.0682  0.2337  1.3737
 3326TIP3   OH231392   0.743   4.614   3.217 -0.1227 -0.7171 -0.7895
 3326TIP3    H131393   0.712   4.569   3.295 -0.0883 -1.2991 -1.1054
 3326TIP3    H231394   0.670   4.608   3.155  0.4963 -1.8670 -1.4437
 3327TIP3   OH231395   3.294   4.066  15.578  0.3110 -0.0857  0.1211
 3327TIP3    H131396   3.339   4.113  15.509 -0.1875  0.2031 -0.0114
 3327TIP3    H231397   3.342   4.088  15.658  0.6192 -0.0728 -0.0662
 3328TIP3   OH231398   4.836   4.714   5.044 -0.2172 -0.6133  0.2354
 3328TIP3    H131399   4.852   4.803   5.010  0.7487 -0.6140  0.6527
 3328TIP3    H231400   4.884   4.657   4.985  1.5513 -0.6083  1.6036
 3329TIP3   OH231401   1.213   3.056  10.960 -0.0438  0.1659 -0.2977
 3329TIP3    H131402   1.257   3.088  11.039  1.2822  0.2327 -1.0324
 3329TIP3    H231403   1.154   2.988  10.991  0.6448  0.0112  0.7260
 3330TIP3   OH231404   1.726   2.165  11.203 -0.0229 -0.2376 -0.3862
 3330TIP3    H131405   1.698   2.215  11.279  1.1831 -0.7442  0.4322
 3330TIP3    H231406   1.822   2.172  11.204  0.4674 -4.2740  1.1027
 3331TIP3   OH231407   6.742   5.259  10.973 -0.1075 -0.3193  0.1196
 3331TIP3    H131408   6.700   5.292  10.894  0.4337 -0.1427 -0.0971
 3331TIP3    H231409   6.696   5.177  10.992 -2.5215  1.2423  1.5513
 3332TIP3   OH231410   3.407   5.732  16.549  0.6537  0.2689  0.4533
 3332TIP3    H131411   3.346   5.671  16.590  1.4048  0.2861  1.6228
 3332TIP3    H231412   3.360   5.762  16.470 -0.9148  0.4106  1.3916
 3333TIP3   OH231413   1.727   4.691   1.303  0.7555  0.3153  0.1599
 3333TIP3    H131414   1.633   4.692   1.288  0.7081 -0.1718  0.4056
 3333TIP3    H231415   1.737   4.724   1.393  0.8572  0.8064 -0.0250
 3334TIP3   OH231416   4.149   2.418   3.415 -0.1060  0.0652 -0.0558
 3334TIP3    H131417   4.190   2.340   3.378 -0.6575 -0.8491  1.2073
 3334TIP3    H231418   4.097   2.454   3.343  1.5075  0.2853 -1.1715
 3335TIP3   OH231419   2.553   2.089   5.607 -0.1506 -0.5016 -0.4615
 3335TIP3    H131420   2.627   2.033   5.585 -0.3883 -0.4943 -1.3225
 3335TIP3    H231421   2.523   2.058   5.692 -0.1291 -1.5242 -0.8201
 3336TIP3   OH231422   0.357   0.323   2.731 -0.3204  0.3224 -0.0924
 3336TIP3    H131423   0.366   0.287   2.643  1.2730  0.1205  0.1177
 3336TIP3    H231424   0.373   0.417   2.720 -1.4482  0.5245 -0.1865
 3337TIP3   OH231425   3.382   3.520   3.633  0.3196 -0.6120  0.7690
 3337TIP3    H131426   3.364   3.558   3.719  0.1794  1.9156 -0.3112
 3337TIP3    H231427   3.296   3.500   3.596  0.1447  1.6241 -0.1553
 3338TIP3   OH231428   3.756   1.350  16.121 -0.2437 -0.3082  0.6069
 3338TIP3    H131429   3.668   1.377  16.093 -0.3198  0.4826  1.5610
 3338TIP3    H231430   3.793   1.428  16.162  1.1430 -0.4531 -0.3125
 3339TIP3   OH231431   0.301   4.093   1.869  0.2787  0.0983  1.1187
 3339TIP3    H131432   0.386   4.128   1.898  0.1544  0.3304  1.2043
 3339TIP3    H231433   0.238   4.159   1.896  0.1488  0.2684  0.4071
 3340TIP3   OH231434   1.768   4.634   5.644  0.6143 -0.0390  0.8823
 3340TIP3    H131435   1.819   4.578   5.703  0.7166 -0.2189  0.6253
 3340TIP3    H231436   1.704   4.677   5.701  1.1608  0.3200  1.2366
 3341TIP3   OH231437   5.381   4.197   1.602 -0.3291 -0.5916 -0.8925
 3341TIP3    H131438   5.340   4.145   1.533 -1.7440 -0.2412 -0.3458
 3341TIP3    H231439   5.391   4.284   1.563 -2.6000  0.0500 -0.2020
 3342TIP3   OH231440   2.481   3.338   5.245 -0.2217 -0.0511  0.0817
 3342TIP3    H131441   2.563   3.310   5.285 -0.4798  0.6936  1.1444
 3342TIP3    H231442   2.493   3.318   5.152  0.8222 -0.7492  0.3442
 3343TIP3   OH231443   5.440   5.723   3.995  0.2065 -0.2000  0.1017
 3343TIP3    H131444   5.422   5.796   3.935  0.3075 -0.0472  0.2567
 3343TIP3    H231445   5.374   5.731   4.063  0.1867 -0.2826  0.0920
 3344TIP3   OH231446   5.533   3.487   5.813 -0.4606 -0.3052 -0.0059
 3344TIP3    H131447   5.562   3.541   5.738 -0.9597  2.0932  1.4203
 3344TIP3    H231448   5.440   3.506   5.822 -0.1901  0.2944  1.8525
 3345TIP3   OH231449   6.534   4.261   0.285  0.4213 -0.0885  0.3153
 3345TIP3    H131450   6.490   4.220   0.359  1.1780 -1.1832  0.1780
 3345TIP3    H231451   6.609   4.205   0.267  0.5289  0.4317 -0.9726
 3346TIP3   OH231452   4.037   1.125   0.407 -0.3460  0.5041 -0.2568
 3346TIP3    H131453   4.032   1.115   0.502 -2.9697  0.5158 -0.3308
 3346TIP3    H231454   4.121   1.168   0.393 -0.4102  1.6324  2.1699
 3347TIP3   OH231455   1.692   6.293   0.938 -0.5803  0.0438  0.2046
 3347TIP3    H131456   1.728   6.314   1.024 -0.1932  0.5976 -0.0851
 3347TIP3    H231457   1.652   6.375   0.908  0.7915  0.3566 -0.8746
 3348TIP3   OH231458   2.405   0.716  12.873 -0.3343 -0.3153  0.4580
 3348TIP3    H131459   2.363   0.632  12.856 -2.0581  0.6317 -0.2517
 3348TIP3    H231460   2.418   0.717  12.968 -0.0737 -1.4615  0.4483
 3349TIP3   OH231461   3.437   1.440  16.715 -0.1410  0.0774  0.1453
 3349TIP3    H131462   3.481   1.520  16.685 -0.1634  0.7897  1.9165
 3349TIP3    H231463   3.419   1.392  16.634  0.5095  1.5211 -0.9159
 3350TIP3   OH231464   5.585   4.403   5.071 -0.1110 -0.8395  0.0953
 3350TIP3    H131465   5.607   4.382   5.161 -0.7640  3.1596  1.3584
 3350TIP3    H231466   5.509   4.461   5.077 -0.8347 -1.2527 -3.1197
 3351TIP3   OH231467   5.147   1.329  14.278 -0.7696 -0.4836 -0.2403
 3351TIP3    H131468   5.163   1.391  14.207  0.9221 -0.7133 -0.1083
 3351TIP3    H231469   5.079   1.369  14.332  0.6452  1.5265  0.1435
 3352TIP3   OH231470   3.883   2.323   6.304  0.2053 -0.5957  0.7717
 3352TIP3    H131471   3.792   2.344   6.323  0.3672 -0.8983  2.0335
 3352TIP3    H231472   3.925   2.408   6.287 -0.3026 -0.4582  0.1939
 3353TIP3   OH231473   1.655   5.375  11.647 -0.1095 -0.0958  0.1940
 3353TIP3    H131474   1.603   5.452  11.622 -0.1540 -0.8308 -2.2944
 3353TIP3    H231475   1.742   5.409  11.666 -0.4447  0.7046  0.3304
 3354TIP3   OH231476   4.926   2.287   4.983 -0.2350  0.3811  0.3477
 3354TIP3    H131477   4.974   2.363   4.949 -0.5389 -0.0158 -1.0472
 3354TIP3    H231478   4.924   2.225   4.910 -4.0128  0.9102 -0.2062
 3355TIP3   OH231479   3.485   1.474  12.571  0.2531  0.5293  0.0700
 3355TIP3    H131480   3.437   1.450  12.492 -2.1904 -1.6444  2.0215
 3355TIP3    H231481   3.569   1.429  12.562 -0.5855 -1.0041 -0.6482
 3356TIP3   OH231482   3.456   5.987  13.208  0.2305 -0.3972 -0.1093
 3356TIP3    H131483   3.521   5.956  13.145 -0.2361 -1.9969  0.1745
 3356TIP3    H231484   3.399   5.912  13.224 -1.4908  0.8505 -0.0633
 3357TIP3   OH231485   4.224   5.120   0.614 -0.3005 -0.5348  0.4999
 3357TIP3    H131486   4.216   5.069   0.695 -1.1120  0.4901  1.0893
 3357TIP3    H231487   4.225   5.054   0.545 -0.1775 -1.4078  1.3014
 3358TIP3   OH231488   3.898   1.255  15.915  0.4291 -0.1823  0.6931
 3358TIP3    H131489   3.957   1.209  15.976  0.4307 -0.6546  0.3397
 3358TIP3    H231490   3.826   1.285  15.970  0.4054 -0.6492  0.9226
 3359TIP3   OH231491   4.990   5.966   6.108 -0.1560 -0.2042 -0.0151
 3359TIP3    H131492   4.973   5.932   6.195  1.4155 -0.8964  0.0470
 3359TIP3    H231493   5.042   5.898   6.065  0.4305  0.7930 -0.9416
 3360TIP3   OH231494   4.307   4.684  16.156  0.1747 -0.4184 -0.1646
 3360TIP3    H131495   4.341   4.738  16.227  0.5202 -0.6284 -0.1689
 3360TIP3    H231496   4.369   4.612  16.148  0.1142 -0.4206 -0.6483
 3361TIP3   OH231497   6.294   6.251   4.614  0.1620 -0.3763  0.4568
 3361TIP3    H131498   6.341   6.201   4.548  1.4416 -0.6384  1.5411
 3361TIP3    H231499   6.284   6.192   4.688 -1.5845 -0.2067  0.4012
 3362TIP3   OH231500   2.459   6.011   2.939  0.1104 -0.5830 -0.1618
 3362TIP3    H131501   2.490   6.086   2.890 -1.2452 -0.7038 -1.2433
 3362TIP3    H231502   2.515   6.008   3.017  1.7533  0.0929 -1.2799
 3363TIP3   OH231503   3.280   4.452   2.611 -0.1442  0.0055 -0.2015
 3363TIP3    H131504   3.313   4.389   2.548  0.0622 -1.1462  1.0102
 3363TIP3    H231505   3.349   4.519   2.616  1.1510 -1.3272  0.8048
 3364TIP3   OH231506   5.002   1.034  16.656 -0.2226  0.0584 -0.1116
 3364TIP3    H131507   5.095   1.042  16.677  0.1261  1.7951 -1.9998
 3364TIP3    H231508   4.965   0.985  16.729  1.8494  0.8512  1.5636
 3365TIP3   OH231509   1.652   0.956  15.917  0.2325 -0.0442 -0.0116
 3365TIP3    H131510   1.721   0.943  15.853 -0.6169 -1.8425 -0.6455
 3365TIP3    H231511   1.591   0.883  15.901 -1.3058  0.9300  1.1448
 3366TIP3   OH231512   2.140   4.181   1.539  0.6857 -0.1676  0.4745
 3366TIP3    H131513   2.203   4.117   1.573  0.5840 -0.8223 -0.5045
 3366TIP3    H231514   2.062   4.129   1.519  0.4357  0.3404  0.1128
 3367TIP3   OH231515   3.217   0.186   2.526  0.0671 -0.4598 -0.3278
 3367TIP3    H131516   3.283   0.230   2.473  1.2728 -0.9770  0.6960
 3367TIP3    H231517   3.194   0.249   2.594 -1.6357  0.2861 -1.5114
 3368TIP3   OH231518   4.756   4.508   5.936  0.4481 -0.0248  0.0926
 3368TIP3    H131519   4.837   4.519   5.987 -1.0369  1.9351  2.2376
 3368TIP3    H231520   4.689   4.487   6.001 -1.1972  0.6673 -1.2934
 3369TIP3   OH231521   6.809   4.873  13.481 -0.6201 -0.2522 -0.3015
 3369TIP3    H131522   6.734   4.882  13.540 -0.3732  0.7241 -0.1095
 3369TIP3    H231523   6.773   4.832  13.402 -1.3613  0.2073 -0.2114
 3370TIP3   OH231524   5.817   5.756  16.780  0.0344  0.1058  0.8256
 3370TIP3    H131525   5.787   5.831  16.730  0.0560 -1.8336 -2.3459
 3370TIP3    H231526   5.765   5.683  16.748  1.1906 -1.5638  2.5251
 3371TIP3   OH231527   1.197   6.416   0.399 -0.2502 -0.2468 -0.2573
 3371TIP3    H131528   1.163   6.466   0.473 -0.3708 -1.3659  0.4709
 3371TIP3    H231529   1.291   6.409   0.417 -0.3942 -1.1524  0.1983
 3372TIP3   OH231530   0.748   3.525  16.829  0.6808  0.6286  0.0200
 3372TIP3    H131531   0.803   3.603  16.821  0.9869  0.3698 -0.3861
 3372TIP3    H231532   0.782   3.479  16.906  1.9529 -0.2569 -1.0317
 3373TIP3   OH231533   5.562   0.962  16.058 -0.1440 -0.1437 -0.8454
 3373TIP3    H131534   5.572   0.910  16.137  0.0450  0.9638 -0.1269
 3373TIP3    H231535   5.475   0.939  16.025 -0.9089  0.6031  0.5950
 3374TIP3   OH231536   5.011   5.355  14.750  0.5756  0.2227 -0.1309
 3374TIP3    H131537   4.967   5.440  14.751  0.4039  0.1835 -1.8635
 3374TIP3    H231538   5.002   5.322  14.839 -1.5091  0.9309 -0.0370
 3375TIP3   OH231539   6.488   3.718  15.460 -0.1613 -0.1356 -0.1614
 3375TIP3    H131540   6.580   3.743  15.458 -0.4961  1.6432  2.0159
 3375TIP3    H231541   6.489   3.624  15.478  1.2550  0.0823  1.0810
 3376TIP3   OH231542   1.348   0.045  14.818 -0.0852 -0.7717  0.5922
 3376TIP3    H131543   1.331  -0.019  14.749  1.6640 -2.2074  1.4120
 3376TIP3    H231544   1.437   0.075  14.802 -0.5194  0.7552  0.8295
 3377TIP3   OH231545   0.170   3.398  16.750  0.3387  0.1931 -0.0614
 3377TIP3    H131546   0.215   3.316  16.772  0.8422  0.5760  0.3560
 3377TIP3    H231547   0.216   3.465  16.800  0.0045  0.7529 -0.4898
 3378TIP3   OH231548   3.111   2.328   0.899  0.2961  0.5433  0.1977
 3378TIP3    H131549   3.051   2.341   0.972  0.8929  1.9429  0.4717
 3378TIP3    H231550   3.054   2.322   0.822 -0.2778  0.1396  0.6473
 3379TIP3   OH231551   1.673   6.208  13.989  0.3474 -0.0331  0.2931
 3379TIP3    H131552   1.713   6.123  14.010  0.5566  0.3888  1.6930
 3379TIP3    H231553   1.738   6.272  14.017 -0.7148  0.6308  1.2933
 3380TIP3   OH231554   5.068   1.793   0.028 -0.1415  0.3654 -0.1975
 3380TIP3    H131555   4.986   1.809  -0.020 -1.2137  0.3033  1.5258
 3380TIP3    H231556   5.041   1.789   0.120  1.2336 -3.0725  0.2222
 3381TIP3   OH231557   5.451   0.505  14.860  0.9329 -0.1949 -0.2648
 3381TIP3    H131558   5.508   0.435  14.827  1.7916  1.0080 -1.5099
 3381TIP3    H231559   5.429   0.555  14.782  0.4867  1.0096  0.6096
 3382TIP3   OH231560   4.964   3.472   3.352  0.2300  0.2846 -0.1816
 3382TIP3    H131561   4.877   3.504   3.329  0.8592  1.5360 -0.9031
 3382TIP3    H231562   5.018   3.551   3.356  2.2716 -0.7097 -3.7781
 3383TIP3   OH231563   4.011   3.148  13.169 -0.3008 -0.2916  0.0455
 3383TIP3    H131564   4.008   3.122  13.261  0.2369 -1.9602 -0.3734
 3383TIP3    H231565   4.088   3.204  13.162 -1.4503  1.4783  0.9674
 3384TIP3   OH231566   0.140   5.459  13.622 -0.1525 -0.4688  0.7633
 3384TIP3    H131567   0.112   5.541  13.581 -0.1276  1.2990  3.9471
 3384TIP3    H231568   0.062   5.404  13.620  0.0118 -0.7477 -2.0329
 3385TIP3   OH231569   0.374   0.281   1.031 -0.0410 -0.1863  0.1477
 3385TIP3    H131570   0.361   0.242   0.945  0.0168 -0.1375  0.1167
 3385TIP3    H231571   0.461   0.322   1.026  0.1349 -0.5328  0.3626
 3386TIP3   OH231572   3.163   5.164   5.473 -0.4852 -0.5654  0.1150
 3386TIP3    H131573   3.154   5.208   5.389 -1.0460 -1.0409 -0.0782
 3386TIP3    H231574   3.135   5.074   5.457  1.7787 -1.3458  0.2130
 3387TIP3   OH231575   2.561   5.929  12.587 -0.4335  0.3493 -0.4781
 3387TIP3    H131576   2.514   5.913  12.668 -1.1338  1.7569 -0.5726
 3387TIP3    H231577   2.619   5.854  12.577  2.2672  1.7310  3.1073
 3388TIP3   OH231578   4.343   2.521   5.387 -0.2736  0.0657  1.2139
 3388TIP3    H131579   4.381   2.605   5.359  0.5970 -0.8337 -0.4704
 3388TIP3    H231580   4.419   2.469   5.414 -0.5264 -0.9457  0.0473
 3389TIP3   OH231581   6.797   4.074   4.564  0.6039  0.1950 -0.0040
 3389TIP3    H131582   6.751   4.147   4.605  1.1229  0.1807  0.6122
 3389TIP3    H231583   6.858   4.115   4.504 -0.0762  0.2183 -0.7052
 3390TIP3   OH231584   4.687   3.456  12.381  0.5783 -0.0318  0.7373
 3390TIP3    H131585   4.749   3.510  12.332  1.4329 -1.0900  0.6229
 3390TIP3    H231586   4.732   3.372  12.393 -0.7643 -0.7767  0.7871
 3391TIP3   OH231587   1.264   0.769  15.310  0.0482 -0.0686 -0.1952
 3391TIP3    H131588   1.280   0.818  15.229  0.6771 -0.6434 -0.4379
 3391TIP3    H231589   1.174   0.789  15.333  0.5672  1.9158  0.2290
 3392TIP3   OH231590   2.966   1.013  16.645  0.4220  0.0827  0.2155
 3392TIP3    H131591   2.885   1.035  16.599 -0.1805 -0.6062  0.9325
 3392TIP3    H231592   2.982   1.088  16.702  0.4207  0.3223 -0.0966
 3393TIP3   OH231593   2.058   2.689  13.620  0.1939  0.5283 -0.0070
 3393TIP3    H131594   1.981   2.745  13.635  1.0511  1.1518  2.6142
 3393TIP3    H231595   2.025   2.600  13.632 -0.5726  0.6197 -1.2586
 3394TIP3   OH231596   3.321   4.868  11.932 -0.0517  0.2831  0.4147
 3394TIP3    H131597   3.302   4.900  12.020 -1.1116  0.2558  0.1998
 3394TIP3    H231598   3.296   4.940  11.874  1.0099  0.4539  0.1436
 3395TIP3   OH231599   2.120   1.724  12.305 -0.2605 -0.0742  0.0633
 3395TIP3    H131600   2.074   1.748  12.386  1.2128 -1.2472  1.3136
 3395TIP3    H231601   2.062   1.754  12.235 -2.5070 -0.7358  1.5295
 3396TIP3   OH231602   6.496   2.881  10.897 -0.0106  0.4371 -0.1008
 3396TIP3    H131603   6.416   2.839  10.866  1.4018 -1.0457 -2.0319
 3396TIP3    H231604   6.510   2.845  10.984 -0.4951 -0.6748 -0.4699
 3397TIP3   OH231605   3.394   3.931   0.074 -0.1207  0.3160  0.0913
 3397TIP3    H131606   3.487   3.910   0.065 -0.1780  0.2253 -0.2946
 3397TIP3    H231607   3.376   3.919   0.167  0.1803  0.0177  0.1143
 3398TIP3   OH231608   0.628   4.986  12.608 -0.0287 -0.4462  1.0709
 3398TIP3    H131609   0.698   4.926  12.581  0.6268 -1.2063  4.0244
 3398TIP3    H231610   0.550   4.930  12.615 -1.1342  0.4170 -2.3140
 3399TIP3   OH231611   4.984   1.254  12.136  0.3600 -0.2491  0.4455
 3399TIP3    H131612   5.024   1.260  12.223 -0.2642 -0.7282  0.7757
 3399TIP3    H231613   5.044   1.302  12.078  1.0315 -0.3472  1.0521
 3400TIP3   OH231614   4.499   3.262   1.752 -0.5336 -0.0710  0.3068
 3400TIP3    H131615   4.438   3.199   1.789 -0.4318  0.4130  1.3219
 3400TIP3    H231616   4.582   3.246   1.798 -0.4585  0.6753  0.4489
 3401TIP3   OH231617   4.542   0.039   2.135  0.4519 -0.2545  0.3455
 3401TIP3    H131618   4.566   0.104   2.069 -0.9458 -1.0018 -0.9803
 3401TIP3    H231619   4.622  -0.010   2.151  1.1118  0.7257  0.1019
 3402TIP3   OH231620   5.792   3.336  15.866  0.4231  0.0714  0.1118
 3402TIP3    H131621   5.843   3.290  15.799  1.3404  3.0899 -1.4223
 3402TIP3    H231622   5.858   3.370  15.927 -0.0932  0.6659  0.3451
 3403TIP3   OH231623   0.394   1.305  10.844 -0.4339  0.2495 -0.2716
 3403TIP3    H131624   0.376   1.357  10.923 -1.0742 -0.9189  0.3762
 3403TIP3    H231625   0.358   1.358  10.772 -1.6742  0.4269  0.4455
 3404TIP3   OH231626   1.978   5.757  15.591  0.1987 -0.1628  0.4130
 3404TIP3    H131627   1.886   5.766  15.568  0.4606  2.2957  0.0720
 3404TIP3    H231628   2.019   5.722  15.511 -0.2670 -0.1690  0.1742
 3405TIP3   OH231629   0.322   4.509  12.114  0.1072  0.3189  0.2649
 3405TIP3    H131630   0.264   4.441  12.080  1.8922 -1.0706 -0.1106
 3405TIP3    H231631   0.318   4.499  12.209 -1.9842  1.7644  0.4072
 3406TIP3   OH231632   2.250   5.858  13.755  0.2324 -0.6507  0.3439
 3406TIP3    H131633   2.317   5.924  13.737  0.7180 -0.9238  1.1044
 3406TIP3    H231634   2.297   5.775  13.754 -0.3523 -0.9883 -0.4716
 3407TIP3   OH231635   1.095   4.384  13.439  0.2754  0.6691 -0.2268
 3407TIP3    H131636   1.112   4.442  13.513  0.1777  0.6244 -0.1693
 3407TIP3    H231637   1.068   4.302  13.479  2.2166 -0.0345 -0.2487
 3408TIP3   OH231638   3.674   1.139   6.029  0.0158  0.1854 -0.2427
 3408TIP3    H131639   3.768   1.149   6.045  0.1308  0.1643 -0.8657
 3408TIP3    H231640   3.666   1.053   5.989 -0.3767 -0.1633  0.5656
 3409TIP3   OH231641   1.857   3.119  13.583  0.0911  0.2439 -0.5784
 3409TIP3    H131642   1.860   3.172  13.663 -0.3382 -0.4157 -0.1190
 3409TIP3    H231643   1.792   3.163  13.528 -0.4048  0.0918 -0.1209
 3410TIP3   OH231644   4.118   5.463  13.661  0.2593  0.2554  0.3170
 3410TIP3    H131645   4.199   5.441  13.708 -0.6001 -0.1674  1.6410
 3410TIP3    H231646   4.076   5.379  13.646 -0.0861  0.5007 -0.0904
 3411TIP3   OH231647   6.153   1.264   3.818 -0.2034 -0.2347 -0.3928
 3411TIP3    H131648   6.169   1.170   3.830 -0.6521 -0.5649 -2.0314
 3411TIP3    H231649   6.235   1.297   3.780  0.7301  0.5126  2.0813
 3412TIP3   OH231650   6.734   4.294   0.596 -0.1061 -0.7886 -0.1084
 3412TIP3    H131651   6.709   4.217   0.545 -0.0853 -1.6760  1.1812
 3412TIP3    H231652   6.653   4.322   0.637  0.2613 -1.3897  1.0672
 3413TIP3   OH231653   0.603   0.715  16.072  0.4441 -0.0661  0.2464
 3413TIP3    H131654   0.626   0.742  16.161 -0.3303 -0.3899  0.5535
 3413TIP3    H231655   0.606   0.796  16.021 -0.4590  0.3647  0.8573
 3414TIP3   OH231656   6.412   5.265   5.698  0.3516  0.0337  0.3345
 3414TIP3    H131657   6.361   5.345   5.690  0.0963 -0.0213  1.3156
 3414TIP3    H231658   6.361   5.209   5.755  0.2470 -1.0798 -0.8146
 3415TIP3   OH231659   3.590   1.441   1.987 -0.3004  0.5421  1.0283
 3415TIP3    H131660   3.600   1.481   2.073 -1.7353  0.2995  1.3359
 3415TIP3    H231661   3.637   1.358   1.994  0.2354  0.8665  1.3276
 3416TIP3   OH231662   6.189   3.943   2.270  0.1188 -0.3757  0.2328
 3416TIP3    H131663   6.245   4.020   2.273 -0.1925 -0.1690  1.3965
 3416TIP3    H231664   6.111   3.971   2.224  1.1553 -0.8228 -1.9251
 3417TIP3   OH231665   4.385   4.520  14.434 -0.0623  0.2204  0.3787
 3417TIP3    H131666   4.308   4.463  14.434 -1.2055  1.6817  0.2962
 3417TIP3    H231667   4.413   4.523  14.526 -2.0323  2.0662  0.9994
 3418TIP3   OH231668   2.061   6.107   3.704  0.0891  0.2112  0.6765
 3418TIP3    H131669   1.986   6.066   3.747  0.1540  0.1661  0.7491
 3418TIP3    H231670   2.027   6.141   3.622  0.4846 -1.9304 -0.4365
 3419TIP3   OH231671   2.840   1.372  16.392 -0.2363 -1.2407 -0.5776
 3419TIP3    H131672   2.763   1.342  16.344 -1.7983  1.3612  0.1393
 3419TIP3    H231673   2.806   1.413  16.471  1.9124 -0.3283 -0.0387
 3420TIP3   OH231674   4.945   4.223   0.687  0.9171  0.1903 -0.2215
 3420TIP3    H131675   4.875   4.278   0.721 -0.7604 -0.7799 -1.8871
 3420TIP3    H231676   4.975   4.173   0.763 -2.0462 -1.2418  0.1401
 3421TIP3   OH231677   6.089   4.189  16.752  0.0691  0.0749  0.1059
 3421TIP3    H131678   6.112   4.168  16.662 -1.5241 -0.8332 -0.1360
 3421TIP3    H231679   6.166   4.232  16.788  1.3286 -1.0078 -1.2019
 3422TIP3   OH231680   3.318   4.251   5.142 -0.2215 -0.3537  0.0912
 3422TIP3    H131681   3.282   4.315   5.203  0.3612  1.3608 -1.2851
 3422TIP3    H231682   3.244   4.194   5.120 -1.3928  1.3331 -0.4968
 3423TIP3   OH231683   3.541   2.811  14.691  0.5937 -0.6171 -0.2989
 3423TIP3    H131684   3.502   2.890  14.729  2.0096 -0.6060  1.2651
 3423TIP3    H231685   3.467   2.750  14.682 -0.2950  0.4261 -0.3388
 3424TIP3   OH231686   2.284   0.043  16.577 -0.5118 -0.6415  0.2155
 3424TIP3    H131687   2.235   0.125  16.575  1.7574  0.9026  1.7386
 3424TIP3    H231688   2.218  -0.026  16.578 -2.5956  1.2629  1.4180
 3425TIP3   OH231689   5.276   2.788  13.387 -0.1369  0.1116  0.3532
 3425TIP3    H131690   5.227   2.721  13.340  1.7714 -1.0654 -0.0664
 3425TIP3    H231691   5.219   2.813  13.460 -2.5129  0.8739 -1.6301
 3426TIP3   OH231692   3.407   1.711  13.842  0.2954 -0.2483 -0.3392
 3426TIP3    H131693   3.366   1.627  13.821  1.2824 -1.5977  2.5715
 3426TIP3    H231694   3.466   1.729  13.768 -1.4982 -0.9420 -2.0329
 3427TIP3   OH231695   6.031   2.234  12.320 -0.0423 -0.2368 -0.2347
 3427TIP3    H131696   5.990   2.273  12.397 -0.3646  0.1444 -0.5974
 3427TIP3    H231697   6.056   2.308  12.265 -0.1525 -0.5164 -0.6677
 3428TIP3   OH231698   6.258   6.666   5.885 -0.0268  0.3824  0.0608
 3428TIP3    H131699   6.187   6.605   5.902 -0.4396  0.6944 -0.4997
 3428TIP3    H231700   6.338   6.615   5.897 -0.2740  0.4530  2.4038
 3429TIP3   OH231701   3.699   2.577   3.788  0.1291  0.3245  0.2624
 3429TIP3    H131702   3.703   2.496   3.839 -1.1150  1.0737  1.6065
 3429TIP3    H231703   3.732   2.644   3.848  2.0104  0.7261 -1.1357
 3430TIP3   OH231704   4.142   0.039  15.918  0.3980 -0.2096  0.6640
 3430TIP3    H131705   4.167   0.029  16.010 -1.5266  1.0246  1.3835
 3430TIP3    H231706   4.051   0.070  15.921  0.9273  1.8738 -1.6102
 3431TIP3   OH231707   2.995   3.289  14.630 -0.1383  0.2124  0.5333
 3431TIP3    H131708   3.033   3.211  14.671  1.3857  1.5802  1.8784
 3431TIP3    H231709   3.041   3.298  14.547 -2.7796 -2.1975 -1.4146
 3432TIP3   OH231710   3.124   1.671  15.111 -0.1314 -0.2512 -0.5173
 3432TIP3    H131711   3.079   1.684  15.028 -1.8257  0.5591  0.4879
 3432TIP3    H231712   3.114   1.578  15.130 -0.1770 -0.3375 -0.9527
 3433TIP3   OH231713   3.287   5.766   0.429 -1.2595 -0.2919  0.6518
 3433TIP3    H131714   3.343   5.843   0.427 -2.8935  0.9590  0.5656
 3433TIP3    H231715   3.346   5.693   0.445  0.4792  0.8387 -0.3671
 3434TIP3   OH231716   6.081   4.916  14.970 -0.3934  0.3108 -0.2449
 3434TIP3    H131717   6.156   4.916  14.911 -0.8105 -0.5864 -0.7857
 3434TIP3    H231718   6.081   4.829  15.009 -1.0116  0.3968 -0.0498
 3435TIP3   OH231719   6.748   0.493  14.963  0.3759  0.1564 -0.2842
 3435TIP3    H131720   6.750   0.435  14.887 -0.7913 -0.1440 -0.1047
 3435TIP3    H231721   6.758   0.435  15.038  2.1071  0.5137 -0.2069
 3436TIP3   OH231722   2.020   0.122  12.712  0.8529  0.1249 -0.1112
 3436TIP3    H131723   2.019   0.138  12.618 -0.6559 -0.6664 -0.2581
 3436TIP3    H231724   1.947   0.062  12.727  0.5481  0.8773  1.6805
 3437TIP3   OH231725   3.638   6.743  11.039  0.0343  0.4530  0.2497
 3437TIP3    H131726   3.620   6.769  10.949  1.5095  2.4578  0.4465
 3437TIP3    H231727   3.637   6.647  11.038  0.8890  0.4092 -2.1113
 3438TIP3   OH231728   6.089   4.040  11.283  0.2749 -0.1137 -0.4668
 3438TIP3    H131729   6.109   4.095  11.207 -0.5032  0.4698 -0.2550
 3438TIP3    H231730   6.051   4.100  11.347 -2.7405 -1.2508 -1.0582
 3439TIP3   OH231731   5.876   4.773   4.382 -0.2469  0.0776 -0.0493
 3439TIP3    H131732   5.893   4.724   4.463 -0.4441  1.6587  1.0013
 3439TIP3    H231733   5.780   4.778   4.378 -0.2619 -0.6728 -0.8289
 3440TIP3   OH231734   0.634   1.295   1.548 -0.3179 -0.8196  0.2601
 3440TIP3    H131735   0.579   1.316   1.472 -0.5329 -0.6392  0.4659
 3440TIP3    H231736   0.593   1.340   1.621  1.0481  0.7415  0.1262
 3441TIP3   OH231737   3.111   4.048  12.070 -0.5616 -0.6184 -0.2063
 3441TIP3    H131738   3.051   4.123  12.070  0.6442  0.4084 -1.1305
 3441TIP3    H231739   3.172   4.067  11.998  0.3239 -2.0590  0.1255
 3442TIP3   OH231740   1.463   0.098  16.987  0.3780  0.0490 -0.2340
 3442TIP3    H131741   1.453   0.005  17.003  1.9789  0.0332  0.9153
 3442TIP3    H231742   1.511   0.104  16.905  1.5126 -0.2089  0.3901
 3443TIP3   OH231743   5.462   5.304  15.344 -0.0933  0.1102 -0.1328
 3443TIP3    H131744   5.550   5.269  15.356 -0.1841 -0.0841 -0.0420
 3443TIP3    H231745   5.476   5.398  15.331  0.1781 -0.0182 -0.7929
 3444TIP3   OH231746   1.209   4.556   4.197 -0.4967 -0.1540  0.1829
 3444TIP3    H131747   1.191   4.524   4.285 -1.0213  0.3635  0.2709
 3444TIP3    H231748   1.170   4.491   4.139 -2.1426  0.6068  0.3646
 3445TIP3   OH231749   6.406   3.496  12.134  0.0816  0.4914 -0.3770
 3445TIP3    H131750   6.479   3.536  12.181  0.3853  0.2733 -0.6601
 3445TIP3    H231751   6.430   3.503  12.041 -0.5863  1.0665 -0.5154
 3446TIP3   OH231752   3.049   5.594  16.846 -0.3416 -0.2192  0.5151
 3446TIP3    H131753   2.999   5.657  16.795 -0.9786  0.3259  1.7516
 3446TIP3    H231754   3.100   5.648  16.907  1.4302 -0.7800 -0.4028
 3447TIP3   OH231755   2.975   2.108   0.541 -0.2044  0.2749  0.2355
 3447TIP3    H131756   3.038   2.127   0.472  2.2677 -1.0338  1.9755
 3447TIP3    H231757   2.959   2.192   0.584  0.1205  0.6736 -0.4200
 3448TIP3   OH231758   0.719   6.515   5.043  0.3045 -0.0028  0.8210
 3448TIP3    H131759   0.803   6.548   5.011 -0.6036  1.3775 -0.2310
 3448TIP3    H231760   0.697   6.574   5.115  0.4008 -0.5927  1.3381
 3449TIP3   OH231761   1.835   1.585  13.039 -0.0973 -0.2672 -0.3913
 3449TIP3    H131762   1.850   1.516  12.975  2.8513 -0.0329 -0.1058
 3449TIP3    H231763   1.923   1.621  13.057 -1.2187  1.9166  1.2715
 3450TIP3   OH231764   3.240   6.825   2.134 -0.2735 -0.0414  0.3597
 3450TIP3    H131765   3.177   6.803   2.065 -0.1842 -1.9106  0.8187
 3450TIP3    H231766   3.192   6.813   2.216  0.4245 -0.6340  0.6880
 3451TIP3   OH231767   2.719   6.570  11.373 -0.4824 -0.0540 -0.6389
 3451TIP3    H131768   2.718   6.509  11.447 -0.4954  0.3509 -0.3046
 3451TIP3    H231769   2.702   6.515  11.297  0.2756 -0.5914 -0.4285
 3452TIP3   OH231770   5.335   4.077   0.530 -0.0355 -0.2070 -0.0766
 3452TIP3    H131771   5.254   4.128   0.536 -1.5081 -2.5113  0.9358
 3452TIP3    H231772   5.307   3.986   0.538  2.8801 -1.0335  2.6988
 3453TIP3   OH231773   4.117   3.554  11.948  0.1555  0.2303 -0.2802
 3453TIP3    H131774   4.131   3.616  11.876 -3.6718  0.8964 -0.6521
 3453TIP3    H231775   4.148   3.599  12.026  0.4010  1.2868 -0.9737
 3454TIP3   OH231776   3.702   3.334   0.694  0.0802 -0.4617  0.0646
 3454TIP3    H131777   3.797   3.329   0.693  0.0128 -4.2530  0.2838
 3454TIP3    H231778   3.674   3.270   0.628 -2.3348  0.5870 -0.0214
 3455TIP3   OH231779   3.779   0.413   3.449  0.0869 -0.4151  0.1507
 3455TIP3    H131780   3.814   0.445   3.533 -1.3797 -1.1493  1.0749
 3455TIP3    H231781   3.737   0.490   3.410  1.8993  0.2721 -0.5954
 3456TIP3   OH231782   0.203   6.614   0.287 -0.3749 -0.1549  0.1312
 3456TIP3    H131783   0.289   6.656   0.288 -0.2361 -0.4342  0.1248
 3456TIP3    H231784   0.171   6.627   0.198 -0.9996  1.2552  0.5291
 3457TIP3   OH231785   6.656   1.636  12.971 -0.1490 -0.8408  0.2191
 3457TIP3    H131786   6.673   1.658  13.063 -0.2603  1.2154 -0.2107
 3457TIP3    H231787   6.604   1.556  12.975 -0.5253 -0.5466  1.9753
 3458TIP3   OH231788   2.598   6.052  16.376  0.0019  0.1763  0.2468
 3458TIP3    H131789   2.539   6.018  16.309  1.0134  1.2396 -1.2266
 3458TIP3    H231790   2.667   5.985  16.383  1.4409  1.3107 -1.9179
 3459TIP3   OH231791   4.311   6.483   1.409  0.0616  0.1784 -0.5041
 3459TIP3    H131792   4.284   6.403   1.363  0.0672  0.8635 -1.7579
 3459TIP3    H231793   4.230   6.521   1.442  0.1500 -0.7900  0.8790
 3460TIP3   OH231794   1.653   1.132   4.239  0.0543 -0.4374  0.4816
 3460TIP3    H131795   1.728   1.076   4.258  0.2335 -0.0637  0.9086
 3460TIP3    H231796   1.602   1.132   4.320 -0.6477 -1.0493  0.0490
 3461TIP3   OH231797   4.393   0.260  11.531 -0.5749 -0.7981  0.1846
 3461TIP3    H131798   4.303   0.257  11.499 -0.8461 -0.6846  0.9261
 3461TIP3    H231799   4.392   0.325  11.601  0.2366 -0.2788 -0.2633
 3462TIP3   OH231800   4.405   6.681  11.089  0.8265  0.1024  0.1952
 3462TIP3    H131801   4.386   6.597  11.046 -0.9196  0.5012  0.1040
 3462TIP3    H231802   4.404   6.745  11.018  1.5786  0.2887  0.3451
 3463TIP3   OH231803   6.747   3.058   2.502 -0.3729  0.8954  0.5073
 3463TIP3    H131804   6.689   3.133   2.512 -2.2109 -0.7619  3.6667
 3463TIP3    H231805   6.791   3.049   2.587  2.2967  0.2521 -0.8148
 3464TIP3   OH231806   3.524   3.589  14.295 -0.8304 -0.2191 -0.0796
 3464TIP3    H131807   3.572   3.617  14.217 -1.0337  0.6762  0.1038
 3464TIP3    H231808   3.591   3.564  14.358 -0.6657 -1.1155 -0.5856
 3465TIP3   OH231809   0.017   2.777  15.056 -0.3188  0.6320 -0.0816
 3465TIP3    H131810   0.072   2.765  15.134  1.5652 -0.2385 -1.4629
 3465TIP3    H231811  -0.038   2.699  15.053  1.0836 -0.3879 -0.6917
 3466TIP3   OH231812   1.265   5.554  15.941 -0.1631  0.0637  0.5100
 3466TIP3    H131813   1.176   5.558  15.905 -0.0970  0.7961  0.3996
 3466TIP3    H231814   1.257   5.593  16.028  0.1009  0.4496  0.3680
 3467TIP3   OH231815   0.734   3.370  12.821 -0.3295 -0.3252 -0.2671
 3467TIP3    H131816   0.717   3.452  12.869 -0.2201 -0.5522  0.1646
 3467TIP3    H231817   0.819   3.340  12.854  0.2523  0.0491 -1.3615
 3468TIP3   OH231818   5.996   4.723   2.170  0.0753  0.6795 -0.5418
 3468TIP3    H131819   5.943   4.768   2.105 -1.6704  0.1623  0.4645
 3468TIP3    H231820   5.934   4.697   2.239  1.6372  0.0825  0.7142
 3469TIP3   OH231821   3.091   1.889  16.060 -1.0381 -0.5213  0.2482
 3469TIP3    H131822   3.006   1.902  16.018 -1.0784 -0.3302  0.3891
 3469TIP3    H231823   3.110   1.796  16.047  0.1557  0.0064 -2.4664
 3470TIP3   OH231824   3.128   4.706  15.883  0.6026 -0.0220 -0.7692
 3470TIP3    H131825   3.158   4.653  15.957  1.1124  0.8349 -0.3500
 3470TIP3    H231826   3.171   4.791  15.894  0.7980  0.0851 -2.1246
 3471TIP3   OH231827   0.463   0.532  16.863  0.2210  0.7323  0.2384
 3471TIP3    H131828   0.457   0.541  16.768  0.6336 -0.7464  0.0477
 3471TIP3    H231829   0.376   0.502  16.889  0.6677 -0.8769  0.0294
 3472TIP3   OH231830   4.081   5.364   2.223 -0.0257  0.1913  0.4656
 3472TIP3    H131831   4.091   5.327   2.311 -0.5991  0.1422  0.5135
 3472TIP3    H231832   4.162   5.413   2.208  1.4263 -2.2564 -0.1869
 3473TIP3   OH231833   4.538   4.841   0.679 -0.6708 -0.5878  0.0319
 3473TIP3    H131834   4.620   4.842   0.629 -0.2118  1.4579  0.7411
 3473TIP3    H231835   4.565   4.826   0.769 -0.9987  0.6021  0.3450
 3474TIP3   OH231836   0.099   6.623   0.016 -0.5761 -0.1205  0.3139
 3474TIP3    H131837   0.190   6.630  -0.013 -1.4342 -0.8292 -2.8541
 3474TIP3    H231838   0.054   6.695  -0.027 -1.5996  0.1337  1.7185
 3475TIP3   OH231839   1.774   5.897  12.781  0.1289 -0.0828  0.1524
 3475TIP3    H131840   1.723   5.895  12.862 -1.5412 -1.0307 -0.8733
 3475TIP3    H231841   1.781   5.990  12.759 -1.0183  0.0859  0.4312
 3476TIP3   OH231842   4.826   0.155  12.078 -0.2592  0.6670  0.1762
 3476TIP3    H131843   4.912   0.189  12.051 -0.4846 -0.6854 -2.6364
 3476TIP3    H231844   4.845   0.092  12.147  1.1002  0.0086 -0.7665
 3477TIP3   OH231845   3.339   1.985  13.884  0.3920 -0.4433  0.0552
 3477TIP3    H131846   3.428   2.018  13.893  0.0158  0.5946  0.1448
 3477TIP3    H231847   3.349   1.894  13.856  1.4715 -0.2541 -0.1946
 3478TIP3   OH231848   3.787   1.307  14.765 -0.3140  0.1576 -0.9698
 3478TIP3    H131849   3.797   1.356  14.847 -1.2453  0.0112 -0.7619
 3478TIP3    H231850   3.854   1.343  14.707  0.6304 -0.0164 -0.0122
 3479TIP3   OH231851   4.531   6.102  16.209 -0.4493 -0.5881 -0.2667
 3479TIP3    H131852   4.623   6.127  16.212 -0.0650 -1.6111 -1.9593
 3479TIP3    H231853   4.484   6.185  16.206  0.5453 -0.0273 -1.1653
 3480TIP3   OH231854   3.966   5.315   4.835 -0.3962  0.3795  0.0103
 3480TIP3    H131855   3.929   5.329   4.922  1.2392  1.9125  0.5057
 3480TIP3    H231856   3.948   5.396   4.788  0.7411  0.4574 -0.3209
 3481TIP3   OH231857   5.488   1.198   2.078  0.4120 -0.2005 -0.0376
 3481TIP3    H131858   5.573   1.239   2.094  0.8653 -0.7358 -1.0164
 3481TIP3    H231859   5.476   1.137   2.152  1.2751 -0.7427 -0.3340
 3482TIP3   OH231860   5.836   1.977   4.245 -0.3094  0.1416 -0.4673
 3482TIP3    H131861   5.753   1.980   4.199 -1.0432 -1.2810  0.6880
 3482TIP3    H231862   5.815   2.002   4.335  0.3552 -0.8634 -0.0066
 3483TIP3   OH231863   0.539   5.875  10.637  0.8051  0.1763 -0.1502
 3483TIP3    H131864   0.600   5.825  10.583  1.4706  0.7553  0.0407
 3483TIP3    H231865   0.509   5.946  10.581  1.9493  1.1248  0.3795
 3484TIP3   OH231866   3.102   6.131  14.505  0.4834  0.2335 -0.5973
 3484TIP3    H131867   3.009   6.139  14.486  0.4059  1.5828  0.2562
 3484TIP3    H231868   3.145   6.178  14.433  0.3993  1.2628  0.0038
 3485TIP3   OH231869   0.740   4.019   2.572 -0.1741 -0.0056 -0.2787
 3485TIP3    H131870   0.835   4.009   2.565 -0.3134 -1.7512  0.0287
 3485TIP3    H231871   0.727   4.064   2.656  0.3755  0.7000 -0.5536
 3486TIP3   OH231872   2.842   2.289  16.603 -0.4231 -0.3220 -0.5138
 3486TIP3    H131873   2.906   2.275  16.533 -0.3296 -0.5611 -0.3806
 3486TIP3    H231874   2.846   2.383  16.619 -2.0488  0.1306 -2.3568
 3487TIP3   OH231875   4.836   3.485   6.233 -0.0758 -0.3472 -0.0768
 3487TIP3    H131876   4.860   3.407   6.182 -1.0571  0.6966 -2.2341
 3487TIP3    H231877   4.908   3.546   6.217 -0.4155  0.0045 -0.2614
 3488TIP3   OH231878   0.091   1.450  12.343  0.2392  0.2006  0.5196
 3488TIP3    H131879   0.006   1.416  12.315 -0.5063  1.0699  1.6153
 3488TIP3    H231880   0.134   1.376  12.385  0.7738 -0.7204 -1.5701
 3489TIP3   OH231881   2.211   1.461  16.454 -0.1764  0.0611 -0.0386
 3489TIP3    H131882   2.176   1.397  16.516 -0.1395  0.5406  0.4827
 3489TIP3    H231883   2.241   1.533  16.509  1.9049 -0.4475 -0.4261
 3490TIP3   OH231884   4.495   5.173  12.823 -0.0682 -0.0878  0.3806
 3490TIP3    H131885   4.408   5.159  12.787  0.5677 -0.6107 -1.0356
 3490TIP3    H231886   4.521   5.088  12.859 -0.5095  0.3122  1.7326
 3491TIP3   OH231887   3.969   5.186   3.626 -0.2274  0.4595  0.3175
 3491TIP3    H131888   3.907   5.113   3.616  1.4767 -0.8837 -1.3357
 3491TIP3    H231889   4.010   5.171   3.711 -1.2632  0.6322  0.8563
 3492TIP3   OH231890   5.282   1.726   1.657  0.1318 -0.7099 -0.2162
 3492TIP3    H131891   5.273   1.817   1.686 -1.5318 -0.6574 -0.7805
 3492TIP3    H231892   5.248   1.674   1.729 -0.4011 -0.7876 -0.5197
 3493TIP3   OH231893   0.805   5.972   5.586  0.3534  0.5658  0.2126
 3493TIP3    H131894   0.837   5.893   5.628 -2.5181 -0.5106  0.6249
 3493TIP3    H231895   0.833   6.043   5.643  0.5233 -0.4470  1.4198
 3494TIP3   OH231896   5.432   3.194   0.572 -0.3766 -0.5203 -0.9247
 3494TIP3    H131897   5.450   3.244   0.651 -1.5775  0.0650 -1.0014
 3494TIP3    H231898   5.426   3.260   0.503  2.1820 -1.1204 -1.8427
 3495TIP3   OH231899   0.925   5.707  12.204  0.7045 -0.5656 -0.0750
 3495TIP3    H131900   0.839   5.665  12.205  0.5230 -0.3737 -2.1610
 3495TIP3    H231901   0.926   5.761  12.283 -1.4336  0.0134 -0.3612
 3496TIP3   OH231902   5.912   2.644   5.967 -0.1694  0.3748 -0.5454
 3496TIP3    H131903   5.888   2.551   5.964  0.0418  0.3124 -0.4244
 3496TIP3    H231904   5.989   2.650   5.910 -0.4963  0.5783 -0.9679
 3497TIP3   OH231905   5.739   0.853   1.006  0.1732 -0.0374  0.2191
 3497TIP3    H131906   5.764   0.935   1.050  1.2556 -0.8616  1.2023
 3497TIP3    H231907   5.744   0.874   0.913  0.3694  1.0489  0.4596
 3498TIP3   OH231908   3.482   6.670   2.135 -0.0270 -0.5287 -0.4030
 3498TIP3    H131909   3.465   6.732   2.206  1.2472 -2.2438  1.4859
 3498TIP3    H231910   3.395   6.650   2.101 -0.7266  0.0185  0.9642
 3499TIP3   OH231911   6.313   5.287  12.353  0.1061  0.6107 -0.5977
 3499TIP3    H131912   6.324   5.214  12.293  0.3423 -1.2355  1.5859
 3499TIP3    H231913   6.363   5.263  12.431 -0.3890  2.7751  0.4690
 3500TIP3   OH231914   4.644   0.282   0.129 -0.2201  0.1846  0.4290
 3500TIP3    H131915   4.642   0.189   0.150  0.1696  0.0808  0.0248
 3500TIP3    H231916   4.587   0.291   0.053  0.5751  0.0910 -0.1967
 3501TIP3   OH231917   5.023   3.050   3.481  0.3160 -0.1045  0.4846
 3501TIP3    H131918   4.959   2.985   3.451 -0.1462  0.5866 -0.0444
 3501TIP3    H231919   4.976   3.101   3.547  0.4192  0.2023  0.3215
 3502TIP3   OH231920   3.578   5.778  14.711 -0.5955  0.4566 -0.5062
 3502TIP3    H131921   3.646   5.713  14.726 -0.0909  0.7874 -1.2801
 3502TIP3    H231922   3.498   5.739  14.746  0.0515  0.2049  0.7392
 3503TIP3   OH231923   5.124   5.407  12.307  0.1386 -0.5196  0.1021
 3503TIP3    H131924   5.173   5.445  12.234  0.8371 -0.5140  0.5620
 3503TIP3    H231925   5.142   5.313  12.301  0.6266 -0.4620  0.5665
 3504TIP3   OH231926   5.891   6.815  16.303 -0.2908 -0.9966 -0.3108
 3504TIP3    H131927   5.924   6.740  16.353  1.2825  0.4996  1.0266
 3504TIP3    H231928   5.963   6.878  16.305 -0.8726 -0.1287 -2.9576
 3505TIP3   OH231929   0.200   3.861  13.382 -0.0423 -0.2717 -0.6921
 3505TIP3    H131930   0.117   3.871  13.335 -0.1581 -1.0783 -0.6781
 3505TIP3    H231931   0.267   3.869  13.315 -0.0966  0.8830 -0.6304
 3506TIP3   OH231932   6.636   6.378   3.662 -0.3649  0.2663 -0.0892
 3506TIP3    H131933   6.697   6.415   3.726 -0.4450  0.6359 -0.2237
 3506TIP3    H231934   6.575   6.450   3.642  0.0190  0.3434 -1.0285
 3507TIP3   OH231935   1.103   1.708  13.912  0.1730 -0.1482 -0.2811
 3507TIP3    H131936   1.080   1.653  13.987  0.3536 -1.1738 -0.9633
 3507TIP3    H231937   1.199   1.705  13.909  0.2662  1.3031  0.4718
 3508TIP3   OH231938   1.598   0.491  14.243  0.0414 -0.1893 -0.4324
 3508TIP3    H131939   1.678   0.466  14.289 -0.0927 -1.0882 -0.6708
 3508TIP3    H231940   1.539   0.520  14.312  1.2932  2.6133 -0.4324
 3509TIP3   OH231941   0.696   0.234   3.484 -0.2072 -0.2399  0.1884
 3509TIP3    H131942   0.654   0.292   3.420  0.0086 -1.3887 -1.0305
 3509TIP3    H231943   0.625   0.208   3.542 -0.2858  1.3422  0.8678
 3510TIP3   OH231944   0.874   1.966   1.654  0.1692 -0.6855  0.0842
 3510TIP3    H131945   0.811   1.904   1.617 -0.7922  0.9430 -1.1463
 3510TIP3    H231946   0.827   2.049   1.658  1.6463  0.1518  0.9600
 3511TIP3   OH231947   0.316   5.280  14.646  0.2605  0.5595 -0.1814
 3511TIP3    H131948   0.384   5.212  14.650 -1.0796 -1.0438 -2.3089
 3511TIP3    H231949   0.246   5.240  14.595 -1.5220  2.8312  0.3386
 3512TIP3   OH231950   5.235   4.436  10.499 -0.5848  0.7172 -0.7368
 3512TIP3    H131951   5.171   4.402  10.437  0.6378 -0.7687 -1.2451
 3512TIP3    H231952   5.317   4.440  10.449  0.1773  0.5999  0.4510
 3513TIP3   OH231953   5.201   3.621   0.810  0.4782 -0.7812  0.3438
 3513TIP3    H131954   5.217   3.592   0.720  0.2789 -1.2491  0.4565
 3513TIP3    H231955   5.204   3.541   0.862 -0.3119 -0.6370  0.6291
 3514TIP3   OH231956   4.467   3.829  13.234 -0.7616 -0.3408  0.0845
 3514TIP3    H131957   4.476   3.901  13.296  0.7355 -0.9820  0.6441
 3514TIP3    H231958   4.499   3.863  13.151 -1.2802  0.0286  0.0321
 3515TIP3   OH231959   1.138   1.163  12.016  0.0232  0.1436 -0.0271
 3515TIP3    H131960   1.048   1.186  12.037  0.4138  0.8413  0.9676
 3515TIP3    H231961   1.152   1.078  12.058 -0.9839 -1.3703 -2.5149
 3516TIP3   OH231962   4.553   0.586   2.280 -0.0532 -0.1133 -0.8357
 3516TIP3    H131963   4.555   0.605   2.373 -0.8559  0.3060 -0.8925
 3516TIP3    H231964   4.628   0.529   2.265  1.2886  1.4675 -0.3117
 3517TIP3   OH231965   4.932   5.067   3.464 -0.0299 -0.2218 -0.3257
 3517TIP3    H131966   4.857   5.057   3.405 -0.1039 -2.9043  0.0889
 3517TIP3    H231967   4.993   5.123   3.416 -0.3910 -1.7141 -2.6935
 3518TIP3   OH231968   0.024   4.942  15.653 -0.0827 -0.3410  0.0922
 3518TIP3    H131969   0.094   5.007  15.650 -0.1433 -0.2623  0.4149
 3518TIP3    H231970  -0.007   4.936  15.562  1.6285 -1.7766 -0.4575
 3519TIP3   OH231971   0.477   0.885   4.238  0.0439  0.3823 -0.1061
 3519TIP3    H131972   0.413   0.892   4.168  0.0763 -0.1493 -0.1866
 3519TIP3    H231973   0.523   0.803   4.222  2.0152  1.6115 -1.1229
 3520TIP3   OH231974   1.903   2.715  15.555  0.5128  0.1936  0.0665
 3520TIP3    H131975   1.880   2.799  15.594  0.7627 -0.3309  1.4081
 3520TIP3    H231976   1.999   2.716  15.548  0.6319 -0.4486  1.2817
 3521TIP3   OH231977   2.104   2.986   1.920 -0.0124 -0.2160 -0.3589
 3521TIP3    H131978   2.042   3.019   1.985 -1.1408 -1.9739 -0.4794
 3521TIP3    H231979   2.182   3.040   1.932 -0.7806  0.5999  1.3049
 3522TIP3   OH231980   3.893   1.268   2.699  0.5780 -0.5273 -0.2408
 3522TIP3    H131981   3.973   1.266   2.646  0.8311  0.8402  0.0719
 3522TIP3    H231982   3.913   1.212   2.774  1.4997  0.3281  0.1748
 3523TIP3   OH231983   3.312   3.784  13.464 -0.2261  0.1943 -0.2413
 3523TIP3    H131984   3.352   3.858  13.417  0.1895 -0.7462 -1.4141
 3523TIP3    H231985   3.220   3.787  13.438 -0.1453  0.1127 -0.5426
 3524TIP3   OH231986   5.280   6.640  15.455  0.8745  0.1476  0.9613
 3524TIP3    H131987   5.300   6.729  15.484 -0.4639  1.3573 -1.5018
 3524TIP3    H231988   5.316   6.635  15.366 -1.0052 -0.9730  0.1935
 3525TIP3   OH231989   5.039   6.720   5.305 -0.2288 -0.0331 -0.2174
 3525TIP3    H131990   5.067   6.655   5.240  2.4477  2.6993 -2.0244
 3525TIP3    H231991   5.024   6.800   5.255 -1.7206  1.2675  2.1289
 3526TIP3   OH231992   3.032   2.697   4.007  0.3937  0.9585 -0.3200
 3526TIP3    H131993   3.071   2.727   3.925 -1.6399  1.1414 -1.2654
 3526TIP3    H231994   2.949   2.744   4.013 -1.6953 -2.3649 -0.5388
 3527TIP3   OH231995   4.580   3.411   2.292 -0.1971  0.3956 -0.1065
 3527TIP3    H131996   4.654   3.455   2.252  0.3387 -0.4004 -0.0131
 3527TIP3    H231997   4.617   3.334   2.335 -0.7481  1.1644  1.8827
 3528TIP3   OH231998   3.427   3.281   4.925  0.0594  0.0856  0.1934
 3528TIP3    H131999   3.436   3.318   5.013 -1.1011  2.3904 -0.5690
 3528TIP3    H232000   3.504   3.312   4.878  1.5020 -2.4177  0.6973
 3529TIP3   OH232001   5.319   0.621  16.047 -0.4048  0.5429 -0.2333
 3529TIP3    H132002   5.289   0.609  16.138 -0.1270 -0.2677 -0.2400
 3529TIP3    H232003   5.275   0.701  16.018 -0.3509  0.9240  0.6779
 3530TIP3   OH232004   3.322   2.369  14.128 -0.4083  0.0158 -0.2420
 3530TIP3    H132005   3.415   2.349  14.136 -0.3159  0.4964 -0.1060
 3530TIP3    H232006   3.318   2.441  14.065 -0.6434  0.3465  0.1440
 3531TIP3   OH232007   2.756   1.286  15.219 -0.2016  0.3162  0.6453
 3531TIP3    H132008   2.742   1.228  15.144  0.2496  0.6223  0.3271
 3531TIP3    H232009   2.726   1.372  15.189  1.2519  0.7444  0.3369
 3532TIP3   OH232010   1.059   3.086  11.617  0.1403  0.2716 -0.0526
 3532TIP3    H132011   1.025   3.116  11.533 -0.3189  0.4624  0.2007
 3532TIP3    H232012   1.035   3.155  11.679  1.0816  0.4726  0.1116
 3533TIP3   OH232013   6.668   3.726  11.401 -0.4875 -0.5886 -0.0329
 3533TIP3    H132014   6.612   3.780  11.345 -0.0556  1.2876  1.2502
 3533TIP3    H232015   6.721   3.789  11.449  0.6248 -2.2213  0.9710
 3534TIP3   OH232016   0.781   4.744  10.802  0.2935 -0.0446 -0.7446
 3534TIP3    H132017   0.803   4.657  10.770  2.5632  1.0281 -2.3577
 3534TIP3    H232018   0.714   4.776  10.742  0.6254 -0.0824 -1.1371
 3535TIP3   OH232019   0.207   5.510  11.323  0.2402 -0.9579 -0.6305
 3535TIP3    H132020   0.157   5.561  11.387  1.0591  0.0874 -0.7949
 3535TIP3    H232021   0.253   5.444  11.375  0.5185 -0.4234 -0.1793
 3536TIP3   OH232022   1.403   1.802   1.286 -0.0258  0.7492  0.3242
 3536TIP3    H132023   1.418   1.747   1.363 -2.1538  1.1972  1.1366
 3536TIP3    H232024   1.488   1.809   1.245  1.5444  1.6042  3.3853
 3537TIP3   OH232025   0.669   6.669   1.850 -0.5173  0.1881 -0.3339
 3537TIP3    H132026   0.665   6.711   1.936  2.4996 -1.7285  0.8893
 3537TIP3    H232027   0.622   6.586   1.861  0.6332 -0.4655 -0.2285
 3538TIP3   OH232028   3.856   5.813   0.613 -0.4234  1.1137 -0.5382
 3538TIP3    H132029   3.784   5.787   0.670  0.0011 -0.5541 -0.6936
 3538TIP3    H232030   3.920   5.853   0.671 -0.5270  0.5693 -0.0406
 3539TIP3   OH232031   1.407   1.589  15.930  0.0257  0.2757 -0.0138
 3539TIP3    H132032   1.403   1.501  15.892 -0.6087 -0.2824  1.2696
 3539TIP3    H232033   1.363   1.645  15.866  1.7982 -0.0452 -1.5727
 3540TIP3   OH232034   5.768   5.809  11.466  0.4106  0.2349  0.5423
 3540TIP3    H132035   5.850   5.827  11.512  0.0371  0.7669  1.0116
 3540TIP3    H232036   5.791   5.743  11.400  0.6727 -1.7541  2.4866
 3541TIP3   OH232037   0.934   4.998  16.280 -0.0731 -0.7301  0.0268
 3541TIP3    H132038   0.850   4.962  16.308 -1.1584  2.4111  1.2560
 3541TIP3    H232039   0.975   5.026  16.362  1.7704 -1.2985 -0.6601
 3542TIP3   OH232040   4.502   4.863  15.025 -0.0473  0.1866 -0.5979
 3542TIP3    H132041   4.538   4.787  15.072 -1.8165 -0.1001  0.3959
 3542TIP3    H232042   4.441   4.903  15.087 -0.3697  1.4741 -1.6929
 3543TIP3   OH232043   0.892   4.368  11.398 -0.2368 -0.0995 -0.1268
 3543TIP3    H132044   0.935   4.292  11.359  0.1690 -0.4144  0.9106
 3543TIP3    H232045   0.857   4.417  11.323 -0.3708 -1.2197 -0.8158
 3544TIP3   OH232046   3.343   1.231   3.353 -0.1903 -0.0984  0.5398
 3544TIP3    H132047   3.360   1.237   3.259  1.8926  0.8290  0.9171
 3544TIP3    H232048   3.378   1.313   3.389  1.5656 -1.5731  2.4276
 3545TIP3   OH232049   4.887   2.256  15.335 -0.3369  0.6260  0.5865
 3545TIP3    H132050   4.806   2.221  15.373  0.5611 -2.8178 -0.3259
 3545TIP3    H232051   4.956   2.198  15.369  1.4148  1.8774 -0.6810
 3546TIP3   OH232052   5.753   6.717   2.401  0.6228 -0.0625  0.3458
 3546TIP3    H132053   5.691   6.652   2.369 -2.5740  2.4441  0.9812
 3546TIP3    H232054   5.780   6.766   2.323 -0.5955  0.7161  0.3891
 3547TIP3   OH232055   2.279   1.589   4.303  0.0040  0.1008 -0.6957
 3547TIP3    H132056   2.327   1.641   4.368 -0.9228 -0.0360  0.1146
 3547TIP3    H232057   2.259   1.651   4.233  0.5476  0.3751 -0.6175
 3548TIP3   OH232058   1.111   6.233   1.739 -0.2998 -0.0117  0.1157
 3548TIP3    H132059   1.194   6.262   1.777  0.8205  0.1036 -2.2290
 3548TIP3    H232060   1.120   6.139   1.731 -0.6942 -0.0843  0.4840
 3549TIP3   OH232061   6.193   5.381  15.688  0.2707 -0.1605 -0.0947
 3549TIP3    H132062   6.171   5.465  15.727  0.3079 -0.4189  0.4917
 3549TIP3    H232063   6.224   5.327  15.761 -0.8796 -1.0748 -0.2465
 3550TIP3   OH232064   4.260   3.784  12.111 -0.3359 -0.2573 -0.1846
 3550TIP3    H132065   4.344   3.756  12.074 -0.7824 -0.7258 -0.8555
 3550TIP3    H232066   4.279   3.801  12.203  0.6291  0.2231 -0.4623
 3551TIP3   OH232067   1.610   3.136  15.934 -0.3791  0.3369 -0.2023
 3551TIP3    H132068   1.634   3.044  15.933  0.1894  0.3293  2.7649
 3551TIP3    H232069   1.523   3.137  15.976  1.3101  1.2233  3.7807
 3552TIP3   OH232070   1.691   0.536  13.057  0.4999 -0.1671  0.1957
 3552TIP3    H132071   1.704   0.557  12.964 -0.7541  0.8629  0.2178
 3552TIP3    H232072   1.681   0.441  13.059  0.9751 -0.2484 -0.6592
 3553TIP3   OH232073   4.131   6.482  11.118 -0.2891  0.1242  0.6310
 3553TIP3    H132074   4.157   6.446  11.033  0.1835  1.7924  0.0278
 3553TIP3    H232075   4.169   6.422  11.182 -0.2336 -0.8922 -0.3238
 3554TIP3   OH232076   4.463   3.631  16.169 -0.0392 -0.0174 -0.2746
 3554TIP3    H132077   4.394   3.663  16.226 -0.1527  2.7792 -1.8030
 3554TIP3    H232078   4.420   3.566  16.113 -0.5654 -0.7525  0.9399
 3555TIP3   OH232079   2.984   1.171   5.572  0.0152  0.4986  0.0265
 3555TIP3    H132080   2.956   1.220   5.650  3.1686  0.9112  1.0252
 3555TIP3    H232081   3.013   1.086   5.606 -2.6625 -1.1161 -1.3503
 3556TIP3   OH232082   5.639   3.273  13.829  0.0994 -0.5436 -0.1238
 3556TIP3    H132083   5.552   3.253  13.794  0.0060 -0.1545 -0.1151
 3556TIP3    H232084   5.641   3.229  13.915 -0.6579  0.6920  0.5547
 3557TIP3   OH232085   6.316   0.145  10.341 -0.2178  0.3309 -0.3318
 3557TIP3    H132086   6.224   0.132  10.366  0.1005 -1.2128  0.1547
 3557TIP3    H232087   6.349   0.211  10.403 -1.0093  0.9408 -0.5506
 3558TIP3   OH232088   6.316   4.718  16.691 -0.2030  0.2383  0.1353
 3558TIP3    H132089   6.327   4.801  16.737 -2.0590  0.5416  0.1027
 3558TIP3    H232090   6.321   4.741  16.598 -1.3566  0.4516  0.1086
 3559TIP3   OH232091   4.606   1.132  13.789 -0.1541 -0.3497  0.1938
 3559TIP3    H132092   4.684   1.096  13.748  0.7760  1.4822  0.2751
 3559TIP3    H232093   4.550   1.159  13.716 -0.4840 -1.1321  0.1431
 3560TIP3   OH232094   5.358   4.221  10.179 -0.3121 -0.0229 -0.6187
 3560TIP3    H132095   5.407   4.146  10.145  0.6593 -0.0140  0.6823
 3560TIP3    H232096   5.270   4.187  10.193 -0.4309 -0.3336 -1.9998
 3561TIP3   OH232097   1.874   3.278  10.399  0.1997  0.7495 -0.1438
 3561TIP3    H132098   1.938   3.320  10.457  1.5239  0.3146 -1.2446
 3561TIP3    H232099   1.894   3.314  10.313  0.7547 -1.4004 -0.9704
 3562TIP3   OH232100   6.457   0.276   3.677 -0.6712  0.0639 -0.1302
 3562TIP3    H132101   6.451   0.193   3.724  1.5579 -0.9766 -1.5009
 3562TIP3    H232102   6.533   0.320   3.714 -0.6453  0.5832 -0.7672
 3563TIP3   OH232103   2.938   2.741   3.722 -0.2088  0.2788  0.3879
 3563TIP3    H132104   2.867   2.679   3.741 -0.1910  0.6367  1.7136
 3563TIP3    H232105   2.896   2.809   3.669 -0.0008 -1.3229 -1.9836
 3564TIP3   OH232106   2.567   2.624   1.341  0.2146  0.1149 -0.5569
 3564TIP3    H132107   2.602   2.555   1.398  0.5533  0.1264 -0.7478
 3564TIP3    H232108   2.589   2.706   1.386  0.4032  0.1205 -0.6570
 3565TIP3   OH232109   5.182   0.603  11.804 -0.0782 -0.1053  0.3837
 3565TIP3    H132110   5.225   0.602  11.718  0.2251  0.3941  0.5296
 3565TIP3    H232111   5.226   0.673  11.852 -0.7422  0.0952  0.6995
 3566TIP3   OH232112   2.374   0.625   0.267 -0.1627  0.4137 -0.2289
 3566TIP3    H132113   2.282   0.648   0.278 -0.1886  0.1061  0.2454
 3566TIP3    H232114   2.420   0.678   0.332 -0.3245 -1.5041  1.5731
 3567TIP3   OH232115   2.193   4.669   3.192  0.3043 -0.4164  0.4142
 3567TIP3    H132116   2.227   4.735   3.131 -1.0594 -1.2028 -1.2729
 3567TIP3    H232117   2.155   4.720   3.263  0.1998  0.6030 -0.3415
 3568TIP3   OH232118   0.771   2.085   1.010 -0.0862  0.0541 -0.0175
 3568TIP3    H132119   0.830   2.160   1.018 -0.7810  0.4604  1.7371
 3568TIP3    H232120   0.759   2.055   1.100  1.2477 -3.0414 -0.7439
 3569TIP3   OH232121   3.182   3.992   5.816 -0.1380 -0.0331  0.0034
 3569TIP3    H132122   3.255   4.045   5.849  0.4807 -1.4102  0.9408
 3569TIP3    H232123   3.112   4.055   5.800  0.5566  1.0656  1.1029
 3570TIP3   OH232124   4.364   4.327  13.995  0.4584 -0.0146 -0.2914
 3570TIP3    H132125   4.394   4.302  14.083 -3.0005  0.6580  1.2485
 3570TIP3    H232126   4.351   4.421  14.000 -1.2741 -0.1845 -0.9611
 3571TIP3   OH232127   6.630   3.122  14.341 -0.4886 -0.0235  0.2321
 3571TIP3    H132128   6.592   3.192  14.394  1.8972  1.0676  0.6139
 3571TIP3    H232129   6.624   3.044  14.396 -1.1353  0.3562  0.7153
 3572TIP3   OH232130   6.067   2.274   5.537  0.6856 -0.2950  0.2281
 3572TIP3    H132131   6.011   2.197   5.523  1.4303 -1.2276  2.0327
 3572TIP3    H232132   6.153   2.238   5.558  1.3645  1.0764 -0.0925
 3573TIP3   OH232133   3.702   0.633   3.859  0.1756 -0.2885 -0.5983
 3573TIP3    H132134   3.674   0.720   3.887 -0.1444 -1.0560  1.7275
 3573TIP3    H232135   3.620   0.582   3.855  0.3312 -0.4618 -2.1508
 3574TIP3   OH232136   0.558   3.400  16.677 -0.2542 -0.3799 -0.1260
 3574TIP3    H132137   0.557   3.443  16.591  0.3478  0.3835  0.2372
 3574TIP3    H232138   0.639   3.430  16.718  0.0905 -1.7123  0.2325
 3575TIP3   OH232139   3.155   4.465   5.315 -0.3821  1.1998 -0.0064
 3575TIP3    H132140   3.084   4.403   5.299  0.3100  0.3624  0.0897
 3575TIP3    H232141   3.149   4.483   5.409 -1.1317  1.9756 -0.1942
 3576TIP3   OH232142   3.735   5.749  10.706  0.0318 -0.1684 -0.1234
 3576TIP3    H132143   3.800   5.793  10.761  0.6144  1.2170 -1.8284
 3576TIP3    H232144   3.778   5.668  10.678 -0.3141 -0.9430  1.4838
 3577TIP3   OH232145   3.146   0.075  14.166 -0.1017 -0.2749 -0.4306
 3577TIP3    H132146   3.236   0.105  14.178 -0.3076  0.3511 -0.3544
 3577TIP3    H232147   3.111   0.069  14.255 -0.5915  0.9986 -0.5101
 3578TIP3   OH232148   4.261   6.759  14.723 -0.3915  0.0195 -0.1926
 3578TIP3    H132149   4.308   6.676  14.730 -1.6836 -0.7360 -0.1902
 3578TIP3    H232150   4.174   6.735  14.692 -0.5231  1.4695 -1.0439
 3579TIP3   OH232151   3.411   5.037   4.091  0.0882 -0.5192 -0.1450
 3579TIP3    H132152   3.371   4.960   4.133 -0.0623 -0.1221  0.4508
 3579TIP3    H232153   3.476   5.067   4.155 -0.7053  0.5758  0.1773
 3580TIP3   OH232154   3.747   2.388   1.389  0.0674  0.1684 -0.4771
 3580TIP3    H132155   3.734   2.293   1.385  1.6123 -0.1268  0.5026
 3580TIP3    H232156   3.663   2.425   1.363 -1.2238 -1.4789  1.0683
 3581TIP3   OH232157   6.387   3.168  13.282 -0.3619  0.0482 -0.4249
 3581TIP3    H132158   6.436   3.171  13.364  2.7613  1.1085 -2.1448
 3581TIP3    H232159   6.355   3.078  13.276  0.7275 -0.4911  1.1946
 3582TIP3   OH232160   5.986   1.799   5.313  0.5079  0.2986  0.1265
 3582TIP3    H132161   5.948   1.871   5.363  0.8809  1.4984 -1.2559
 3582TIP3    H232162   5.976   1.722   5.370  0.4245  1.4928  1.7944
 3583TIP3   OH232163   2.812   2.692  15.977 -0.2370  0.0532  0.1364
 3583TIP3    H132164   2.758   2.613  15.984 -0.6163  0.3200  0.2490
 3583TIP3    H232165   2.791   2.742  16.055 -0.8385  0.7824 -0.4750
 3584TIP3   OH232166   4.874   6.019  10.641  0.1211 -0.0063  0.0581
 3584TIP3    H132167   4.903   6.097  10.689  1.4469  0.0201 -0.7345
 3584TIP3    H232168   4.917   6.025  10.556  1.2363 -2.1771  0.3799
 3585TIP3   OH232169   1.984   0.345  15.853 -0.4633 -0.5459  0.9097
 3585TIP3    H132170   1.970   0.359  15.759 -2.3417 -2.5268  0.8056
 3585TIP3    H232171   2.012   0.430  15.886  0.7946  0.0616 -1.5133
 3586TIP3   OH232172   0.990   0.915  13.620  0.3632  0.4113  0.2549
 3586TIP3    H132173   1.064   0.906  13.680  0.1604  0.5112  0.5203
 3586TIP3    H232174   0.973   0.825  13.589  0.8018  0.4310 -0.0636
 3587TIP3   OH232175   6.466   5.687  11.801 -0.5171  0.4040  0.6151
 3587TIP3    H132176   6.427   5.681  11.888 -1.8313  1.8112  0.1728
 3587TIP3    H232177   6.415   5.628  11.747  0.4565 -0.6596  0.8091
 3588TIP3   OH232178   5.267   5.521  16.336  0.0490 -0.3718 -0.0240
 3588TIP3    H132179   5.221   5.473  16.405 -0.3670  3.1250  2.3912
 3588TIP3    H232180   5.204   5.587  16.307  1.1350 -0.1223 -1.9588
 3589TIP3   OH232181   3.284   1.195   1.176 -0.4044 -0.4283  0.3678
 3589TIP3    H132182   3.250   1.278   1.210 -1.3507 -0.1587 -1.1199
 3589TIP3    H232183   3.274   1.133   1.248 -1.9152  0.2055  0.7502
 3590TIP3   OH232184   4.072   1.321  14.416  0.0008 -0.2879 -0.0883
 3590TIP3    H132185   4.021   1.397  14.387 -1.9687 -1.0388  1.2290
 3590TIP3    H232186   4.139   1.311  14.348  0.8945  3.0855  0.0918
 3591TIP3   OH232187   2.273   4.670   5.156  0.1077  0.3142  0.3236
 3591TIP3    H132188   2.267   4.585   5.200 -0.4406 -0.3660 -0.9959
 3591TIP3    H232189   2.208   4.665   5.086  0.5893  1.5451 -0.2333
 3592TIP3   OH232190   6.007   3.336   5.509 -0.3981  0.3114 -0.2239
 3592TIP3    H132191   6.051   3.384   5.578  0.9998 -1.3335  0.1027
 3592TIP3    H232192   5.915   3.333   5.536 -0.1241  0.9099  0.8254
 3593TIP3   OH232193   6.622   4.362  10.997  0.0495 -0.3404  0.2290
 3593TIP3    H132194   6.606   4.447  11.038  0.1116 -0.2724  0.1114
 3593TIP3    H232195   6.717   4.349  11.005 -0.2371 -1.6704  2.7931
 3594TIP3   OH232196   3.521   6.615   9.978  0.9610 -0.4556  0.4660
 3594TIP3    H132197   3.466   6.651  10.048  0.8889  0.4735 -0.0491
 3594TIP3    H232198   3.611   6.632  10.008  0.9230  0.8331 -0.0946
 3595TIP3   OH232199   1.687   2.453   5.375  0.7277  0.0983  0.1113
 3595TIP3    H132200   1.733   2.452   5.459  0.3678  0.4082  0.3151
 3595TIP3    H232201   1.668   2.546   5.359  0.9468  0.0590 -0.3980
 3596TIP3   OH232202   1.352   1.261  12.663 -0.0697 -0.4594 -0.8008
 3596TIP3    H132203   1.339   1.166  12.657 -1.5138 -0.4132  0.7898
 3596TIP3    H232204   1.430   1.278  12.610  1.1497 -2.7488  0.1319
 3597TIP3   OH232205   1.441   1.772  14.448 -0.4999 -0.4632  0.3869
 3597TIP3    H132206   1.386   1.695  14.460  0.4448 -1.1020  0.7896
 3597TIP3    H232207   1.528   1.744  14.478 -0.1069  0.7167  0.4100
 3598TIP3   OH232208   6.474   2.391   2.221  0.0946  0.2133  0.0587
 3598TIP3    H132209   6.473   2.301   2.187  1.0297  0.1156  0.2762
 3598TIP3    H232210   6.475   2.380   2.316  1.5380  0.4278  0.0814
 3599TIP3   OH232211   3.357   1.105  15.007  0.2746 -0.3060 -0.2928
 3599TIP3    H132212   3.445   1.110  15.044  0.1879  0.4266 -0.1813
 3599TIP3    H232213   3.335   1.195  14.984 -0.5487 -0.4482 -0.0925
 3600TIP3   OH232214   2.468   0.582  15.629 -0.2414 -0.3002  0.4997
 3600TIP3    H132215   2.517   0.651  15.673 -0.7765  0.4096 -0.0121
 3600TIP3    H232216   2.421   0.538  15.700 -1.5143  1.1697  0.6143
 3601TIP3   OH232217   4.222   4.147   0.360 -0.2845 -0.5623 -1.1546
 3601TIP3    H132218   4.258   4.075   0.309  1.3726 -0.9504  0.4619
 3601TIP3    H232219   4.183   4.105   0.437  1.1827  0.2307  0.0788
 3602TIP3   OH232220   6.491   5.417  11.686 -0.5892  0.0025  0.3163
 3602TIP3    H132221   6.566   5.401  11.628 -1.7199 -1.0828 -0.9363
 3602TIP3    H232222   6.506   5.360  11.761  0.0927  0.1818  0.3208
 3603TIP3   OH232223   1.502   5.213  13.518 -0.2800 -0.0499 -0.5526
 3603TIP3    H132224   1.443   5.161  13.463 -0.1196 -0.2660 -0.5239
 3603TIP3    H232225   1.466   5.301  13.515 -0.4878 -0.1378 -0.7008
 3604TIP3   OH232226   3.178   3.121  15.536 -0.5714  1.0008 -0.0989
 3604TIP3    H132227   3.086   3.114  15.509 -0.6660  2.1435 -0.1130
 3604TIP3    H232228   3.217   3.182  15.474  1.4959 -3.0649 -3.2266
 3605TIP3   OH232229   3.020   3.147  13.878 -0.1694 -0.9061 -0.0255
 3605TIP3    H132230   2.947   3.189  13.833  0.4935  0.1420 -0.1446
 3605TIP3    H232231   2.980   3.072  13.923 -1.1718 -0.8154 -0.7298
 3606TIP3   OH232232   0.514   6.053  13.524 -0.6556 -0.2225 -0.2793
 3606TIP3    H132233   0.554   6.132  13.489 -1.9814  0.9923  0.8485
 3606TIP3    H232234   0.575   6.022  13.591 -1.7569  1.9655  1.8789
 3607TIP3   OH232235   4.339   0.143   1.512 -0.8110  0.8631  0.0524
 3607TIP3    H132236   4.393   0.065   1.522 -1.7260  0.4383  2.2247
 3607TIP3    H232237   4.369   0.183   1.430  2.3375  0.3167  0.8029
 3608TIP3   OH232238   4.500   3.983   1.499  0.2648 -0.0477 -0.3602
 3608TIP3    H132239   4.495   4.019   1.410  1.4697  0.4037 -0.2678
 3608TIP3    H232240   4.421   4.014   1.542 -0.4709 -0.4876 -1.3389
 3609TIP3   OH232241   5.419   4.046   5.567 -0.5753  0.2450  0.2795
 3609TIP3    H132242   5.396   3.965   5.613  0.7603 -0.5771 -0.4251
 3609TIP3    H232243   5.350   4.057   5.502 -0.6812 -0.4578  0.2583
 3610TIP3   OH232244   0.597   3.622  12.151  0.1247 -0.0676  0.1059
 3610TIP3    H132245   0.535   3.664  12.092 -0.2443  0.9890  1.1919
 3610TIP3    H232246   0.584   3.528  12.137 -1.3432  0.1379 -0.0839
 3611TIP3   OH232247   3.041   1.641  10.480  0.2776  0.1132  0.1536
 3611TIP3    H132248   2.962   1.594  10.507 -0.0754  0.6925  0.1672
 3611TIP3    H232249   3.008   1.727  10.451  1.1964  1.6615  3.3089
 3612TIP3   OH232250   6.485   6.737  10.539 -0.0532 -0.6479 -0.2370
 3612TIP3    H132251   6.470   6.790  10.460  0.3949  0.7565  0.5863
 3612TIP3    H232252   6.570   6.694  10.523 -0.0191 -0.4612 -0.5644
 3613TIP3   OH232253   5.705   4.968   5.236  0.2464 -0.5044  0.8227
 3613TIP3    H132254   5.640   4.899   5.226 -0.2292 -0.1105  1.1686
 3613TIP3    H232255   5.789   4.924   5.222 -0.0983 -0.9912  0.2673
 3614TIP3   OH232256   6.246   4.198   2.709 -0.1296 -0.8300  0.1276
 3614TIP3    H132257   6.324   4.244   2.678 -0.8123 -0.8180 -1.6809
 3614TIP3    H232258   6.191   4.266   2.747  0.2606 -0.6628  0.3961
 3615TIP3   OH232259   4.681   5.524  11.880 -0.1645  0.8008  0.1058
 3615TIP3    H132260   4.678   5.428  11.876 -2.5091  0.8258 -0.5058
 3615TIP3    H232261   4.774   5.546  11.875  0.3651 -1.4028 -0.9301
 3616TIP3   OH232262   3.966   3.643  16.743  0.2134 -0.4667  0.0723
 3616TIP3    H132263   3.956   3.682  16.656 -0.9999 -0.2204  0.3034
 3616TIP3    H232264   4.060   3.628  16.752  0.3209 -0.9142 -1.4600
 3617TIP3   OH232265   6.090   2.630  10.116  0.2529 -0.3419  0.8086
 3617TIP3    H132266   6.066   2.708  10.164 -1.6775  0.0405 -0.6352
 3617TIP3    H232267   6.181   2.614  10.139  0.0982  1.1607  2.6677
 3618TIP3   OH232268   6.826   5.661  12.835 -0.2573  0.1383 -0.3855
 3618TIP3    H132269   6.921   5.670  12.837  0.0074 -2.1788  0.5735
 3618TIP3    H232270   6.809   5.602  12.761 -1.1046  1.5170 -1.3463
 3619TIP3   OH232271   1.295   1.104  16.172 -0.1061  0.0984 -0.2355
 3619TIP3    H132272   1.357   1.153  16.118  0.3304  3.0260  2.5764
 3619TIP3    H232273   1.341   1.023  16.195  0.7562  0.0724 -1.9247
 3620TIP3   OH232274   1.187   2.105  12.613 -0.4316 -0.1460 -0.3668
 3620TIP3    H132275   1.095   2.096  12.636 -0.5230  0.0095 -0.6504
 3620TIP3    H232276   1.186   2.150  12.528 -0.1101 -0.5873 -0.6129
 3621TIP3   OH232277   4.134   4.385   0.846 -0.3243  0.7179  0.4938
 3621TIP3    H132278   4.075   4.430   0.785 -0.2596  1.0023  0.6401
 3621TIP3    H232279   4.154   4.302   0.803  1.1003  1.6195 -0.6714
 3622TIP3   OH232280   6.458   5.802  16.324  0.0304 -0.2846 -0.2245
 3622TIP3    H132281   6.485   5.779  16.234 -1.4517 -1.0801 -0.4913
 3622TIP3    H232282   6.363   5.810  16.319 -0.0701 -0.3478  1.2906
 3623TIP3   OH232283   4.166   4.370   6.191 -0.1853  0.4630 -0.1064
 3623TIP3    H132284   4.128   4.283   6.186 -1.4535  0.4320  4.8775
 3623TIP3    H232285   4.261   4.356   6.189 -0.3279 -1.3137  1.8296
 3624TIP3   OH232286   6.587   2.124   0.487 -0.2862 -0.2277  0.0197
 3624TIP3    H132287   6.590   2.044   0.539 -0.9152 -0.3960 -0.1896
 3624TIP3    H232288   6.647   2.184   0.530 -1.3715 -0.0925  1.3980
 3625TIP3   OH232289   3.065   2.279   4.006  0.2531 -0.0310 -0.0034
 3625TIP3    H132290   3.158   2.285   4.027  0.4700  1.1410 -1.1925
 3625TIP3    H232291   3.058   2.307   3.915 -0.8382 -3.4416 -1.1215
 3626TIP3   OH232292   5.094   1.834   5.761  0.1099  0.4122 -0.3589
 3626TIP3    H132293   5.097   1.774   5.687 -0.3681 -1.3562  1.0007
 3626TIP3    H232294   5.168   1.894   5.746  0.4479 -0.3461 -1.8796
 3627TIP3   OH232295   5.108   2.509  14.550  0.1809 -0.1561 -0.4007
 3627TIP3    H132296   5.043   2.456  14.504  1.0652 -0.4378 -1.3673
 3627TIP3    H232297   5.081   2.599  14.533 -1.2169 -0.2346  1.0863
 3628TIP3   OH232298   0.555   5.593   4.032 -0.2831  0.5918 -0.0083
 3628TIP3    H132299   0.484   5.562   4.088  0.7398 -1.4933  0.2504
 3628TIP3    H232300   0.632   5.544   4.062  1.4697  3.2432  0.1749
 3629TIP3   OH232301   2.525   0.810  15.033  0.4104  0.1932  0.2099
 3629TIP3    H132302   2.468   0.744  15.071 -1.6375  0.9929 -1.2596
 3629TIP3    H232303   2.543   0.778  14.944  1.1151  0.6349  0.1830
 3630TIP3   OH232304   0.872   0.191   2.757  0.0663 -0.0883  0.2480
 3630TIP3    H132305   0.844   0.198   2.666  0.3609 -1.3041  0.0389
 3630TIP3    H232306   0.853   0.276   2.795 -0.8319  0.1698 -0.7351
 3631TIP3   OH232307   6.281   2.408   1.280  0.4941 -0.3270 -0.2619
 3631TIP3    H132308   6.337   2.334   1.302  0.5806  0.2752  1.6762
 3631TIP3    H232309   6.269   2.402   1.185  2.4464 -1.4333 -0.4709
 3632TIP3   OH232310   2.655   0.916  12.685 -0.0811  0.5513 -0.3957
 3632TIP3    H132311   2.684   0.892  12.597  1.2598  0.8407 -0.0680
 3632TIP3    H232312   2.695   1.002  12.700  0.1642  0.2611  0.7003
 3633TIP3   OH232313   3.434   4.430  16.246  0.3413  0.3938  0.3912
 3633TIP3    H132314   3.388   4.347  16.258  0.7921  0.2105  0.9431
 3633TIP3    H232315   3.427   4.473  16.331  0.8058  0.5540  0.3525
 3634TIP3   OH232316   2.896   0.490   2.397 -0.4977 -0.7324 -0.4879
 3634TIP3    H132317   2.825   0.490   2.461  1.9993 -0.6562  2.5338
 3634TIP3    H232318   2.917   0.397   2.384  0.1845 -0.7075  0.3254
 3635TIP3   OH232319   2.587   4.456   3.031  0.5282 -0.5752 -0.1023
 3635TIP3    H132320   2.653   4.392   3.056  1.1255 -1.6865 -3.9162
 3635TIP3    H232321   2.536   4.413   2.963 -0.3644  2.3160 -1.4185
 3636TIP3   OH232322   3.241   2.215   2.110  0.3013 -0.0879 -0.0392
 3636TIP3    H132323   3.324   2.205   2.157  0.1783  1.8249  0.6698
 3636TIP3    H232324   3.247   2.153   2.038  2.5270  0.2467 -0.2239
 3637TIP3   OH232325   0.943   4.419   5.713 -0.4710 -0.3076 -0.1270
 3637TIP3    H132326   0.985   4.341   5.750  0.4796  0.0832 -0.3588
 3637TIP3    H232327   0.923   4.474   5.789 -0.7008 -0.5618 -0.0031
 3638TIP3   OH232328   0.676   5.505  14.294  0.6646  0.2884  0.3414
 3638TIP3    H132329   0.643   5.415  14.299 -0.6500  0.7796  1.0108
 3638TIP3    H232330   0.600   5.557  14.267  0.7439  1.5174  2.2548
 3639TIP3   OH232331   2.688   5.992  13.260  0.4412 -0.3056  0.4265
 3639TIP3    H132332   2.605   6.038  13.273  0.5270 -0.4735  1.8003
 3639TIP3    H232333   2.749   6.060  13.233 -0.0749 -0.1346 -0.3382
 3640TIP3   OH232334   4.001   1.174   2.942 -0.1601 -0.7924  0.2876
 3640TIP3    H132335   3.962   1.198   3.026 -1.1556  0.5275 -0.5094
 3640TIP3    H232336   4.094   1.160   2.962 -0.0888  0.9081  1.3789
 3641TIP3   OH232337   3.735   1.805   2.115 -0.6198  0.6783  0.0063
 3641TIP3    H132338   3.644   1.818   2.089 -0.2518  1.5985 -0.8612
 3641TIP3    H232339   3.774   1.892   2.112  0.1770  0.3753  0.8630
 3642TIP3   OH232340   1.199   0.283  13.954  0.1684  0.4669 -0.8038
 3642TIP3    H132341   1.109   0.302  13.929  0.3483  0.0225 -1.8426
 3642TIP3    H232342   1.204   0.187  13.954  0.7111  0.4908 -1.0484
 3643TIP3   OH232343   1.279   3.589   3.391 -0.0865  0.1176 -0.8697
 3643TIP3    H132344   1.324   3.508   3.413  3.0409  0.9662 -3.3899
 3643TIP3    H232345   1.230   3.569   3.312  0.6610  0.6323 -1.4764
 3644TIP3   OH232346   1.111   1.596   6.138  0.7280 -0.0598 -0.2590
 3644TIP3    H132347   1.200   1.629   6.123  0.8187 -0.2837 -0.2222
 3644TIP3    H232348   1.108   1.513   6.090  0.3165  0.2784 -0.8323
 3645TIP3   OH232349   3.468   2.918  13.667  0.0700  0.2416  0.4310
 3645TIP3    H132350   3.373   2.913  13.672  0.0405 -2.0308 -0.9857
 3645TIP3    H232351   3.496   2.827  13.658  2.3214  0.9304 -0.1684
 3646TIP3   OH232352   3.230   3.764  14.927  0.2771 -0.7631 -0.3863
 3646TIP3    H132353   3.176   3.710  14.869  0.1690 -1.2497  0.1641
 3646TIP3    H232354   3.170   3.833  14.958  0.6687  0.3174 -1.8894
 3647TIP3   OH232355   2.533   2.159  16.344  0.2696 -0.4528 -0.0047
 3647TIP3    H132356   2.622   2.140  16.316 -0.2493 -2.4924 -0.4197
 3647TIP3    H232357   2.531   2.134  16.436  0.4092  0.7139  0.3346
 3648TIP3   OH232358   4.449   4.241   4.835 -0.3569  0.3364 -0.6162
 3648TIP3    H132359   4.479   4.305   4.900 -0.7659 -1.3304  1.3098
 3648TIP3    H232360   4.354   4.251   4.834 -0.3879  0.0275 -0.6239
 3649TIP3   OH232361   6.348   2.165   2.558  0.2725 -0.1790  0.4856
 3649TIP3    H132362   6.255   2.180   2.576  0.2139 -0.3277  0.3106
 3649TIP3    H232363   6.361   2.072   2.577  0.4015 -0.1429  0.5751
 3650TIP3   OH232364   3.060   1.076   2.388 -0.2231 -0.5657 -0.2985
 3650TIP3    H132365   2.978   1.094   2.435  0.3627 -1.4405  1.1118
 3650TIP3    H232366   3.079   0.985   2.408  1.5143 -0.1551  0.0907
 3651TIP3   OH232367   3.508   1.603   2.794  0.4374  0.4696 -0.0230
 3651TIP3    H132368   3.541   1.691   2.812  0.7656  0.7007 -1.5616
 3651TIP3    H232369   3.567   1.569   2.726 -0.7994 -0.1995 -0.8005
 3652TIP3   OH232370   0.004   3.507  11.866  0.2579 -0.5700  0.2945
 3652TIP3    H132371   0.079   3.453  11.892  0.2891 -1.7667 -1.9872
 3652TIP3    H232372  -0.064   3.443  11.843 -0.3739  0.3969 -0.6123
 3653TIP3   OH232373   4.474   1.394  16.120  0.3282 -0.8587  0.3775
 3653TIP3    H132374   4.468   1.451  16.196 -1.3429  0.8704 -0.9364
 3653TIP3    H232375   4.539   1.328  16.144  1.9714  1.2720  2.1728
 3654TIP3   OH232376   3.123   2.030   3.722  0.6877  0.0398  0.5087
 3654TIP3    H132377   3.058   1.986   3.778 -0.3752  2.0353  0.9489
 3654TIP3    H232378   3.089   2.119   3.712  1.6696  0.2007 -2.0578
 3655TIP3   OH232379   4.433   6.653   1.038 -0.2079  0.0643  0.0441
 3655TIP3    H132380   4.414   6.565   1.005 -1.0928 -0.0714  0.8855
 3655TIP3    H232381   4.526   6.650   1.060 -0.5962 -1.2574  1.7450
 3656TIP3   OH232382   1.993   6.721   3.799 -0.1357  0.4779 -0.3725
 3656TIP3    H132383   1.902   6.736   3.772 -0.2052 -0.8777 -0.9776
 3656TIP3    H232384   1.989   6.648   3.860  0.7017 -0.9897 -1.9569
 3657TIP3   OH232385   1.302   6.428   0.721 -0.4257 -0.3037 -0.0072
 3657TIP3    H132386   1.302   6.473   0.806 -1.8446 -2.4781  1.2391
 3657TIP3    H232387   1.388   6.386   0.716 -1.2463 -2.4180  1.7499
 3658TIP3   OH232388   0.351   4.414   1.397  0.1814  0.4177  1.0592
 3658TIP3    H132389   0.399   4.406   1.314 -0.7903 -0.4415  0.5631
 3658TIP3    H232390   0.347   4.508   1.413  1.0958  0.5518  0.5531
 3659TIP3   OH232391   6.723   3.755  11.760  0.4624 -0.4257 -0.0220
 3659TIP3    H132392   6.781   3.829  11.739  0.0812  0.2407  1.1680
 3659TIP3    H232393   6.783   3.682  11.776  0.9243 -0.0367  0.0670
 3660TIP3   OH232394   2.774   4.357   2.405  0.1338  0.3499 -0.1505
 3660TIP3    H132395   2.817   4.437   2.374  2.2173 -0.6478 -0.0371
 3660TIP3    H232396   2.791   4.292   2.336 -0.0744 -0.4289  0.5117
 3661TIP3   OH232397   1.525   6.701  11.578 -0.1152  0.4288  0.4769
 3661TIP3    H132398   1.555   6.779  11.624 -0.3326  0.5046  0.4866
 3661TIP3    H232399   1.564   6.628  11.628 -0.4718  0.5046  0.8677
 3662TIP3   OH232400   4.971   0.698  12.891 -0.0362  0.3695 -0.9770
 3662TIP3    H132401   4.938   0.715  12.979  0.4252 -0.0081 -0.7296
 3662TIP3    H232402   4.941   0.609  12.871  0.2250  0.2934 -1.0316
 3663TIP3   OH232403   2.536   2.594   0.488 -0.0437  0.5460 -0.0541
 3663TIP3    H132404   2.631   2.581   0.482 -0.2359 -0.6644 -0.7165
 3663TIP3    H232405   2.498   2.516   0.449 -1.3109  1.9077 -1.7366
 3664TIP3   OH232406   5.764   6.638   0.290 -0.0714  0.3426  0.3785
 3664TIP3    H132407   5.822   6.670   0.221  0.4326 -0.8062  0.2605
 3664TIP3    H232408   5.800   6.675   0.370  0.9582 -0.5108  0.3289
 3665TIP3   OH232409   1.532   3.752  13.953  0.5397  0.4716 -0.3115
 3665TIP3    H132410   1.468   3.687  13.923  0.8646  0.3593 -0.7735
 3665TIP3    H232411   1.544   3.733  14.046  2.5268 -1.7972 -0.9488
 3666TIP3   OH232412   0.777   6.326   0.011 -0.1306 -0.0250 -0.2746
 3666TIP3    H132413   0.844   6.302   0.075 -1.0992 -0.6606  0.5172
 3666TIP3    H232414   0.763   6.420   0.025 -0.7615 -0.2741  0.8725
 3667TIP3   OH232415   5.400   3.280  15.730  0.0921  0.2620  0.3626
 3667TIP3    H132416   5.479   3.325  15.701  0.2785 -0.0086  0.4440
 3667TIP3    H232417   5.416   3.259  15.822  0.3719 -0.7390  0.0979
 3668TIP3   OH232418   3.549   3.510  12.569 -0.0136  0.7915  0.4359
 3668TIP3    H132419   3.635   3.480  12.597 -0.9912 -2.3881  0.4868
 3668TIP3    H232420   3.511   3.434  12.524 -2.2446  2.5499 -0.8693
 3669TIP3   OH232421   1.966   4.549   4.125 -0.1340 -0.0909 -0.6376
 3669TIP3    H132422   1.904   4.620   4.109  0.1344  0.1921 -0.4231
 3669TIP3    H232423   2.043   4.592   4.162 -0.7783 -0.7399  1.5747
 3670TIP3   OH232424   6.583   2.594   0.496 -0.2333  0.1273 -0.3359
 3670TIP3    H132425   6.666   2.593   0.448 -0.7608  0.0496 -1.2877
 3670TIP3    H232426   6.525   2.538   0.444 -1.0536  0.6533 -0.0140
 3671TIP3   OH232427   1.068   2.408  13.068  0.2382 -0.3834 -0.0375
 3671TIP3    H132428   0.975   2.403  13.048  0.0733  0.6702  0.4340
 3671TIP3    H232429   1.076   2.479  13.131  1.6632  1.4355 -2.1179
 3672TIP3   OH232430   2.155   1.622   3.376  0.3904  0.3869 -0.5145
 3672TIP3    H132431   2.186   1.649   3.462  0.9831  0.5470 -0.7786
 3672TIP3    H232432   2.221   1.560   3.344 -0.7794 -1.1584 -0.0551
 3673TIP3   OH232433   4.118   1.975  15.860  0.0642 -0.2257 -0.0610
 3673TIP3    H132434   4.079   2.043  15.804  0.6068 -0.6525 -0.9663
 3673TIP3    H232435   4.178   2.023  15.917 -1.0588  0.3168  0.7120
 3674TIP3   OH232436   3.390   2.639   3.725  0.0559 -0.5323 -0.0646
 3674TIP3    H132437   3.386   2.703   3.797 -1.2691 -0.8685  0.1766
 3674TIP3    H232438   3.300   2.607   3.716  0.4146 -1.2678 -1.1836
 3675TIP3   OH232439   0.288   3.350   5.246 -0.0552 -0.4495  0.0698
 3675TIP3    H132440   0.349   3.280   5.224 -0.1976 -0.9129  1.0598
 3675TIP3    H232441   0.335   3.431   5.227  0.9811 -0.7902  1.0697
 3676TIP3   OH232442   1.637   1.698   1.411 -0.5126  0.0008  0.3073
 3676TIP3    H132443   1.675   1.716   1.496  1.7889 -0.6832 -0.5217
 3676TIP3    H232444   1.629   1.603   1.407  1.4871 -0.1786 -1.0113
 3677TIP3   OH232445   5.891   4.916   3.056 -0.0134  0.0302 -0.1955
 3677TIP3    H132446   5.965   4.877   3.103  0.3256 -1.1537 -1.6183
 3677TIP3    H232447   5.852   4.977   3.118 -1.5041 -3.6100  2.7833
 3678TIP3   OH232448   0.313   2.414   2.172 -0.0078  0.1473  0.6834
 3678TIP3    H132449   0.382   2.359   2.133 -0.3877 -1.7277  2.4307
 3678TIP3    H232450   0.246   2.420   2.105  0.0120 -1.6901  0.4319
 3679TIP3   OH232451   3.432   0.757   4.913  0.0499  0.2074 -0.1704
 3679TIP3    H132452   3.452   0.748   4.820 -1.3161  0.0007 -0.4567
 3679TIP3    H232453   3.511   0.796   4.951  1.1758 -1.0366 -1.1536
 3680TIP3   OH232454   3.459   6.679   5.290  0.6338  0.2544  0.0085
 3680TIP3    H132455   3.505   6.763   5.298 -2.1722  1.8741  0.6126
 3680TIP3    H232456   3.441   6.654   5.380 -1.6813  0.9553 -0.1990
 3681TIP3   OH232457   2.245   6.392   4.627 -0.3506  0.1779 -1.2793
 3681TIP3    H132458   2.265   6.300   4.614  0.4620  0.1997 -0.3005
 3681TIP3    H232459   2.316   6.439   4.584  0.8385  0.2787  0.6816
 3682TIP3   OH232460   5.857   2.741  14.519  0.1152  0.7027 -0.5900
 3682TIP3    H132461   5.764   2.737  14.495  0.4460 -1.0712 -1.7558
 3682TIP3    H232462   5.895   2.802  14.455  0.1016 -0.1828 -1.4669
 3683TIP3   OH232463   1.563   3.118   3.225 -0.3178 -0.1909  0.4079
 3683TIP3    H132464   1.525   3.078   3.303 -1.6575 -1.3006 -0.7766
 3683TIP3    H232465   1.557   3.212   3.241 -1.4545 -0.3887  1.2357
 3684TIP3   OH232466   3.762   2.883  16.545 -0.0665 -0.2298 -0.6236
 3684TIP3    H132467   3.790   2.844  16.628  0.1618  1.0457 -0.0819
 3684TIP3    H232468   3.803   2.828  16.478  1.1204 -0.3074  0.1382
 3685TIP3   OH232469   6.756   5.951   4.256 -0.7816  0.2122 -0.3644
 3685TIP3    H132470   6.710   5.887   4.311  1.1249  0.0777  1.1979
 3685TIP3    H232471   6.752   6.032   4.306  1.0149  0.0811  0.0798
 3686TIP3   OH232472   0.370   5.533  11.801  0.0957 -0.1090  0.0826
 3686TIP3    H132473   0.327   5.587  11.867 -0.2180 -0.5719  0.2632
 3686TIP3    H232474   0.386   5.449  11.845  1.4135  0.1309  0.1001
 3687TIP3   OH232475   1.046   6.087  10.211 -0.2677 -0.2092  0.0874
 3687TIP3    H132476   1.135   6.114  10.191 -0.0223 -0.3232  0.9834
 3687TIP3    H232477   0.998   6.169  10.223  0.3377 -0.0914  2.2040
 3688TIP3   OH232478   1.471   1.814   3.119  0.0749  0.0359  0.3345
 3688TIP3    H132479   1.472   1.896   3.070  0.6733  0.6260  1.2968
 3688TIP3    H232480   1.458   1.841   3.210 -1.8583 -1.0796  0.4449
 3689TIP3   OH232481   5.142   1.739   6.439  0.3736  0.1703  0.2172
 3689TIP3    H132482   5.098   1.654   6.439  0.2372  0.1794  2.2355
 3689TIP3    H232483   5.084   1.796   6.490  0.3996  1.5347 -1.2186
 3690TIP3   OH232484   5.927   1.984   2.603 -0.4199 -0.2738 -0.0705
 3690TIP3    H132485   5.970   1.900   2.591 -0.3759 -0.2337 -0.1905
 3690TIP3    H232486   5.863   1.989   2.532  1.0496  0.7382 -1.3791
 3691TIP3   OH232487   5.502   5.829   5.062  0.4340 -0.4889 -0.6942
 3691TIP3    H132488   5.434   5.772   5.096  0.5662  0.5299  1.4258
 3691TIP3    H232489   5.470   5.856   4.976 -2.1364  0.3942  0.4470
 3692TIP3   OH232490   3.446   0.851   0.101 -0.0406 -0.4127 -0.6611
 3692TIP3    H132491   3.416   0.831   0.012 -1.0404  0.8130 -0.6251
 3692TIP3    H232492   3.541   0.843   0.096 -0.0778 -0.2924 -1.8620
 3693TIP3   OH232493   5.010   3.642   5.860 -0.2170  0.6574 -0.2604
 3693TIP3    H132494   4.971   3.638   5.947 -0.5437 -1.8273 -0.4459
 3693TIP3    H232495   4.943   3.607   5.801  0.4734  1.0640 -1.3254
 3694TIP3   OH232496   3.749   4.986   0.526 -0.4449 -0.4747  0.4029
 3694TIP3    H132497   3.719   5.076   0.544 -0.2858 -0.4855  0.7360
 3694TIP3    H232498   3.674   4.944   0.484 -0.0450  0.2197 -1.0685
 3695TIP3   OH232499   6.177   5.727   5.111 -0.0657  0.0340  0.5834
 3695TIP3    H132500   6.153   5.780   5.035  1.2558 -1.7590 -1.1818
 3695TIP3    H232501   6.115   5.654   5.110  1.6905 -1.5517 -0.6119
 3696TIP3   OH232502   5.511   0.381  13.818  0.3828 -0.3197  0.7226
 3696TIP3    H132503   5.570   0.450  13.787 -0.3615 -0.0479 -0.1405
 3696TIP3    H232504   5.438   0.383  13.756  0.7207 -2.4352  0.1661
 3697TIP3   OH232505   2.901   2.030  14.290  0.8083  0.4699  0.5340
 3697TIP3    H132506   2.938   2.115  14.266 -1.4790  1.2471 -0.5499
 3697TIP3    H232507   2.865   1.996  14.208  0.8829 -1.1532  1.1395
 3698TIP3   OH232508   3.950   4.269  10.853 -0.4323 -0.3795 -0.0103
 3698TIP3    H132509   4.001   4.276  10.933 -0.3708  0.5237 -0.1280
 3698TIP3    H232510   3.956   4.355  10.811 -0.9445 -0.6595 -0.6932
 3699TIP3   OH232511   3.394   4.517   4.883  0.3530 -0.1555  0.2087
 3699TIP3    H132512   3.404   4.481   4.794 -0.7839 -0.2615  0.1061
 3699TIP3    H232513   3.460   4.471   4.935 -2.2118 -3.9322  0.5127
 3700TIP3   OH232514   6.178   2.293   5.013  0.3624 -0.1025  0.3786
 3700TIP3    H132515   6.135   2.212   5.039  0.9983 -0.2882  0.8873
 3700TIP3    H232516   6.182   2.289   4.918  0.0654 -0.5010  0.3818
 3701TIP3   OH232517   6.729   0.696  12.821  0.1479 -0.0826 -0.4143
 3701TIP3    H132518   6.783   0.775  12.815 -0.0724  0.2387  1.3103
 3701TIP3    H232519   6.678   0.696  12.740 -0.1773  1.8128 -0.2603
 3702TIP3   OH232520   3.626   2.374  13.419  0.1511  0.1553 -0.1212
 3702TIP3    H132521   3.553   2.416  13.465  1.2424  1.7625  0.2191
 3702TIP3    H232522   3.595   2.366  13.329 -0.6908  0.2102  0.1554
 3703TIP3   OH232523   4.983   0.201   5.727 -0.5281  0.2391  0.0019
 3703TIP3    H132524   4.995   0.132   5.662 -2.3106 -0.6442  0.5363
 3703TIP3    H232525   5.022   0.278   5.687  0.2800 -0.7558 -1.2165
 3704TIP3   OH232526   0.594   2.088   2.967 -0.5289 -0.2170 -0.4385
 3704TIP3    H132527   0.524   2.045   2.919 -0.4567 -0.7496 -0.0879
 3704TIP3    H232528   0.614   2.027   3.039  0.7955 -0.4300 -0.9623
 3705TIP3   OH232529   3.858   1.409  15.039  0.3221 -0.2539 -0.1035
 3705TIP3    H132530   3.765   1.422  15.060 -0.9388 -3.7143 -2.5712
 3705TIP3    H232531   3.891   1.356  15.112 -0.2089 -0.6581 -0.1467
 3706TIP3   OH232532   4.500   5.357  15.417  0.0983  0.4461 -0.0054
 3706TIP3    H132533   4.583   5.348  15.371  0.6267  1.8069  0.6407
 3706TIP3    H232534   4.477   5.268  15.444  0.4584 -0.1905 -1.6871
 3707TIP3   OH232535   3.555   6.379  13.415 -0.4028  0.3310  0.9822
 3707TIP3    H132536   3.625   6.315  13.403 -0.1061  0.2702  2.8811
 3707TIP3    H232537   3.474   6.330  13.398 -0.0868  0.0142  0.3532
 3708TIP3   OH232538   5.277   0.380  13.650  0.1410 -0.1831 -0.7449
 3708TIP3    H132539   5.204   0.344  13.702  2.2958 -0.2861  2.4929
 3708TIP3    H232540   5.246   0.467  13.624 -0.9610  0.0494  1.1287
 3709TIP3   OH232541   3.266   4.497  15.675 -0.0023  0.4776  0.5453
 3709TIP3    H132542   3.282   4.486  15.768  1.8177 -0.2608  0.1949
 3709TIP3    H232543   3.311   4.423  15.634  0.8370  1.7784 -1.0322
 3710TIP3   OH232544   4.568   4.651  11.033  0.1558  1.0039 -0.4755
 3710TIP3    H132545   4.502   4.583  11.023  0.0238  1.3166 -1.8547
 3710TIP3    H232546   4.519   4.733  11.026  0.1486  1.3242  2.1275
 3711TIP3   OH232547   5.919   0.663  11.866 -0.6498  0.0231  0.1662
 3711TIP3    H132548   5.986   0.716  11.909 -1.3851  0.2783  1.0369
 3711TIP3    H232549   5.837   0.707  11.887 -1.0599  0.0512 -1.3764
 3712TIP3   OH232550   1.456   6.431  15.889 -0.3590 -0.3801  0.7605
 3712TIP3    H132551   1.438   6.525  15.894  0.7066  0.0541 -1.9141
 3712TIP3    H232552   1.551   6.425  15.900 -0.4641 -1.1952  1.2713
 3713TIP3   OH232553   6.579   6.573  14.044 -0.1162 -0.0577  0.7957
 3713TIP3    H132554   6.592   6.668  14.034 -0.0261  0.2266  3.1298
 3713TIP3    H232555   6.659   6.535  14.007  0.1296  0.8129  0.3973
 3714TIP3   OH232556   5.628   5.541  16.709  0.4877 -0.3582 -0.1173
 3714TIP3    H132557   5.571   5.601  16.660  0.7538  1.0428  1.1953
 3714TIP3    H232558   5.581   5.525  16.791  1.2094 -0.5435  0.2678
 3715TIP3   OH232559   4.572   5.886  13.379  0.6234  0.3461  0.3212
 3715TIP3    H132560   4.570   5.815  13.315 -0.7827 -0.8982  1.6791
 3715TIP3    H232561   4.545   5.963  13.330  0.9185 -0.2841 -0.8851
 3716TIP3   OH232562   1.449   3.380   4.970  0.2495  0.1832 -0.3087
 3716TIP3    H132563   1.450   3.457   4.913  1.5249 -1.4207 -2.6374
 3716TIP3    H232564   1.531   3.334   4.948 -0.5430 -1.9071  0.8628
 3717TIP3   OH232565   2.531   2.922  14.034 -0.7146 -0.1970  0.2596
 3717TIP3    H132566   2.589   2.982  14.080 -2.8497  2.8976 -0.7890
 3717TIP3    H232567   2.573   2.909  13.948 -0.1003 -0.4713  0.5949
 3718TIP3   OH232568   1.170   4.122  12.129  0.2421  0.3614  0.2890
 3718TIP3    H132569   1.192   4.039  12.088 -1.4904  1.0873 -2.3937
 3718TIP3    H232570   1.244   4.179  12.110 -0.7240  0.8287 -2.5172
 3719TIP3   OH232571   3.671   4.154   3.899  0.6811 -0.5293 -0.1482
 3719TIP3    H132572   3.678   4.111   3.984  2.3867  0.4564  0.2605
 3719TIP3    H232573   3.577   4.171   3.888  0.5433  0.6186  2.2037
 3720TIP3   OH232574   2.917   2.346   0.674  0.1944  0.0929  0.2112
 3720TIP3    H132575   2.827   2.325   0.696  0.2063 -0.4703 -0.2608
 3720TIP3    H232576   2.910   2.414   0.607  0.1023 -0.5648 -0.4516
 3721TIP3   OH232577   3.609   6.039  11.452  0.2111  0.1688  0.2659
 3721TIP3    H132578   3.681   6.040  11.388  0.6014  1.1861  0.7078
 3721TIP3    H232579   3.570   6.126  11.446 -1.2686 -0.5041 -0.2596
 3722TIP3   OH232580   5.507   2.473   4.288 -0.0446 -0.0459 -0.0705
 3722TIP3    H132581   5.423   2.454   4.248 -1.8179 -0.9476  3.6221
 3722TIP3    H232582   5.492   2.554   4.337  0.9669 -0.6123  1.2464
 3723TIP3   OH232583   1.761   3.573  11.109  0.1295 -0.2878  0.0816
 3723TIP3    H132584   1.688   3.514  11.128 -0.0087  0.2435  1.3115
 3723TIP3    H232585   1.825   3.556  11.179  0.8740 -0.2311 -0.5656
 3724TIP3   OH232586   4.002   5.847   5.712 -0.5008 -0.3892  0.2631
 3724TIP3    H132587   4.036   5.897   5.786  0.8900 -2.2214  0.9687
 3724TIP3    H232588   3.915   5.819   5.739 -1.0806  1.1740  0.0668
 3725TIP3   OH232589   2.341   2.024   3.963 -0.1389 -0.0372  0.4764
 3725TIP3    H132590   2.313   2.108   3.926 -1.5380 -0.1542  1.1958
 3725TIP3    H232591   2.277   2.006   4.032  0.8644 -1.0984  1.1643
 3726TIP3   OH232592   6.805   0.850  10.990  0.1938  0.0158 -0.4033
 3726TIP3    H132593   6.737   0.906  11.028  0.6558  0.6983 -0.5656
 3726TIP3    H232594   6.870   0.842  11.059  1.1110  1.3875 -1.0693
 3727TIP3   OH232595   6.440   2.184  12.907 -0.0057 -0.1100 -0.4078
 3727TIP3    H132596   6.365   2.135  12.942 -0.2363 -0.1311 -0.9230
 3727TIP3    H232597   6.502   2.116  12.881  0.2776 -0.0886  0.1877
 3728TIP3   OH232598   2.806   2.413  10.902 -0.0927 -0.1611 -0.2538
 3728TIP3    H132599   2.783   2.505  10.911 -1.9204 -0.2721 -2.6292
 3728TIP3    H232600   2.784   2.392  10.811  2.4866 -2.3744 -0.4940
 3729TIP3   OH232601   5.902   5.016   2.149  0.0334 -0.2403 -0.2964
 3729TIP3    H132602   5.840   4.992   2.217 -1.1397 -2.3078 -1.9656
 3729TIP3    H232603   5.859   4.992   2.067  1.8941  0.9525 -1.7245
 3730TIP3   OH232604   3.418   1.067   1.925 -0.0139  0.6190 -0.0833
 3730TIP3    H132605   3.481   1.008   1.885 -2.3282 -1.3597 -1.0240
 3730TIP3    H232606   3.406   1.034   2.014  0.7083  1.3710  0.3014
 3731TIP3   OH232607   3.645   1.165   3.389 -0.0097  0.2470 -0.6694
 3731TIP3    H132608   3.622   1.073   3.376  1.8560 -0.6428  1.6372
 3731TIP3    H232609   3.576   1.200   3.445  0.1616 -0.2601 -0.1267
 3732TIP3   OH232610   2.157   0.725   0.662 -0.5782  0.1071  0.2370
 3732TIP3    H132611   2.183   0.639   0.631 -0.3143  0.8981 -1.9261
 3732TIP3    H232612   2.225   0.750   0.724 -1.5649 -1.8933  2.2458
 3733TIP3   OH232613   5.612   0.020  12.636 -0.3321 -0.3864  0.2413
 3733TIP3    H132614   5.637  -0.022  12.554 -1.7000 -0.7424 -0.0142
 3733TIP3    H232615   5.552   0.090  12.611 -1.8378 -1.3439  0.9916
 3734TIP3   OH232616   5.661   2.549   2.744 -0.0056 -0.1580 -0.2623
 3734TIP3    H132617   5.693   2.473   2.794 -0.3773  0.3661  0.7944
 3734TIP3    H232618   5.649   2.515   2.655  0.1984 -1.2419  0.1047
 3735TIP3   OH232619   0.734   0.855   9.526 -0.1589  0.1964  0.3203
 3735TIP3    H132620   0.791   0.852   9.604  0.8725 -1.3486 -0.4325
 3735TIP3    H232621   0.660   0.909   9.553  1.1878  1.4814  1.6771
 3736TIP3   OH232622   1.876   4.562   0.986 -0.1843 -0.5646 -0.2215
 3736TIP3    H132623   1.925   4.537   0.908 -1.3323 -3.8105 -0.0686
 3736TIP3    H232624   1.799   4.607   0.953  0.3066 -0.1425 -0.8053
 3737TIP3   OH232625   2.076   4.813  14.649  0.0312  0.1100 -0.0334
 3737TIP3    H132626   2.135   4.743  14.679  0.0208 -0.0244 -0.3264
 3737TIP3    H232627   2.082   4.880  14.718 -0.9212 -0.7150  0.8844
 3738TIP3   OH232628   4.890   4.488  12.973  0.1791  0.0512  0.3440
 3738TIP3    H132629   4.834   4.470  13.048  0.1628  1.0648  0.5920
 3738TIP3    H232630   4.927   4.403  12.950 -1.2495 -0.5922  0.3239
 3739TIP3   OH232631   3.246   5.030  11.739  0.0184 -0.6772 -0.0772
 3739TIP3    H132632   3.316   5.033  11.674 -0.9815 -1.1796 -1.2431
 3739TIP3    H232633   3.167   5.010  11.687 -1.0345  0.1702  1.1310
 3740TIP3   OH232634   4.918   4.097   1.823 -0.3420 -0.4572  0.8706
 3740TIP3    H132635   4.842   4.127   1.774  0.2937  1.1002  0.7997
 3740TIP3    H232636   4.883   4.076   1.910 -0.7799  0.8819  1.0471
 3741TIP3   OH232637   3.497   1.184   4.642  0.4366  0.1307  0.2001
 3741TIP3    H132638   3.518   1.150   4.554 -0.7265 -3.1296  1.0159
 3741TIP3    H232639   3.578   1.224   4.673  1.4389 -0.3816 -1.6221
 3742TIP3   OH232640   0.225   3.558  15.545 -0.1719 -0.6642  0.0578
 3742TIP3    H132641   0.190   3.617  15.612 -1.4002  1.0141 -1.9339
 3742TIP3    H232642   0.320   3.564  15.556 -0.3411 -1.3055  2.3084
 3743TIP3   OH232643   5.761   3.379   6.181 -0.0607 -0.3572  0.1354
 3743TIP3    H132644   5.819   3.453   6.198  0.0796 -0.3243 -0.4751
 3743TIP3    H232645   5.674   3.419   6.172 -0.1140 -0.3590  0.6008
 3744TIP3   OH232646   4.755   2.031  12.839  0.2625 -0.3165  0.4204
 3744TIP3    H132647   4.817   1.991  12.778  1.2177 -0.1986  1.2816
 3744TIP3    H232648   4.691   2.074  12.783  1.2473 -0.0063 -0.5142
 3745TIP3   OH232649   2.301   3.000  11.484 -1.0296 -0.6469  0.6536
 3745TIP3    H132650   2.293   3.090  11.454 -0.2949 -0.7155  0.2227
 3745TIP3    H232651   2.214   2.962  11.473 -1.4378  0.1162  1.2052
 3746TIP3   OH232652   6.693   1.630  11.451 -0.0183 -0.2811  0.5712
 3746TIP3    H132653   6.653   1.717  11.450  2.2890  0.8997  1.9486
 3746TIP3    H232654   6.783   1.645  11.422  0.6693 -2.0843  1.6423
 3747TIP3   OH232655   0.045   0.167   4.747 -0.2442  0.3541  0.1909
 3747TIP3    H132656   0.075   0.202   4.830  1.4711 -0.4887 -0.0104
 3747TIP3    H232657   0.013   0.079   4.768 -0.5231  0.4277  0.0769
 3748TIP3   OH232658   5.679   1.511   4.132 -0.3397  0.3039  0.0112
 3748TIP3    H132659   5.685   1.484   4.040 -0.7979 -0.6574  0.2489
 3748TIP3    H232660   5.769   1.509   4.164 -0.2176  0.3137 -0.3335
 3749TIP3   OH232661   0.610   3.441   0.999 -0.7750  0.3343  0.0648
 3749TIP3    H132662   0.690   3.493   0.993 -0.5817  0.0962  0.4761
 3749TIP3    H232663   0.610   3.388   0.920  0.7074 -1.3619  1.1103
 3750TIP3   OH232664   3.454   1.904  14.295  0.1242 -0.1411  0.1608
 3750TIP3    H132665   3.528   1.843  14.288  0.1484 -0.2949  1.3884
 3750TIP3    H232666   3.489   1.978  14.345 -1.1774 -1.4511  3.3186
 3751TIP3   OH232667   1.913   2.568   1.713 -0.0499 -0.2031  0.1633
 3751TIP3    H132668   1.888   2.541   1.625  2.1808  0.2015 -0.6576
 3751TIP3    H232669   1.979   2.505   1.740  1.2282  1.2106  0.4367
 3752TIP3   OH232670   4.853   1.091  12.312  0.3916  0.3913  0.3291
 3752TIP3    H132671   4.904   1.151  12.258  1.1930 -0.2056  0.4195
 3752TIP3    H232672   4.892   1.005  12.298  1.0271  0.2996  2.2923
 3753TIP3   OH232673   2.892   3.346   1.237 -0.5082 -0.3402 -0.1875
 3753TIP3    H132674   2.948   3.319   1.165  1.2768  0.7914  0.6979
 3753TIP3    H232675   2.858   3.264   1.273 -0.3015 -0.9858 -1.4209
 3754TIP3   OH232676   4.388   0.633  16.975 -0.3469 -0.2323  0.5615
 3754TIP3    H132677   4.342   0.678  17.046 -0.6862 -1.7741  1.3656
 3754TIP3    H232678   4.481   0.645  16.994 -0.2484  3.5650 -1.4911
 3755TIP3   OH232679   3.538   4.477  12.436  0.0782 -0.8921  0.0010
 3755TIP3    H132680   3.574   4.431  12.512 -0.5281  0.7270  1.3289
 3755TIP3    H232681   3.447   4.495  12.459  0.1613  0.5285 -0.6563
 3756TIP3   OH232682   4.264   2.209   2.246 -0.4481 -0.1013 -0.0845
 3756TIP3    H132683   4.228   2.186   2.161  0.1979 -0.7847 -0.1804
 3756TIP3    H232684   4.194   2.258   2.289 -0.7632  0.2772 -1.0154
 3757TIP3   OH232685   5.247   2.342   0.436 -0.0662 -0.3228 -0.6496
 3757TIP3    H132686   5.284   2.406   0.496  0.2537 -0.0150 -1.1643
 3757TIP3    H232687   5.178   2.298   0.486  2.2235 -2.2687  1.0225
 3758TIP3   OH232688   0.902   1.648  12.865  0.3908 -0.1722  0.5415
 3758TIP3    H132689   0.967   1.716  12.881 -1.3029  1.5247  0.4926
 3758TIP3    H232690   0.927   1.610  12.780  1.2085  0.5499  0.4478
 3759TIP3   OH232691   4.978   5.445  15.783  0.4285  0.5268 -0.0905
 3759TIP3    H132692   5.034   5.412  15.713  1.2411  2.0930 -0.2400
 3759TIP3    H232693   5.038   5.493  15.840 -0.0173 -1.5816  2.3105
 3760TIP3   OH232694   5.548   1.480   5.349 -0.1569  0.2156  0.1527
 3760TIP3    H132695   5.586   1.568   5.343 -2.0536  1.0781  0.0188
 3760TIP3    H232696   5.623   1.423   5.366  0.9455  2.0732  2.1405
 3761TIP3   OH232697   6.167   5.666   6.146  0.2435 -0.2812 -0.1042
 3761TIP3    H132698   6.207   5.622   6.072  1.3171  0.5390 -0.0489
 3761TIP3    H232699   6.228   5.651   6.219  0.0745  0.3401  0.1788
 3762TIP3   OH232700   1.820   0.355  13.825 -0.3992  0.6303 -0.7930
 3762TIP3    H132701   1.736   0.364  13.870 -0.1966  0.7074 -0.4332
 3762TIP3    H232702   1.826   0.434  13.771 -0.4079  0.7790 -0.5752
 3763TIP3   OH232703   1.386   3.844   1.419  0.0708  0.8655 -0.6842
 3763TIP3    H132704   1.426   3.799   1.493 -1.2115 -0.0658 -0.5268
 3763TIP3    H232705   1.460   3.880   1.370  0.9794  0.8277  0.6143
 3764TIP3   OH232706   2.780   6.378  14.065 -0.4186  0.3145  0.1301
 3764TIP3    H132707   2.838   6.359  13.991 -1.1456  1.1626 -0.6783
 3764TIP3    H232708   2.793   6.304  14.126  0.8768  0.0769 -0.4098
 3765TIP3   OH232709   4.927   2.934   0.267  0.0169 -0.0282  0.3409
 3765TIP3    H132710   4.882   2.850   0.277 -1.2147  0.2893 -1.9492
 3765TIP3    H232711   4.911   2.959   0.176  2.2510  1.6256  0.3239
 3766TIP3   OH232712   3.782   1.419  13.546 -0.0186 -0.3503  0.7511
 3766TIP3    H132713   3.787   1.336  13.593 -3.0897 -0.5213  0.9639
 3766TIP3    H232714   3.737   1.398  13.464 -0.0424  0.9761  0.3970
 3767TIP3   OH232715   1.975   6.409   4.545 -0.1901 -0.3453 -0.5253
 3767TIP3    H132716   1.982   6.471   4.473 -0.3193  0.1094 -0.1537
 3767TIP3    H232717   2.063   6.403   4.581  0.0117 -1.0473 -1.0956
 3768TIP3   OH232718   0.874   2.719  15.255 -0.1265 -0.3590  0.6434
 3768TIP3    H132719   0.870   2.737  15.161 -0.5072 -1.2916  0.4680
 3768TIP3    H232720   0.886   2.805  15.296  0.8709 -0.0271 -0.3017
 3769TIP3   OH232721   1.116   2.652   2.049  0.4985  0.1533 -0.2336
 3769TIP3    H132722   1.118   2.651   2.145  1.6093 -0.5540 -0.2550
 3769TIP3    H232723   1.120   2.560   2.024  2.4355  0.4033 -0.9764
 3770TIP3   OH232724   4.753   3.678   3.388  0.6154 -0.3714  0.0540
 3770TIP3    H132725   4.726   3.755   3.338  3.0044  0.1193 -0.5693
 3770TIP3    H232726   4.797   3.713   3.465  0.4858 -1.1380  0.4938
 3771TIP3   OH232727   5.787   6.060   1.778  0.1771 -0.2256  0.2317
 3771TIP3    H132728   5.881   6.059   1.794  0.6242 -2.1873 -1.9669
 3771TIP3    H232729   5.749   6.005   1.846  0.7541 -0.2809  0.5086
 3772TIP3   OH232730   2.728   3.889  15.318  0.0374  0.5864 -0.2827
 3772TIP3    H132731   2.649   3.898  15.371  1.2215  2.2186  1.3160
 3772TIP3    H232732   2.724   3.800  15.284 -1.5713  0.0046  1.2986
 3773TIP3   OH232733   6.621   2.798  16.441  0.0485 -0.4052 -1.0054
 3773TIP3    H132734   6.587   2.710  16.458  0.6498 -0.4389  0.1510
 3773TIP3    H232735   6.715   2.791  16.460  0.1225  0.4524 -1.0338
 3774TIP3   OH232736   4.081   5.842  16.396  0.0491  0.0123  0.7955
 3774TIP3    H132737   3.985   5.839  16.387  0.1746  0.2359 -1.0210
 3774TIP3    H232738   4.096   5.830  16.490 -1.7223 -0.9661  1.0145
 3775TIP3   OH232739   1.827   3.726   1.801 -0.0715  0.3774 -0.0830
 3775TIP3    H132740   1.805   3.666   1.872 -0.4098  1.7635  1.0263
 3775TIP3    H232741   1.892   3.678   1.749  0.4947 -0.5322  1.3832
 3776TIP3   OH232742   5.963   2.884  11.946  0.7657  0.1623 -0.3414
 3776TIP3    H132743   6.006   2.897  11.862  0.5462 -0.5815 -0.5796
 3776TIP3    H232744   6.008   2.809  11.985 -1.0371 -1.4350 -1.1318
 3777TIP3   OH232745   4.521   1.545  16.350 -0.8446  0.1418  0.0586
 3777TIP3    H132746   4.539   1.629  16.308  0.2719  0.1094  0.4367
 3777TIP3    H232747   4.607   1.503  16.357 -0.7985  0.5040  3.0783
 3778TIP3   OH232748   4.291   0.942   1.959  0.1641 -0.5154 -0.5213
 3778TIP3    H132749   4.286   0.862   2.011 -1.5387 -0.7067 -0.9253
 3778TIP3    H232750   4.222   0.998   1.993  0.3997  0.1982 -1.1868
 3779TIP3   OH232751   3.403   3.511   0.129  0.0088 -0.3381  0.6385
 3779TIP3    H132752   3.408   3.430   0.078 -3.6722 -1.0927  1.1441
 3779TIP3    H232753   3.432   3.579   0.069  2.2696 -1.8601 -0.1281
 3780TIP3   OH232754   0.255   1.792  11.829 -0.0811  0.5521  0.1137
 3780TIP3    H132755   0.180   1.846  11.807 -0.1690  0.4419  0.1395
 3780TIP3    H232756   0.253   1.787  11.925  0.2487  0.9599  0.1437
 3781TIP3   OH232757   5.325   6.186  16.247 -0.2163 -0.1758  0.3045
 3781TIP3    H132758   5.249   6.150  16.202  0.8260 -0.3945 -1.3815
 3781TIP3    H232759   5.392   6.194  16.179  2.0621 -2.1874  2.1136
 3782TIP3   OH232760   3.694   4.141  10.900  0.3994 -0.1878 -0.2876
 3782TIP3    H132761   3.783   4.178  10.898  0.8895 -1.3250 -0.5385
 3782TIP3    H232762   3.671   4.131  10.807 -1.1555  2.6964 -0.3028
 3783TIP3   OH232763   3.201   1.139  14.614  0.0088  0.0971 -0.9347
 3783TIP3    H132764   3.117   1.146  14.569 -0.2335 -0.7352 -0.6177
 3783TIP3    H232765   3.208   1.220  14.665 -0.6293  0.1389 -0.9076
 3784TIP3   OH232766   3.815   2.849  15.247 -0.0804 -0.3133 -0.2722
 3784TIP3    H132767   3.786   2.922  15.192 -0.3631  0.8992  1.4004
 3784TIP3    H232768   3.882   2.887  15.304 -0.3323 -1.3199  0.7226
 3785TIP3   OH232769   5.055   0.461   2.944  0.0823 -0.1131 -0.3369
 3785TIP3    H132770   4.977   0.409   2.963 -0.9360  1.1105 -0.9707
 3785TIP3    H232771   5.128   0.400   2.952 -0.7932 -0.9850  1.6161
 3786TIP3   OH232772   5.914   5.045   4.284 -0.0988  0.1204 -0.2556
 3786TIP3    H132773   5.869   4.960   4.280 -1.9866  1.0335  0.4457
 3786TIP3    H232774   5.888   5.082   4.368  1.8472  0.8129  0.0756
 3787TIP3   OH232775   2.464   0.130  14.819  0.2908  0.7504  0.4806
 3787TIP3    H132776   2.472   0.110  14.913  2.1142  0.2161  0.2439
 3787TIP3    H232777   2.540   0.088  14.779 -0.1068  1.5333 -1.1680
 3788TIP3   OH232778   4.051   4.346   1.196 -0.0931  0.6787 -0.1433
 3788TIP3    H132779   4.028   4.291   1.121  1.6182 -0.0239 -0.1822
 3788TIP3    H232780   3.973   4.343   1.253 -0.2043 -1.4444 -0.3479
 3789TIP3   OH232781   4.448   4.739   0.038  0.2774  0.4787  0.2864
 3789TIP3    H132782   4.485   4.650   0.040  0.8382  0.7224  1.3983
 3789TIP3    H232783   4.354   4.725   0.029  0.2821 -0.2682  1.2418
 3790TIP3   OH232784   5.672   5.969  14.762 -0.1786 -0.4493 -1.0671
 3790TIP3    H132785   5.668   5.883  14.719 -0.7407 -1.4570  0.8682
 3790TIP3    H232786   5.746   6.013  14.720  0.1642 -1.9050 -2.0819
 3791TIP3   OH232787   1.256   5.604  11.727  0.5572 -0.1890  0.3751
 3791TIP3    H132788   1.221   5.691  11.707 -1.6586 -1.3118 -1.1750
 3791TIP3    H232789   1.263   5.602  11.822  1.1976  1.8448  0.4157
 3792TIP3   OH232790   1.947   3.193   4.767  0.1189  0.0576  0.1863
 3792TIP3    H132791   1.855   3.170   4.775 -0.9830  3.6469 -0.2941
 3792TIP3    H232792   1.991   3.110   4.749 -2.9560 -1.8166  0.5829
 3793TIP3   OH232793   6.409   6.460  15.939 -0.4160  0.0391 -0.3968
 3793TIP3    H132794   6.486   6.429  15.986  0.9157  1.2322 -1.6782
 3793TIP3    H232795   6.394   6.548  15.973 -1.1836 -0.1612 -0.2042
 3794TIP3   OH232796   0.746   0.207  13.920  0.0178  0.5232 -0.2109
 3794TIP3    H132797   0.696   0.287  13.902 -0.5516  0.5492  1.3022
 3794TIP3    H232798   0.820   0.237  13.973  1.6291  0.4627 -2.3048
 3795TIP3   OH232799   4.632   5.223   0.344  0.2425 -0.3248 -0.0574
 3795TIP3    H132800   4.550   5.240   0.297 -0.2035  2.0743  1.4163
 3795TIP3    H232801   4.610   5.151   0.404 -0.5718 -0.2150 -0.2124
 3796TIP3   OH232802   6.575   0.897   0.580  0.3581 -0.2925 -0.0880
 3796TIP3    H132803   6.587   0.826   0.517 -1.4435  0.2634 -1.1556
 3796TIP3    H232804   6.607   0.975   0.533  0.4077 -0.0969  0.2695
 3797TIP3   OH232805   4.294   2.300  15.308  0.1259 -0.9583  0.0063
 3797TIP3    H132806   4.330   2.323  15.394 -0.0610 -2.5206  0.5432
 3797TIP3    H232807   4.367   2.310  15.247  0.5799 -0.9516  0.5443
 3798TIP3   OH232808   2.864   0.898  13.738 -0.5018  0.0366  0.0452
 3798TIP3    H132809   2.842   0.903  13.644  0.6415  1.0250 -0.1884
 3798TIP3    H232810   2.822   0.975  13.776 -1.4602 -0.6798  0.4700
 3799TIP3   OH232811   5.730   3.016  12.389 -0.0258  0.4531 -0.1272
 3799TIP3    H132812   5.722   2.991  12.297  1.1518  0.3145 -0.2027
 3799TIP3    H232813   5.806   3.074  12.392  1.4100 -1.3723  1.0938
 3800TIP3   OH232814   5.216   3.950  15.882 -0.5301 -0.5047 -0.0170
 3800TIP3    H132815   5.152   3.948  15.812  0.3943  0.8240 -0.9458
 3800TIP3    H232816   5.201   4.033  15.927 -0.4350 -0.8680  0.7058
 3801TIP3   OH232817   1.045   5.092   2.272  0.1015 -0.2809 -0.0747
 3801TIP3    H132818   1.062   5.031   2.200  0.0052 -0.0213 -0.3239
 3801TIP3    H232819   1.027   5.037   2.348  0.5504 -0.5593 -0.1707
 3802TIP3   OH232820   5.401   0.898   1.318 -0.0591 -0.5272  0.6671
 3802TIP3    H132821   5.390   0.991   1.338  2.1170  0.0755 -0.5212
 3802TIP3    H232822   5.313   0.862   1.321 -1.2137  1.9455 -0.4886
 3803TIP3   OH232823   4.050   6.700   4.283 -0.1571 -0.1693 -0.9393
 3803TIP3    H132824   3.991   6.656   4.221 -1.5100 -2.3384  1.6799
 3803TIP3    H232825   4.121   6.638   4.295 -0.4926 -0.3029  0.4850
 3804TIP3   OH232826   4.859   3.906   4.724 -0.7065  0.6027 -0.3708
 3804TIP3    H132827   4.770   3.938   4.710 -1.2953 -1.1880 -0.9502
 3804TIP3    H232828   4.879   3.855   4.646  0.3894  0.0505  0.2443
 3805TIP3   OH232829   6.291   4.017  16.009  0.0704 -0.5747  0.3263
 3805TIP3    H132830   6.349   3.946  15.984  0.8050  0.6199 -1.5446
 3805TIP3    H232831   6.281   4.008  16.104  0.0752 -3.1703  0.1549
 3806TIP3   OH232832   5.796   0.156   3.058 -0.5396  0.5184  0.0249
 3806TIP3    H132833   5.867   0.199   3.105 -0.0352 -1.5436  1.2730
 3806TIP3    H232834   5.762   0.223   3.000  1.1229  2.1482  0.8283
 3807TIP3   OH232835   4.082   0.931  13.039  0.4400 -0.1542 -1.0051
 3807TIP3    H132836   4.048   0.962  12.956  1.4000 -0.8150 -1.6700
 3807TIP3    H232837   4.067   0.836  13.037 -0.1766 -0.0937 -0.1035
 3808TIP3   OH232838   3.234   2.547  13.919  0.2833  0.3516 -0.3321
 3808TIP3    H132839   3.256   2.639  13.934  3.0706 -0.3399  0.4145
 3808TIP3    H232840   3.199   2.545  13.830 -0.4966  2.1997 -0.1164
 3809TIP3   OH232841   1.181   0.669   5.671 -0.1774 -0.0768  0.0010
 3809TIP3    H132842   1.268   0.693   5.702  0.0960 -0.7980 -0.1836
 3809TIP3    H232843   1.193   0.585   5.627 -1.1018 -0.5573  0.6223
 3810TIP3   OH232844   2.274   0.510  13.030  0.0162 -0.1959  0.0961
 3810TIP3    H132845   2.317   0.432  13.067  1.5422  0.9859  0.9274
 3810TIP3    H232846   2.310   0.583  13.081 -2.8045  0.9243  0.6481
 3811TIP3   OH232847   1.309   6.701  12.933 -0.0861  0.1626 -0.0266
 3811TIP3    H132848   1.298   6.752  12.853 -0.6923  0.0188 -0.0361
 3811TIP3    H232849   1.286   6.761  13.004  0.8626  0.4227  0.0771
 3812TIP3   OH232850   0.458   4.225  11.782  0.5543 -0.2364  0.3462
 3812TIP3    H132851   0.530   4.271  11.825 -0.5481  0.5397  1.4302
 3812TIP3    H232852   0.439   4.278  11.705  0.7764 -0.1537  0.3448
 3813TIP3   OH232853   3.397   2.882   1.957 -0.4723  0.3698 -0.3852
 3813TIP3    H132854   3.394   2.953   1.893  1.9997 -0.2363 -1.2623
 3813TIP3    H232855   3.402   2.925   2.042 -1.0257  1.1927 -0.7580
 3814TIP3   OH232856   4.535   0.509  14.903  0.3017 -0.7093  0.0932
 3814TIP3    H132857   4.521   0.420  14.936 -1.4368 -0.3955  0.2630
 3814TIP3    H232858   4.506   0.505  14.812  0.8952 -0.4699 -0.1126
 3815TIP3   OH232859   5.767   1.558  13.413 -0.2414 -0.1729  0.2438
 3815TIP3    H132860   5.747   1.518  13.498  1.7774  0.0127  0.8443
 3815TIP3    H232861   5.806   1.487  13.362 -0.8717 -0.1157 -0.3473
 3816TIP3   OH232862   3.600   2.058  13.919 -0.1737 -0.4566 -0.3636
 3816TIP3    H132863   3.566   2.083  14.005 -1.4190  1.0150 -1.2326
 3816TIP3    H232864   3.634   2.139  13.882  0.3373 -1.0704 -1.2715
 3817TIP3   OH232865   4.474   0.747  11.608  0.4142  0.3997 -0.0565
 3817TIP3    H132866   4.492   0.690  11.683 -1.9508  0.5482  0.7250
 3817TIP3    H232867   4.428   0.690  11.546  0.9300  0.6824 -0.7122
 3818TIP3   OH232868   5.366   4.014  15.570  0.1528  0.1035  0.1949
 3818TIP3    H132869   5.460   4.002  15.558  0.6698  1.3266  2.4142
 3818TIP3    H232870   5.337   4.060  15.491  1.2769 -0.7931 -0.7714
 3819TIP3   OH232871   3.151   5.825  12.979  0.6308 -0.2626  0.2206
 3819TIP3    H132872   3.239   5.794  12.958  0.2389 -1.5709  0.4311
 3819TIP3    H232873   3.148   5.824  13.074  1.5493  3.2399  0.4407
 3820TIP3   OH232874   2.679   5.848  10.964  0.2752  0.0000  0.0234
 3820TIP3    H132875   2.670   5.760  10.927  0.4370 -0.3840  0.8609
 3820TIP3    H232876   2.769   5.850  10.997 -0.1305  0.0086  1.1678
 3821TIP3   OH232877   6.339   2.712  13.838 -0.5306 -0.3795  0.2427
 3821TIP3    H132878   6.274   2.679  13.776 -0.7588 -0.1626  0.3657
 3821TIP3    H232879   6.317   2.805  13.849  0.8761  0.1536 -1.0889
 3822TIP3   OH232880   2.589   4.916   4.933 -0.1599  0.2871  0.5565
 3822TIP3    H132881   2.613   4.873   5.015 -0.4235  0.7113  0.8625
 3822TIP3    H232882   2.539   4.850   4.884 -1.3269  0.5090  1.3965
 3823TIP3   OH232883   4.007   3.836  12.010  0.1085  0.1097  0.0991
 3823TIP3    H132884   4.090   3.822  12.055  0.0707 -1.4258 -0.2639
 3823TIP3    H232885   4.029   3.832  11.917 -0.4869 -1.1604 -0.0013
 3824TIP3   OH232886   6.560   3.734  13.146 -0.3731 -0.2494  0.1292
 3824TIP3    H132887   6.535   3.731  13.053  2.3704 -2.4546 -0.6895
 3824TIP3    H232888   6.618   3.809  13.153  1.7484 -1.7027 -0.7491
 3825TIP3   OH232889   6.073   2.216  10.510  0.2561  0.4968 -0.1976
 3825TIP3    H132890   6.042   2.301  10.480 -2.3495  0.2157  1.4323
 3825TIP3    H232891   6.109   2.175  10.432  0.3735  2.5465 -1.2920
 3826TIP3   OH232892   5.969   0.572  15.651  0.1394 -0.3298 -0.5021
 3826TIP3    H132893   6.049   0.548  15.698 -0.6103 -1.7300  0.0985
 3826TIP3    H232894   5.925   0.634  15.709  0.6536  0.2789 -0.7399
 3827TIP3   OH232895   0.372   6.060   1.256 -0.2020 -0.2898  0.5033
 3827TIP3    H132896   0.389   6.059   1.350  0.2999 -0.4920  0.4115
 3827TIP3    H232897   0.334   6.146   1.239  0.6738  0.1431  0.7190
 3828TIP3   OH232898   6.567   0.224   4.220 -1.2750  0.7060 -0.5628
 3828TIP3    H132899   6.533   0.177   4.144  0.2850  0.2390 -1.0039
 3828TIP3    H232900   6.638   0.169   4.254  0.0075  2.2700 -0.5610
 3829TIP3   OH232901   2.121   1.104   2.046  0.0990 -0.1974  0.6250
 3829TIP3    H132902   2.048   1.144   2.093 -0.1502 -0.8182  0.7751
 3829TIP3    H232903   2.095   1.013   2.034  1.4113 -0.7684  1.8397
 3830TIP3   OH232904   1.880   1.737  16.984 -0.3535 -0.1909 -0.3566
 3830TIP3    H132905   1.861   1.752  16.891  0.4194 -0.3344 -0.5454
 3830TIP3    H232906   1.812   1.677  17.013  0.5553 -1.7810 -1.3618
 3831TIP3   OH232907   4.837   4.491  15.086  0.0864 -0.1079 -0.4942
 3831TIP3    H132908   4.885   4.548  15.026 -0.8032 -0.4966 -1.5920
 3831TIP3    H232909   4.904   4.454  15.143  1.0646 -0.4964 -1.8775
 3832TIP3   OH232910   6.537   3.100  10.743  0.5060 -0.6627  0.4311
 3832TIP3    H132911   6.538   3.039  10.816  1.5788 -2.5920 -1.1017
 3832TIP3    H232912   6.594   3.060  10.677 -0.3710  0.9981 -1.4506
 3833TIP3   OH232913   2.596   1.402   6.249 -0.3380  0.6397 -0.1112
 3833TIP3    H132914   2.692   1.402   6.253 -0.3803  0.9786  1.6363
 3833TIP3    H232915   2.572   1.309   6.243  0.0932  0.5045  0.1938
 3834TIP3   OH232916   0.976   1.126  12.734 -0.1230  0.3812 -0.4949
 3834TIP3    H132917   1.014   1.039  12.750 -1.1321  0.3427  2.2465
 3834TIP3    H232918   1.043   1.188  12.764 -1.0810  0.3604  1.9513
 3835TIP3   OH232919   5.355   6.249  10.936 -0.2827 -0.3182 -0.1900
 3835TIP3    H132920   5.290   6.182  10.916 -0.9001  0.3571 -0.4436
 3835TIP3    H232921   5.437   6.200  10.946 -0.8599 -1.1986  0.3481
 3836TIP3   OH232922   2.852   5.915  16.378  0.1537 -0.1590 -0.7875
 3836TIP3    H132923   2.904   5.857  16.323  0.5986  0.7845 -1.3959
 3836TIP3    H232924   2.893   6.001  16.367  0.7849 -0.0904  1.7044
 3837TIP3   OH232925   4.850   1.792   4.826  0.6307 -0.0890 -0.3624
 3837TIP3    H132926   4.916   1.818   4.762  0.1535  0.2152 -0.7347
 3837TIP3    H232927   4.889   1.814   4.911  0.1590  2.1266 -0.6509
 3838TIP3   OH232928   3.938   1.442  16.634  0.6484 -0.1485  0.1579
 3838TIP3    H132929   3.954   1.383  16.560 -3.3706 -1.1342 -0.1199
 3838TIP3    H232930   3.917   1.526  16.593  0.4145 -0.1461  0.2867
 3839TIP3   OH232931   3.023   0.313  12.269  0.4751  0.0206 -0.4041
 3839TIP3    H132932   3.016   0.385  12.206 -0.6623 -0.9725 -1.4494
 3839TIP3    H232933   2.996   0.236  12.220  0.5845 -0.9491  1.0239
 3840TIP3   OH232934   1.074   6.193   3.940  0.3055  0.2028 -0.2542
 3840TIP3    H132935   1.017   6.214   3.866 -1.0490 -1.3500  0.2953
 3840TIP3    H232936   1.030   6.231   4.016 -1.1360 -2.6542  0.4635
 3841TIP3   OH232937   0.235   4.129  12.327  0.6641  0.3309  0.3784
 3841TIP3    H132938   0.184   4.209  12.341  1.4991  0.9721 -0.1090
 3841TIP3    H232939   0.227   4.080  12.409 -0.1479  0.7402  0.5530
 3842TIP3   OH232940   2.916   0.211   4.361  0.2346  0.3537  0.0129
 3842TIP3    H132941   2.849   0.184   4.423 -0.9757  1.4719 -0.7496
 3842TIP3    H232942   2.996   0.218   4.413 -0.4719  0.0676  1.1737
 3843TIP3   OH232943   0.442   6.757   1.130  0.2013  0.3187 -0.3418
 3843TIP3    H132944   0.433   6.663   1.150 -0.5413  0.1237 -1.5024
 3843TIP3    H232945   0.428   6.800   1.214 -0.8763 -0.5532 -0.0437
 3844TIP3   OH232946   0.690   1.773   1.536 -0.1845 -0.0787  0.1524
 3844TIP3    H132947   0.730   1.757   1.451 -1.8103  0.7562 -0.8361
 3844TIP3    H232948   0.599   1.746   1.525 -0.6534  0.9068  1.3263
 3845TIP3   OH232949   2.575   5.231  11.040  0.5733 -0.2156 -0.0191
 3845TIP3    H132950   2.541   5.296  11.101  1.5251  0.1896  0.1012
 3845TIP3    H232951   2.658   5.202  11.079  0.7237 -0.6444 -0.6443
 3846TIP3   OH232952   3.308   2.168   1.029  0.2921 -0.2861 -0.0587
 3846TIP3    H132953   3.224   2.197   0.993  0.4419 -0.9254 -0.9432
 3846TIP3    H232954   3.294   2.075   1.049  0.9086 -0.4977 -0.5810
 3847TIP3   OH232955   2.228   2.661   0.999 -0.0845 -0.5288 -0.0827
 3847TIP3    H132956   2.200   2.572   0.980 -2.3092  0.5472 -2.5867
 3847TIP3    H232957   2.206   2.711   0.920  3.1918  1.8605  0.2539
 3848TIP3   OH232958   2.931   2.488  13.984  0.3090 -0.4552  0.0623
 3848TIP3    H132959   3.026   2.493  13.996  0.2647 -0.2887  0.3475
 3848TIP3    H232960   2.896   2.555  14.042 -0.1094 -1.9075  1.5724
 3849TIP3   OH232961   4.328   3.174  15.657  0.0890 -0.1747 -0.1894
 3849TIP3    H132962   4.309   3.155  15.565  1.7260  0.5617 -0.7115
 3849TIP3    H232963   4.381   3.101  15.686  0.5256  0.1460 -0.1705
 3850TIP3   OH232964   2.216   4.959   3.031  0.2349 -0.3084 -0.5878
 3850TIP3    H132965   2.310   4.954   3.050 -0.4235 -0.3971  3.5452
 3850TIP3    H232966   2.205   4.903   2.954  3.9951  3.0477 -4.0908
 3851TIP3   OH232967   0.010   4.982  10.968  0.2027  0.6650  0.2291
 3851TIP3    H132968  -0.017   4.914  10.907  1.2906  1.4387 -1.1915
 3851TIP3    H232969   0.083   4.943  11.017  0.4620  0.6129 -0.1946
 3852TIP3   OH232970   3.791   1.349   0.287 -0.1284  0.3601 -0.1208
 3852TIP3    H132971   3.857   1.306   0.233 -0.6970 -0.3039 -0.3117
 3852TIP3    H232972   3.719   1.286   0.290 -0.9301  1.2565 -0.2847
 3853TIP3   OH232973   6.738   1.974  12.178  0.3821 -0.0904  0.0837
 3853TIP3    H132974   6.796   1.967  12.253  0.7019  0.4603 -0.1132
 3853TIP3    H232975   6.675   2.042  12.202 -0.3068 -0.8079  0.3712
 3854TIP3   OH232976   2.430   6.759   5.704  0.0156 -0.4966  0.0581
 3854TIP3    H132977   2.341   6.772   5.672  0.6798  0.1431 -1.6785
 3854TIP3    H232978   2.440   6.664   5.710 -1.3344 -0.5746  2.0846
 3855TIP3   OH232979   2.770   3.668   2.063 -0.2303  0.5216  0.0111
 3855TIP3    H132980   2.785   3.755   2.026 -0.5239  0.0191 -1.3427
 3855TIP3    H232981   2.848   3.618   2.040 -0.5059  0.1438 -0.1090
 3856TIP3   OH232982   2.329   0.859   6.216 -0.1447 -0.7751 -0.1521
 3856TIP3    H132983   2.323   0.950   6.243 -0.7330 -1.2680  1.4952
 3856TIP3    H232984   2.349   0.863   6.122 -1.9937  1.0453 -0.5524
 3857TIP3   OH232985   6.567   4.881   1.708 -0.3366  0.3663 -0.0650
 3857TIP3    H132986   6.605   4.805   1.752 -1.7420  0.3448  1.1930
 3857TIP3    H232987   6.608   4.882   1.621  0.0218 -1.5657  0.0507
 3858TIP3   OH232988   2.629   0.779  13.367 -1.1096 -0.0535  0.0641
 3858TIP3    H132989   2.642   0.727  13.288 -0.1623 -0.4052  0.4319
 3858TIP3    H232990   2.634   0.715  13.438  0.4380  0.5546  0.5471
 3859TIP3   OH232991   4.283   0.752  10.762 -0.5302 -0.0360  0.4960
 3859TIP3    H132992   4.196   0.787  10.741 -1.1689 -1.4308  0.7142
 3859TIP3    H232993   4.339   0.782  10.691 -1.4982 -0.2859 -0.3965
 3860TIP3   OH232994   0.553   4.102   2.400  0.4816 -0.8327 -0.1724
 3860TIP3    H132995   0.617   4.074   2.465  0.1669  2.5688  1.8379
 3860TIP3    H232996   0.605   4.136   2.327  0.9406 -0.4281  0.3384
 3861TIP3   OH232997   0.465   5.818  16.169  0.3208  0.2744  0.2886
 3861TIP3    H132998   0.423   5.753  16.225  0.9676  0.2013  0.7063
 3861TIP3    H232999   0.512   5.766  16.104 -1.4292  0.3617 -1.1275
 3862TIP3   OH233000   4.859   6.128   3.876  0.6624  0.3666  0.3461
 3862TIP3    H133001   4.881   6.212   3.916  0.5169  0.5788 -0.0193
 3862TIP3    H233002   4.937   6.104   3.825  0.3767  0.7107 -0.2651
 3863TIP3   OH233003   5.438   2.968   2.595  0.0478  0.2141 -0.2901
 3863TIP3    H133004   5.473   3.011   2.517  0.1964  1.3133  0.3435
 3863TIP3    H233005   5.492   3.003   2.667 -2.0956  1.7407  0.7021
 3864TIP3   OH233006   4.244   5.806  11.314  0.1735  0.5340 -0.1624
 3864TIP3    H133007   4.314   5.870  11.324 -0.9209  1.5873  1.0311
 3864TIP3    H233008   4.259   5.742  11.384 -1.2348  1.9513  1.5335
 3865TIP3   OH233009   0.783   3.051   0.228  0.0881  0.3332 -0.0227
 3865TIP3    H133010   0.870   3.012   0.228 -0.2073 -0.3509  0.6200
 3865TIP3    H233011   0.790   3.126   0.288  0.8504  1.7867 -1.8218
 3866TIP3   OH233012   6.025   1.688   0.887  0.0594  0.8778  0.0459
 3866TIP3    H133013   6.057   1.766   0.933  0.9274  2.0043 -2.2966
 3866TIP3    H233014   6.104   1.637   0.869 -0.5261 -0.7798  1.7998
 3867TIP3   OH233015   0.907   3.025  13.057 -0.3751  0.2984 -0.2870
 3867TIP3    H133016   0.842   2.999  13.123 -0.3594  0.5135 -0.1841
 3867TIP3    H233017   0.981   2.967  13.072 -1.1756 -1.1006 -1.5115
 3868TIP3   OH233018   2.110   1.159  12.537 -0.5208  0.1459  0.1567
 3868TIP3    H133019   2.157   1.226  12.488 -0.0889 -1.0401 -1.1144
 3868TIP3    H233020   2.018   1.185  12.531 -0.4070  0.3987 -0.7145
 3869TIP3   OH233021   4.340   2.821  11.094 -0.3599 -0.0991  0.3938
 3869TIP3    H133022   4.336   2.913  11.117 -0.2833  0.3507 -1.2590
 3869TIP3    H233023   4.420   2.789  11.136  2.5723  1.8914 -3.0877
 3870TIP3   OH233024   3.223   5.030   3.075 -0.1279  0.8869 -0.3578
 3870TIP3    H133025   3.232   5.069   3.161 -0.8983  1.7517 -0.6470
 3870TIP3    H233026   3.142   4.979   3.080 -2.5283  4.1971 -1.6647
 3871TIP3   OH233027   1.391   6.241  11.132 -0.2040 -0.3055  0.3934
 3871TIP3    H133028   1.479   6.205  11.120 -0.7370 -1.3742 -0.5052
 3871TIP3    H233029   1.359   6.257  11.044 -1.2975 -0.9322  0.6499
 3872TIP3   OH233030   5.866   4.999   3.520  0.0232  0.9290  0.0832
 3872TIP3    H133031   5.864   4.934   3.590  2.4483 -0.1966 -0.7581
 3872TIP3    H233032   5.847   4.948   3.440  0.1120  1.6259 -0.3853
 3873TIP3   OH233033   5.845   1.110   0.922 -0.2812  0.2908  0.0210
 3873TIP3    H133034   5.909   1.180   0.906  0.0807  0.5604  2.3050
 3873TIP3    H233035   5.776   1.152   0.972 -0.8116 -0.6550  0.0974
 3874TIP3   OH233036   3.704   4.480  14.860  0.7938  0.4860 -0.4805
 3874TIP3    H133037   3.717   4.454  14.951  1.1469  0.5767 -0.5031
 3874TIP3    H233038   3.621   4.527  14.860 -0.4315 -1.5772 -0.6364
 3875TIP3   OH233039   4.382   6.513   3.697 -0.2989 -0.0147 -0.1675
 3875TIP3    H133040   4.426   6.478   3.620  0.9502 -0.0682  0.5448
 3875TIP3    H233041   4.380   6.608   3.682  3.0370  0.4081  1.1775
 3876TIP3   OH233042   1.195   3.329  11.424  0.5157 -0.2036 -0.2730
 3876TIP3    H133043   1.153   3.405  11.385  0.0038  0.7804  2.0473
 3876TIP3    H233044   1.141   3.308  11.500  2.3909 -0.9433  0.9181
 3877TIP3   OH233045   3.078   3.826   2.312 -0.4066  0.0406 -0.5470
 3877TIP3    H133046   3.070   3.870   2.396  1.4571  1.3626 -0.9879
 3877TIP3    H233047   3.021   3.875   2.253 -1.3338 -0.5840 -0.1852
 3878TIP3   OH233048   5.030   6.810   9.784  0.2051  0.0973  0.5235
 3878TIP3    H133049   4.965   6.879   9.797  0.7710  0.5895  0.8111
 3878TIP3    H233050   5.108   6.842   9.829  0.5779 -0.5881  0.3822
 3879TIP3   OH233051   5.180   4.721  16.000 -0.0584  0.5038  0.0563
 3879TIP3    H133052   5.181   4.720  15.904  0.0592 -3.1716 -0.0519
 3879TIP3    H233053   5.094   4.685  16.023  1.1752 -1.9324  1.1679
 3880TIP3   OH233054   1.204   0.772  16.803  0.6585 -0.4161  0.4083
 3880TIP3    H133055   1.257   0.809  16.873 -0.3194  0.1044  0.8987
 3880TIP3    H233056   1.235   0.681  16.794  2.6706  0.3004 -0.3995
 3881TIP3   OH233057   3.725   5.303  12.578 -0.0849 -0.7086 -0.5009
 3881TIP3    H133058   3.645   5.253  12.592 -1.1477  0.5914 -1.6249
 3881TIP3    H233059   3.737   5.302  12.483  0.5237  0.1390 -0.4451
 3882TIP3   OH233060   0.910   5.714  12.695  0.5585  0.9994 -0.2073
 3882TIP3    H133061   0.902   5.723  12.790  1.3183  2.0779 -0.2241
 3882TIP3    H233062   0.938   5.624  12.682  0.6879  0.9077  0.6094
 3883TIP3   OH233063   2.951   0.330   5.266 -0.0896 -0.4507  0.1959
 3883TIP3    H133064   2.920   0.241   5.248 -3.9027  0.9206 -1.1278
 3883TIP3    H233065   2.980   0.363   5.181 -0.1800  0.0679  0.3630
 3884TIP3   OH233066   3.357   5.523   5.275 -0.2641  0.1324  0.4781
 3884TIP3    H133067   3.399   5.525   5.189  0.6262  0.0905  0.9081
 3884TIP3    H233068   3.401   5.452   5.322  0.1187  0.9756  1.4070
 3885TIP3   OH233069   5.449   6.430   5.376 -0.4180 -0.3737  0.0133
 3885TIP3    H133070   5.477   6.471   5.294 -0.6062 -0.9329 -0.3376
 3885TIP3    H233071   5.509   6.357   5.389  0.8032  0.8133  1.3744
 3886TIP3   OH233072   5.376   0.848  12.680  0.5358  0.0097 -0.3967
 3886TIP3    H133073   5.299   0.845  12.737  0.3505  4.7281  0.0023
 3886TIP3    H233074   5.346   0.809  12.598 -1.6839 -0.0643  0.3675
 3887TIP3   OH233075   5.196   4.968   0.016 -0.3782 -0.1047 -0.3511
 3887TIP3    H133076   5.113   4.930  -0.013  0.2172 -1.0638 -0.8462
 3887TIP3    H233077   5.172   5.051   0.056 -1.3216  0.8849 -2.8125
 3888TIP3   OH233078   1.022   1.565  11.094 -0.2197 -0.3031  0.0820
 3888TIP3    H133079   1.034   1.601  11.182  0.6072 -1.7163  0.5926
 3888TIP3    H233080   0.987   1.477  11.109  0.5979 -0.8260 -0.9647
 3889TIP3   OH233081   5.246   4.742  11.897 -0.3356 -0.4113 -0.2674
 3889TIP3    H133082   5.258   4.653  11.928 -2.3544 -0.3949  0.6643
 3889TIP3    H233083   5.247   4.796  11.976  1.7700  0.5706 -0.8687
 3890TIP3   OH233084   4.956   3.587  13.849 -0.1040  0.2592 -0.0777
 3890TIP3    H133085   4.908   3.552  13.924 -0.1494 -0.0649 -0.2565
 3890TIP3    H233086   4.891   3.592  13.779  0.1107 -0.1306 -0.3068
 3891TIP3   OH233087   1.876   0.681   2.804  0.3837  0.2581  0.1361
 3891TIP3    H133088   1.912   0.731   2.877 -0.1251  0.9581 -0.0825
 3891TIP3    H233089   1.782   0.679   2.820  0.5217 -2.2558  1.1382
 3892TIP3   OH233090   1.838   6.788  14.302  0.2524 -0.0825 -0.1238
 3892TIP3    H133091   1.751   6.819  14.324 -0.7511 -2.3017 -0.6800
 3892TIP3    H233092   1.826   6.734  14.224  2.6808  2.2432 -2.3152
 3893TIP3   OH233093   1.109   1.481   3.183 -0.6631 -0.3190 -0.5439
 3893TIP3    H133094   1.194   1.493   3.140  0.0817  3.3981  1.5272
 3893TIP3    H233095   1.047   1.528   3.128 -0.7438 -0.2440 -0.3915
 3894TIP3   OH233096   1.020   6.646  13.801 -0.2211 -0.1164  0.7343
 3894TIP3    H133097   1.015   6.568  13.744 -1.1604  0.3118  0.2104
 3894TIP3    H233098   1.109   6.678  13.788 -0.4693  0.0859 -0.6809
 3895TIP3   OH233099   0.886   4.487   3.472  0.2635  0.4507  0.3918
 3895TIP3    H133100   0.922   4.557   3.527  2.3689 -0.1930 -0.0856
 3895TIP3    H233101   0.962   4.452   3.425 -1.3333  0.6122 -2.5535
 3896TIP3   OH233102   5.111   1.726  16.250 -0.1585 -0.0982 -0.7126
 3896TIP3    H133103   5.113   1.699  16.342 -0.8486 -2.6713 -1.3455
 3896TIP3    H233104   5.051   1.663  16.209  1.4802 -0.1397 -3.2275
 3897TIP3   OH233105   2.782   5.275  16.368 -0.2767 -0.1743 -0.9978
 3897TIP3    H133106   2.700   5.248  16.327 -0.8496 -0.1671  0.1012
 3897TIP3    H233107   2.761   5.279  16.461  0.6762  0.8977 -0.8134
 3898TIP3   OH233108   4.914   5.574  17.015  0.3388  0.0408 -0.4730
 3898TIP3    H133109   4.874   5.562  16.929 -2.1459  0.0718  0.5921
 3898TIP3    H233110   5.008   5.569  16.999 -0.0725 -0.8606 -3.0362
 3899TIP3   OH233111   6.111   0.769   0.972  0.0333  0.1446  0.1760
 3899TIP3    H133112   6.167   0.702   1.011  2.0863  1.1779 -0.8855
 3899TIP3    H233113   6.151   0.852   0.996 -0.5828  0.8917 -1.2535
 3900TIP3   OH233114   6.101   0.582  16.854 -0.2032  0.4925 -0.1520
 3900TIP3    H133115   6.013   0.601  16.889  0.4786  1.0118  1.3759
 3900TIP3    H233116   6.097   0.489  16.831 -0.9435  0.3188  0.5947
 3901TIP3   OH233117   3.899   4.992   4.759 -0.2845 -0.4685 -0.5935
 3901TIP3    H133118   3.954   5.008   4.683 -0.0817  0.5670 -0.2347
 3901TIP3    H233119   3.809   4.993   4.724 -0.1994  0.1408 -0.7893
 3902TIP3   OH233120   3.565   5.776  11.386 -0.1763 -0.3106 -0.2201
 3902TIP3    H133121   3.659   5.793  11.397 -0.0387 -1.0413 -0.2056
 3902TIP3    H233122   3.525   5.863  11.381  0.4152  0.0070  0.4706
 3903TIP3   OH233123   0.745   6.591   0.076 -0.1732  0.5158 -0.2221
 3903TIP3    H133124   0.695   6.626   0.149 -0.0802  1.9513 -0.8094
 3903TIP3    H233125   0.834   6.583   0.109 -0.5880 -1.2099  0.5552
 3904TIP3   OH233126   0.168   2.547   4.994  0.4521 -0.0976  0.1219
 3904TIP3    H133127   0.102   2.540   4.925 -1.3320 -0.2665  1.7521
 3904TIP3    H233128   0.248   2.510   4.955  0.0575  1.4935 -2.4358
 3905TIP3   OH233129   5.079   0.948   0.225 -0.4728  0.1441 -0.4289
 3905TIP3    H133130   5.002   0.975   0.274 -1.2484 -1.6181 -0.6099
 3905TIP3    H233131   5.046   0.928   0.137 -0.0433 -1.6562 -0.2209
 3906TIP3   OH233132   3.817   1.870   3.316  0.3331 -0.3626 -0.0902
 3906TIP3    H133133   3.741   1.873   3.375  0.2106  1.1134 -0.2917
 3906TIP3    H233134   3.871   1.800   3.351 -0.7448 -0.9140  0.5276
 3907TIP3   OH233135   3.481   3.630  16.847  0.1048 -0.0853  0.5572
 3907TIP3    H133136   3.492   3.573  16.771 -1.1831  1.7037 -1.0552
 3907TIP3    H233137   3.570   3.647  16.878  0.9203  1.3256 -2.2664
 3908TIP3   OH233138   2.028   2.892   0.081  0.1004  0.2024 -0.2411
 3908TIP3    H133139   2.075   2.812   0.100  0.0214  0.2082 -0.0224
 3908TIP3    H233140   2.042   2.907  -0.013  0.1787 -0.0229 -0.2639
 3909TIP3   OH233141   5.023   6.308   1.147 -0.4218 -0.2497 -0.8277
 3909TIP3    H133142   4.947   6.251   1.149 -1.2891  0.8833 -0.9608
 3909TIP3    H233143   4.998   6.381   1.091  1.3197 -0.6057 -2.1572
 3910TIP3   OH233144   5.147   0.789   1.304  0.1169  0.2381  0.1409
 3910TIP3    H133145   5.158   0.719   1.239 -3.1036  0.5198 -0.8881
 3910TIP3    H233146   5.094   0.750   1.373  1.3784  0.6804  1.3960
 3911TIP3   OH233147   2.621   4.722   2.365 -0.0084  0.0547 -0.3386
 3911TIP3    H133148   2.536   4.763   2.346 -0.6410 -1.5837 -1.2209
 3911TIP3    H233149   2.602   4.659   2.435  0.5798  0.0013 -0.2259
 3912TIP3   OH233150   0.936   5.836  16.679  0.1370  0.3004  0.6858
 3912TIP3    H133151   1.018   5.882  16.698  0.1319  1.0698 -0.9648
 3912TIP3    H233152   0.915   5.860  16.589 -0.1283 -2.6276 -0.1334
 3913TIP3   OH233153   6.825   1.922  12.448 -0.9350 -0.3162 -0.0816
 3913TIP3    H133154   6.887   1.852  12.466 -0.6473  0.0812  0.5048
 3913TIP3    H233155   6.857   1.996  12.500 -0.9648  0.3954 -1.0433
 3914TIP3   OH233156   6.245   5.520  11.622 -0.2410 -1.1286  0.2888
 3914TIP3    H133157   6.273   5.552  11.537  0.1337  1.4147  1.2696
 3914TIP3    H233158   6.312   5.455  11.646  1.7114  0.7064  0.1293
 3915TIP3   OH233159   4.730   0.951  15.666  0.9340 -0.0254 -0.0208
 3915TIP3    H133160   4.795   1.012  15.700 -0.0159  0.9436  0.1028
 3915TIP3    H233161   4.647   0.981  15.703  0.4620 -1.4963  0.1676
 3916TIP3   OH233162   3.093   4.338  13.281 -0.9383 -0.1755 -0.5955
 3916TIP3    H133163   3.085   4.353  13.187  0.7673 -0.1333 -0.7755
 3916TIP3    H233164   3.129   4.249  13.289 -1.3589 -0.2989  0.0260
 3917TIP3   OH233165   2.473   3.071   4.026  0.1262 -0.0496  0.1018
 3917TIP3    H133166   2.499   3.162   4.039 -0.7879 -0.0038  1.9045
 3917TIP3    H233167   2.396   3.060   4.081 -0.7730 -1.4882 -1.3758
 3918TIP3   OH233168   0.477   0.116   3.609 -0.1651  0.2257 -0.3394
 3918TIP3    H133169   0.474   0.046   3.674 -1.3799  1.5546  1.0889
 3918TIP3    H233170   0.386   0.132   3.587  0.0561  1.7085 -0.2632
 3919TIP3   OH233171   6.131   6.094   4.331  0.0583  0.1538  0.7287
 3919TIP3    H133172   6.122   5.999   4.328  2.0830 -0.0695 -0.0850
 3919TIP3    H233173   6.113   6.118   4.422  0.1603 -1.0743  1.0860
 3920TIP3   OH233174   4.948   2.042  12.021 -0.7093  0.0456  0.1482
 3920TIP3    H133175   5.028   2.000  11.991  0.7612  0.2613  3.3023
 3920TIP3    H233176   4.936   2.116  11.962  0.4869 -0.9260 -1.3751
 3921TIP3   OH233177   1.229   6.256   1.339  0.0656 -0.1426 -0.1597
 3921TIP3    H133178   1.199   6.167   1.356 -0.4694 -0.1023 -0.8230
 3921TIP3    H233179   1.302   6.269   1.398 -0.5892 -0.6135  0.7703
 3922TIP3   OH233180   4.451   4.031  12.231 -0.2289 -0.7400  0.3050
 3922TIP3    H133181   4.503   3.951  12.222  1.6757  0.2620  1.6911
 3922TIP3    H233182   4.441   4.043  12.325 -0.5318  0.5983  0.1215
 3923TIP3   OH233183   0.603   2.988  15.669 -0.0286 -0.0384 -0.1764
 3923TIP3    H133184   0.636   2.911  15.623  0.8598 -0.0985  0.5540
 3923TIP3    H233185   0.648   2.989  15.753 -0.2541  1.1093 -0.0400
 3924TIP3   OH233186   1.844   4.973   0.328  0.1173  0.3118 -0.2110
 3924TIP3    H133187   1.824   4.961   0.421 -0.9371  0.7775 -0.3649
 3924TIP3    H233188   1.866   4.885   0.296  0.3044  0.1237  0.4279
 3925TIP3   OH233189   2.563   1.270  10.537 -0.2974  0.1611 -0.7201
 3925TIP3    H133190   2.648   1.230  10.519 -1.8003 -2.9505 -1.3662
 3925TIP3    H233191   2.556   1.267  10.633 -0.9490 -2.6504 -0.7704
 3926TIP3   OH233192   4.440   4.177  14.516  0.2463  0.0807  0.2877
 3926TIP3    H133193   4.387   4.228  14.577 -0.0116 -0.3398  0.4166
 3926TIP3    H233194   4.523   4.164  14.561 -0.3157 -1.1604  1.0240
 3927TIP3   OH233195   3.531   3.830   1.373 -0.6877 -0.1319 -0.4150
 3927TIP3    H133196   3.469   3.858   1.441 -0.8526 -0.0782 -0.5850
 3927TIP3    H233197   3.522   3.735   1.370 -1.7511 -0.0340 -1.3565
 3928TIP3   OH233198   4.112   3.167  14.283  0.2677  0.5935  0.4455
 3928TIP3    H133199   4.091   3.213  14.202  1.6704 -0.7970 -0.7693
 3928TIP3    H233200   4.075   3.222  14.352  0.7646  2.8695 -0.9911
 3929TIP3   OH233201   1.013   4.953   3.768 -0.4686  0.2080  0.4121
 3929TIP3    H133202   1.005   5.004   3.688  0.9595 -2.7571 -1.8048
 3929TIP3    H233203   1.055   5.012   3.831 -1.5052  2.5772 -0.9974
 3930TIP3   OH233204   0.728   4.059  11.328  0.3983 -0.5515  0.4816
 3930TIP3    H133205   0.755   4.017  11.410 -0.9186 -1.4182  0.5048
 3930TIP3    H233206   0.750   3.995  11.260  0.0103 -0.5374  0.3374
 3931TIP3   OH233207   4.385   4.120   4.433 -0.0341 -0.2291 -0.0959
 3931TIP3    H133208   4.442   4.046   4.411  0.8828 -0.1200  1.7260
 3931TIP3    H233209   4.444   4.195   4.438 -0.6046  0.2095  0.1986
 3932TIP3   OH233210   0.149   5.972   1.615  0.6254  0.3781  0.1080
 3932TIP3    H133211   0.089   5.897   1.616 -0.2559  1.0651  1.1592
 3932TIP3    H233212   0.134   6.016   1.699  0.0463  2.5730 -1.0733
 3933TIP3   OH233213   1.102   2.692  13.157  0.5718 -0.1863  0.1120
 3933TIP3    H133214   1.011   2.687  13.127  0.7702 -2.9702 -0.2723
 3933TIP3    H233215   1.142   2.761  13.103 -1.1413  0.6898 -0.0986
 3934TIP3   OH233216   6.735   5.933   1.195 -0.2321 -0.1725  0.3287
 3934TIP3    H133217   6.811   5.945   1.251  0.3314 -0.2336 -0.4119
 3934TIP3    H233218   6.737   6.008   1.135  0.6014 -1.3920 -1.2233
 3935TIP3   OH233219   6.356   0.844  16.141  0.2520  0.6738 -0.1777
 3935TIP3    H133220   6.264   0.823  16.157  0.1458  1.0952 -0.2272
 3935TIP3    H233221   6.404   0.767  16.172 -0.1035  0.5379  0.0375
 3936TIP3   OH233222   3.035   1.147   3.901 -0.6780 -0.1545 -0.3057
 3936TIP3    H133223   3.011   1.211   3.968 -3.7660  0.1319 -1.5187
 3936TIP3    H233224   2.956   1.136   3.849  1.0552 -1.7170 -2.8336
 3937TIP3   OH233225   4.625   0.248  13.467  0.2944 -0.6519 -0.2786
 3937TIP3    H133226   4.541   0.292  13.455 -0.2845 -1.7606 -0.3877
 3937TIP3    H233227   4.607   0.177  13.529  1.0629 -1.1283 -0.5845
 3938TIP3   OH233228   5.321   1.657  12.841 -0.7470 -0.1698 -0.1951
 3938TIP3    H133229   5.245   1.649  12.783 -1.6630 -1.6898  1.1347
 3938TIP3    H233230   5.290   1.628  12.927  1.2510 -0.5885  0.4541
 3939TIP3   OH233231   1.497   3.740  11.773 -0.1809  0.0751 -0.2389
 3939TIP3    H133232   1.478   3.721  11.681 -2.6135 -1.9727  0.5784
 3939TIP3    H233233   1.460   3.827  11.787  0.4671  0.5324 -1.2316
 3940TIP3   OH233234   6.817   1.208   6.329  0.1918 -0.0325  0.1859
 3940TIP3    H133235   6.775   1.254   6.256  1.9430 -2.1636 -2.3541
 3940TIP3    H233236   6.910   1.224   6.318  0.4655  1.7165  3.6272
 3941TIP3   OH233237   5.016   0.354  13.798 -0.0096  0.2117  0.6119
 3941TIP3    H133238   4.926   0.328  13.818 -0.0809 -0.7181 -0.7735
 3941TIP3    H233239   5.069   0.313  13.866 -0.4502 -0.9262  0.2911
 3942TIP3   OH233240   2.540   3.287   4.974 -0.1065 -0.5135  0.3678
 3942TIP3    H133241   2.528   3.364   4.919  1.9045 -0.8008 -0.5375
 3942TIP3    H233242   2.502   3.215   4.923  1.4716 -0.7277 -0.5425
 3943TIP3   OH233243   0.238   6.283   2.239  0.0091 -0.4913  0.0778
 3943TIP3    H133244   0.180   6.215   2.205  1.2133 -1.5391  0.0527
 3943TIP3    H233245   0.245   6.265   2.333 -2.6421  1.8977  0.8685
 3944TIP3   OH233246   5.678   3.871   0.280 -0.7685 -0.0789 -0.2604
 3944TIP3    H133247   5.616   3.872   0.207 -0.9228 -0.6072 -0.1383
 3944TIP3    H233248   5.732   3.949   0.267 -0.8958 -0.0901 -0.8540
 3945TIP3   OH233249   0.032   4.625   2.303 -0.5805 -0.5013 -0.4287
 3945TIP3    H133250  -0.046   4.575   2.327 -0.5768 -0.4880 -0.3881
 3945TIP3    H233251   0.093   4.559   2.271 -0.5778 -0.5224 -0.3807
 3946TIP3   OH233252   2.344   2.336   5.604  0.1289  0.2756  0.3785
 3946TIP3    H133253   2.402   2.343   5.680  0.4859  0.9365  0.0462
 3946TIP3    H233254   2.264   2.381   5.631 -0.1225 -0.3489  0.7147
 3947TIP3   OH233255   2.556   0.641  16.019  0.0027 -0.3061 -0.1069
 3947TIP3    H133256   2.589   0.607  16.102  1.7823  0.9150 -0.2712
 3947TIP3    H233257   2.565   0.568  15.958  1.1041 -0.4219  0.1827
 3948TIP3   OH233258   4.484   2.705  14.248 -0.2830 -0.6128 -0.3891
 3948TIP3    H133259   4.494   2.622  14.203 -0.1995 -0.4233 -0.7211
 3948TIP3    H233260   4.409   2.691  14.307 -0.2442 -0.9318 -0.4131
 3949TIP3   OH233261   2.396   0.300   4.501  0.8455 -0.2285  0.0830
 3949TIP3    H133262   2.403   0.315   4.595 -0.2924 -0.5779  0.2314
 3949TIP3    H233263   2.318   0.350   4.475  0.5261 -1.0091 -0.4767
 3950TIP3   OH233264   2.228   0.700   3.350 -0.2848 -0.4936  0.1209
 3950TIP3    H133265   2.147   0.728   3.393 -0.0314  0.2459  0.1339
 3950TIP3    H233266   2.246   0.770   3.287  0.5326 -0.4787  0.3675
 3951TIP3   OH233267   4.623   5.042  14.700  0.3750 -0.5317 -0.1675
 3951TIP3    H133268   4.633   5.109  14.633  0.4293 -0.6244 -0.2526
 3951TIP3    H233269   4.576   5.086  14.771 -2.4034 -1.1991 -1.4498
 3952TIP3   OH233270   5.106   2.028   0.731 -0.3895  0.7050  0.0597
 3952TIP3    H133271   5.126   1.935   0.736  2.6450  1.2529  0.0419
 3952TIP3    H233272   5.065   2.049   0.815  0.3515 -0.3802  0.7113
 3953TIP3   OH233273   4.720   1.859  11.154 -0.1604  0.0135 -0.0880
 3953TIP3    H133274   4.679   1.782  11.115 -0.1462 -1.4394  2.5898
 3953TIP3    H233275   4.659   1.930  11.136 -1.8126 -1.2739  0.2032
 3954TIP3   OH233276   2.336   1.771   5.965 -0.2637 -0.0155  0.5481
 3954TIP3    H133277   2.409   1.724   5.923  1.0056 -0.3515  2.9373
 3954TIP3    H233278   2.345   1.861   5.934 -0.6646 -0.6184 -1.4685
 3955TIP3   OH233279   2.786   3.103  12.138 -0.0301 -0.1348 -0.6687
 3955TIP3    H133280   2.783   3.128  12.045  0.2280  0.4584 -0.5150
 3955TIP3    H233281   2.694   3.090  12.161 -0.0551 -1.1151 -1.2219
 3956TIP3   OH233282   0.692   2.186  15.503  0.0983  0.2896 -0.4773
 3956TIP3    H133283   0.741   2.133  15.440  1.3134  0.5273  0.2379
 3956TIP3    H233284   0.721   2.154  15.589 -0.6427  0.7700 -0.0342
 3957TIP3   OH233285   1.530   5.795   3.943  0.2191 -0.6357 -0.0835
 3957TIP3    H133286   1.548   5.882   3.978  0.3040  0.3296 -2.3949
 3957TIP3    H233287   1.468   5.809   3.872 -0.0646 -2.5242 -0.2668
 3958TIP3   OH233288   2.369   6.131   5.496 -0.2813  0.3220  0.3314
 3958TIP3    H133289   2.368   6.143   5.591 -0.0428  1.2233  0.2286
 3958TIP3    H233290   2.392   6.217   5.461 -1.9404  0.4312 -0.6102
 3959TIP3   OH233291   6.675   4.581   1.509  0.0408 -0.2839 -0.2283
 3959TIP3    H133292   6.731   4.504   1.515  0.7373  0.3039  1.5425
 3959TIP3    H233293   6.692   4.629   1.590 -1.2827  1.1164 -0.7342
 3960TIP3   OH233294   1.262   4.032   1.681 -0.8042  0.8049  0.7993
 3960TIP3    H133295   1.333   4.033   1.746 -0.5278  1.7452  0.5040
 3960TIP3    H233296   1.305   4.053   1.598 -0.9318 -1.7567  0.0269
 3961TIP3   OH233297   2.080   5.097  15.622 -0.0740 -0.0018 -0.0734
 3961TIP3    H133298   2.087   5.134  15.534  2.4020  1.2341  0.5614
 3961TIP3    H233299   2.169   5.071  15.644 -1.0101 -2.4062  1.2463
 3962TIP3   OH233300   1.622   5.996   5.917  0.3572 -0.1567 -0.5952
 3962TIP3    H133301   1.554   5.945   5.961  1.3355 -0.4624  0.6334
 3962TIP3    H233302   1.574   6.065   5.871 -0.7534  0.1784  0.9773
 3963TIP3   OH233303   2.814   4.549  12.470  0.1260  0.4326 -0.2556
 3963TIP3    H133304   2.839   4.615  12.405 -0.0903 -0.6977 -1.5198
 3963TIP3    H233305   2.868   4.570  12.546  1.6877  0.7388 -1.3914
 3964TIP3   OH233306   1.687   5.332   0.964  0.1618 -0.1619 -0.1400
 3964TIP3    H133307   1.718   5.245   0.942 -1.4005 -0.6718 -0.4540
 3964TIP3    H233308   1.636   5.320   1.045 -2.9165 -0.2341 -1.9465
 3965TIP3   OH233309   2.007   2.217   4.687  0.5131  0.4103  0.0924
 3965TIP3    H133310   1.945   2.265   4.633  1.0329  0.9728 -0.0213
 3965TIP3    H233311   2.089   2.220   4.637  0.7515  0.0974  0.4602
 3966TIP3   OH233312   6.484   4.363  15.172  0.3240 -0.1473  0.1336
 3966TIP3    H133313   6.495   4.430  15.105  0.2811 -0.8943 -0.6410
 3966TIP3    H233314   6.395   4.330  15.158  0.4038 -0.4794  0.3831
 3967TIP3   OH233315   5.234   3.420   5.848  0.1841 -0.4234 -0.1044
 3967TIP3    H133316   5.189   3.354   5.902  1.2736 -2.0612 -1.0910
 3967TIP3    H233317   5.171   3.491   5.838 -1.2433 -1.5514  0.5825
 3968TIP3   OH233318   2.342   6.006  14.999 -0.3197 -0.3337 -0.4507
 3968TIP3    H133319   2.284   5.994  14.923 -0.2859  0.3859 -0.5973
 3968TIP3    H233320   2.333   5.924  15.049 -0.8176 -0.5660 -0.9078
 3969TIP3   OH233321   5.460   1.752  14.324  0.1900 -0.0564  0.8381
 3969TIP3    H133322   5.430   1.838  14.355 -0.3657  0.2177 -0.3692
 3969TIP3    H233323   5.387   1.693  14.342 -0.7272  0.3908 -1.1248
 3970TIP3   OH233324   5.491   0.331   2.891 -0.3041 -0.2190  0.3353
 3970TIP3    H133325   5.420   0.322   2.955  1.3943  2.7141  2.8938
 3970TIP3    H233326   5.462   0.402   2.834 -0.2045 -0.2963  0.1883
 3971TIP3   OH233327   0.594   2.310  14.416 -0.1107  0.1107  0.6949
 3971TIP3    H133328   0.628   2.226  14.447  1.8735  1.2746  1.9067
 3971TIP3    H233329   0.519   2.287  14.362  0.7125 -2.4679  0.5077
 3972TIP3   OH233330   6.260   2.188   0.080  0.6706 -0.1524 -0.0987
 3972TIP3    H133331   6.236   2.103   0.116 -1.5704  0.7290  0.6829
 3972TIP3    H233332   6.211   2.251   0.133  0.9460  1.4985 -1.7092
 3973TIP3   OH233333   1.356   4.566  14.187 -0.5101  0.4587  0.0154
 3973TIP3    H133334   1.278   4.621  14.190 -0.2800  0.7808  0.0381
 3973TIP3    H233335   1.377   4.549  14.279  0.2804  1.5475  0.0500
 3974TIP3   OH233336   5.002   2.482   4.407  0.3642 -0.3541  0.0710
 3974TIP3    H133337   5.042   2.512   4.488  0.2738  0.4774 -0.1805
 3974TIP3    H233338   5.042   2.536   4.339  0.4532 -1.0532 -0.4446
 3975TIP3   OH233339   4.051   4.480  13.442  0.5008  0.0719  0.1259
 3975TIP3    H133340   4.048   4.393  13.402  2.2387  0.2345 -0.4494
 3975TIP3    H233341   4.056   4.463  13.536 -1.9760 -0.3429  0.2497
 3976TIP3   OH233342   0.954   1.356  14.904  0.5786  0.0471 -0.4294
 3976TIP3    H133343   0.922   1.445  14.919 -0.7542 -0.4940  0.0913
 3976TIP3    H233344   0.882   1.299  14.932  0.5088 -1.1720 -2.7766
 3977TIP3   OH233345   4.178   4.290   1.778  0.4551 -0.1203  0.0833
 3977TIP3    H133346   4.155   4.229   1.848 -0.6037 -0.1696 -0.2949
 3977TIP3    H233347   4.213   4.367   1.823  1.3467 -0.7989  0.5825
 3978TIP3   OH233348   0.138   6.820  10.971 -0.5727 -0.2958 -0.2876
 3978TIP3    H133349   0.169   6.871  10.896 -0.0521  0.1839  0.2379
 3978TIP3    H233350   0.062   6.772  10.938  0.4646 -1.1683 -1.5072
 3979TIP3   OH233351   5.402   1.938  15.512 -0.3514  0.3187  0.4572
 3979TIP3    H133352   5.433   2.019  15.552  0.2771 -0.0358  0.6976
 3979TIP3    H233353   5.451   1.869  15.556 -0.8757 -0.1952  0.2446
 3980TIP3   OH233354   5.257   4.275   4.406 -0.6896 -0.3883  0.1773
 3980TIP3    H133355   5.240   4.190   4.446 -3.0659 -0.4969 -0.8590
 3980TIP3    H233356   5.329   4.259   4.345 -1.4815 -1.8476 -0.4295
 3981TIP3   OH233357   0.588   1.076   2.563 -0.0390  0.0462  0.7099
 3981TIP3    H133358   0.636   1.003   2.601 -2.2165 -2.0868 -0.3382
 3981TIP3    H233359   0.518   1.094   2.625  0.6484  1.4753  1.0942
 3982TIP3   OH233360   4.952   0.515   5.430 -0.0681  0.1827 -0.1749
 3982TIP3    H133361   4.868   0.472   5.413 -0.4749  0.9640 -0.1815
 3982TIP3    H233362   4.976   0.485   5.518 -1.0280  1.0049  0.3908
 3983TIP3   OH233363   6.168   6.740   0.265 -0.4381 -0.7065  0.6071
 3983TIP3    H133364   6.094   6.775   0.313 -0.7280  0.3199 -0.5454
 3983TIP3    H233365   6.243   6.749   0.324 -0.7809  0.5390  0.8755
 3984TIP3   OH233366   0.748   3.537  12.401 -0.3085  0.5670  0.4327
 3984TIP3    H133367   0.714   3.576  12.481  1.5774  1.0715  1.0297
 3984TIP3    H233368   0.672   3.531  12.343 -1.1558  2.8153  1.2120
 3985TIP3   OH233369   5.680   4.290  15.223 -0.9330  0.2050 -0.0310
 3985TIP3    H133370   5.641   4.332  15.300 -0.5253  1.3838 -0.4476
 3985TIP3    H233371   5.663   4.350  15.151  2.0886  1.1247 -0.1402
 3986TIP3   OH233372   6.051   2.217  11.576  0.0290  0.7126  0.7800
 3986TIP3    H133373   6.129   2.266  11.550 -0.2307  0.4936 -0.4855
 3986TIP3    H233374   5.978   2.272  11.550 -0.2983 -0.7802 -1.7590
 3987TIP3   OH233375   2.919   6.164  12.155 -0.3534 -0.3827  0.2219
 3987TIP3    H133376   2.858   6.227  12.118  0.6989 -0.2146 -1.3771
 3987TIP3    H233377   3.000   6.178  12.106  0.0067 -2.7508  0.0048
 3988TIP3   OH233378   1.915   6.570  13.164  0.4023 -0.6538 -0.1058
 3988TIP3    H133379   1.844   6.521  13.122  0.5779 -0.6829 -0.3747
 3988TIP3    H233380   1.955   6.507  13.225  0.2198 -0.6471  0.0207
 3989TIP3   OH233381   1.117   4.310  13.807  0.1048 -0.3478 -0.3255
 3989TIP3    H133382   1.188   4.373  13.819  0.3139 -0.8502  1.3741
 3989TIP3    H233383   1.152   4.247  13.744  0.2569  0.6663 -1.2958
 3990TIP3   OH233384   6.114   5.344  15.359 -0.0955 -0.4850  0.2752
 3990TIP3    H133385   6.141   5.361  15.269 -1.2162  1.4993  0.2667
 3990TIP3    H233386   6.187   5.373  15.412  1.2991 -3.2196  0.0493
 3991TIP3   OH233387   1.199   4.238   6.242  0.5046  0.0273 -0.3277
 3991TIP3    H133388   1.174   4.330   6.230 -0.9926 -0.1787  0.9699
 3991TIP3    H233389   1.281   4.230   6.194  0.5583  1.9837 -0.6609
 3992TIP3   OH233390   0.864   4.679  12.886 -0.6188 -0.1979 -0.5682
 3992TIP3    H133391   0.942   4.624  12.897  0.3540  1.1311 -0.5116
 3992TIP3    H233392   0.794   4.617  12.865  0.6547 -1.3549 -1.6688
 3993TIP3   OH233393   2.021   4.158  14.621 -0.1508 -0.3406 -0.1457
 3993TIP3    H133394   2.061   4.238  14.654  0.0856 -0.6117  0.2241
 3993TIP3    H233395   2.053   4.089  14.679 -1.3208 -0.5323  0.3040
 3994TIP3   OH233396   1.242   0.524  11.051  0.1080  0.7455  0.3596
 3994TIP3    H133397   1.292   0.567  10.982  1.6204 -1.1694  0.1811
 3994TIP3    H233398   1.182   0.465  11.004  0.9155 -0.3221  0.6208
 3995TIP3   OH233399   2.559   2.975   5.032 -0.0069 -0.5514 -0.0161
 3995TIP3    H133400   2.592   2.941   5.115 -0.4425  0.2942  0.5209
 3995TIP3    H233401   2.631   3.026   4.996 -0.2330  0.1444  0.4824
 3996TIP3   OH233402   6.609   3.220  16.025  0.7447  0.0233 -0.3492
 3996TIP3    H133403   6.608   3.237  16.120  0.8668  0.0497 -0.3524
 3996TIP3    H233404   6.702   3.214  16.003  0.6973 -1.2249 -0.2503
 3997TIP3   OH233405   2.250   6.668   3.572  0.2653  0.2895 -0.4436
 3997TIP3    H133406   2.333   6.656   3.525  0.3294 -0.5687 -0.1284
 3997TIP3    H233407   2.276   6.701   3.658  0.3425 -0.6042 -0.1109
 3998TIP3   OH233408   0.536   0.741  14.651 -0.4140 -0.2152  0.2827
 3998TIP3    H133409   0.555   0.647  14.651  2.8332  0.3281 -0.1735
 3998TIP3    H233410   0.604   0.779  14.706 -1.1673  1.9721 -0.2214
 3999TIP3   OH233411   6.293   0.907  13.154 -0.3313  0.0209 -0.5104
 3999TIP3    H133412   6.233   0.939  13.087 -0.3377 -1.2432 -1.1431
 3999TIP3    H233413   6.291   0.974  13.222 -3.1751 -0.4003 -0.0586
 4000TIP3   OH233414   3.776   1.415  11.558 -0.1157  0.4528 -0.4611
 4000TIP3    H133415   3.725   1.385  11.482 -0.1630  0.6404 -0.5049
 4000TIP3    H233416   3.772   1.510  11.553  1.5524  0.5214 -1.3633
 4001TIP3   OH233417   1.812   2.119  16.024 -0.4058  0.1536 -0.3235
 4001TIP3    H133418   1.820   2.030  15.989  0.4723 -0.1384  0.5834
 4001TIP3    H233419   1.888   2.165  15.989 -0.1811  0.1951  0.2164
 4002TIP3   OH233420   4.494   5.486   5.227 -0.2293  0.1753  0.0585
 4002TIP3    H133421   4.419   5.538   5.197 -0.6926  0.5358  1.7441
 4002TIP3    H233422   4.513   5.520   5.314  0.8549 -1.0270  0.3142
 4003TIP3   OH233423   3.060   3.431  11.277  0.0428 -0.2087 -0.0928
 4003TIP3    H133424   3.080   3.495  11.345  1.6462  1.6601 -2.1387
 4003TIP3    H233425   3.048   3.348  11.323 -1.2693  1.3685  2.6152
 4004TIP3   OH233426   1.084   0.437   5.538  0.3607  0.2806  0.4362
 4004TIP3    H133427   1.025   0.491   5.486 -0.0460 -1.0201 -0.5003
 4004TIP3    H233428   1.139   0.394   5.473 -0.9579 -2.3271  0.9373
 4005TIP3   OH233429   6.032   3.383  14.733 -0.6194  0.3304 -0.0069
 4005TIP3    H133430   6.061   3.474  14.730  2.2963 -0.5249 -0.9742
 4005TIP3    H233431   6.106   3.336  14.771 -2.5280 -1.5329  1.6358
 4006TIP3   OH233432   2.951   3.899  16.409  0.0838  0.5832  0.0468
 4006TIP3    H133433   2.869   3.897  16.459 -0.0302 -0.7595 -0.1490
 4006TIP3    H233434   3.012   3.849  16.463  0.4279  0.5477 -0.3755
 4007TIP3   OH233435   0.452   3.871  12.826  0.2541  0.2963 -0.6157
 4007TIP3    H133436   0.507   3.794  12.813  1.8282  1.0865  0.9767
 4007TIP3    H233437   0.371   3.837  12.864  0.5824 -0.6359 -0.7402
 4008TIP3   OH233438   5.764   0.865  14.394  0.5632  0.4978 -0.0955
 4008TIP3    H133439   5.756   0.823  14.480  1.0426 -0.4553 -0.5026
 4008TIP3    H233440   5.764   0.959  14.413  3.1573  0.3223  1.2041
 4009TIP3   OH233441   6.090   2.882  13.378  0.1542  0.2551  0.0406
 4009TIP3    H133442   6.032   2.874  13.454 -0.1881 -1.8809 -0.3908
 4009TIP3    H233443   6.097   2.977  13.364 -1.4634  0.6436  1.4452
 4010TIP3   OH233444   1.432   6.370  16.484  0.1953 -0.1632  0.4474
 4010TIP3    H133445   1.408   6.462  16.490  0.1126 -0.2318  1.2852
 4010TIP3    H233446   1.506   6.368  16.424  0.7909  0.5677  1.1473
 4011TIP3   OH233447   2.769   2.953   2.205  0.0211 -0.2913 -0.2217
 4011TIP3    H133448   2.849   3.000   2.182 -0.7100  0.6665 -0.8959
 4011TIP3    H233449   2.796   2.892   2.274  0.9563  1.3011  0.8918
 4012TIP3   OH233450   3.737   0.445   2.582 -0.1732 -0.0516  0.2028
 4012TIP3    H133451   3.788   0.395   2.519 -0.4490 -0.5072  0.3394
 4012TIP3    H233452   3.791   0.447   2.661  0.1738  0.5220 -0.0474
 4013TIP3   OH233453   2.621   2.235  15.477 -0.0828 -0.1757  0.2013
 4013TIP3    H133454   2.655   2.315  15.437  2.9150 -1.1500  0.5354
 4013TIP3    H233455   2.557   2.202  15.414 -1.3337  2.3358  0.0025
 4014TIP3   OH233456   3.192   6.145  16.700 -0.0459  0.6261 -0.0631
 4014TIP3    H133457   3.242   6.069  16.729  0.9815  0.9575 -0.9120
 4014TIP3    H233458   3.213   6.154  16.607 -2.7187 -0.0263 -0.8307
 4015TIP3   OH233459   0.592   6.025  11.812 -0.0690  0.1785  0.3863
 4015TIP3    H133460   0.642   6.019  11.730 -0.3096  1.2250  0.1487
 4015TIP3    H233461   0.555   5.938  11.824  1.4184 -0.5025  0.3187
 4016TIP3   OH233462   0.294   5.395   0.889 -0.0258  0.1496 -0.9384
 4016TIP3    H133463   0.376   5.436   0.861  1.1649 -2.6168 -1.7819
 4016TIP3    H233464   0.321   5.315   0.934 -2.2544 -0.7279 -1.0480
 4017TIP3   OH233465   0.335   0.323   3.325  0.0325  0.0951  0.0672
 4017TIP3    H133466   0.265   0.372   3.282 -0.0373 -0.9337 -1.0469
 4017TIP3    H233467   0.372   0.385   3.388 -1.6870  0.7483  0.5009
 4018TIP3   OH233468   4.971   5.085  15.228  0.0161  0.7024 -0.9475
 4018TIP3    H133469   5.062   5.115  15.225  0.1707  1.6664  4.2067
 4018TIP3    H233470   4.919   5.164  15.243 -0.7518 -0.3021  2.6632
 4019TIP3   OH233471   4.699   1.453   5.962 -0.3437  0.2603 -0.5386
 4019TIP3    H133472   4.772   1.432   6.020 -0.7131  0.3352 -0.0397
 4019TIP3    H233473   4.740   1.475   5.878  0.3306  2.2060  0.2452
 4020TIP3   OH233474   3.680   1.758  11.027 -0.1772 -0.0823  0.3695
 4020TIP3    H133475   3.654   1.721  10.942  1.1649 -1.8608  0.6739
 4020TIP3    H233476   3.739   1.830  11.005 -0.3423 -0.1210 -0.2140
 4021TIP3   OH233477   0.390   3.290  15.404 -0.6194  0.3696  0.1295
 4021TIP3    H133478   0.307   3.247  15.385 -1.0994  1.1392  0.4617
 4021TIP3    H233479   0.372   3.345  15.480  0.4763 -0.2935  0.9056
 4022TIP3   OH233480   3.310   5.692   4.023 -0.7217 -0.3555  0.2699
 4022TIP3    H133481   3.398   5.730   4.018 -1.5492  1.6903  0.4729
 4022TIP3    H233482   3.315   5.630   4.096  0.3875  0.1700  0.6720
 4023TIP3   OH233483   0.006   6.061   2.728 -0.2587 -0.3983 -0.6844
 4023TIP3    H133484   0.004   5.973   2.766  0.7572  0.0128  0.3763
 4023TIP3    H233485  -0.019   6.119   2.799  0.5210  0.2886 -0.9478
 4024TIP3   OH233486   0.024   2.073   1.323 -0.0698 -0.2171  0.0630
 4024TIP3    H133487  -0.006   2.162   1.303 -1.3631 -0.7225 -0.4068
 4024TIP3    H233488   0.080   2.049   1.249  0.3645  0.2335  0.2406
 4025TIP3   OH233489   3.777   3.684  12.585  0.0310 -0.2463  0.3166
 4025TIP3    H133490   3.786   3.707  12.678  0.3681 -0.7327  0.4108
 4025TIP3    H233491   3.683   3.691  12.568  0.1952  2.1114  0.0741
 4026TIP3   OH233492   3.169   2.942   4.521 -0.3539 -0.5181 -0.2147
 4026TIP3    H133493   3.184   2.849   4.510 -1.4490 -0.7667  0.2775
 4026TIP3    H233494   3.158   2.954   4.615 -0.3610  0.0842 -0.2859
 4027TIP3   OH233495   1.181   1.879   4.403  0.0304 -0.1683  0.0797
 4027TIP3    H133496   1.133   1.814   4.353 -0.6669  1.1812 -1.0778
 4027TIP3    H233497   1.161   1.963   4.360  0.2821  0.9218  1.9581
 4028TIP3   OH233498   4.619   1.122  14.125  0.0372 -0.1887  0.1215
 4028TIP3    H133499   4.633   1.072  14.045  0.5780 -1.3769  0.9302
 4028TIP3    H233500   4.701   1.171  14.137  0.2357 -0.5667  0.3242
 4029TIP3   OH233501   0.713   5.555  13.058 -0.4001 -1.1481 -0.8384
 4029TIP3    H133502   0.662   5.564  13.139  0.4861 -1.0384 -0.2802
 4029TIP3    H233503   0.691   5.634  13.008  1.0851  0.1640  0.4865
 4030TIP3   OH233504   5.264   6.826  12.632  0.2528  0.1967  0.4386
 4030TIP3    H133505   5.272   6.742  12.678 -0.2009  0.7332  1.5346
 4030TIP3    H233506   5.206   6.807  12.558 -0.7569 -0.2284  1.3139
 4031TIP3   OH233507   1.593   0.296  11.785 -0.0737 -0.1405 -0.3231
 4031TIP3    H133508   1.538   0.366  11.752  0.3553  0.2970 -0.1288
 4031TIP3    H233509   1.542   0.216  11.773 -1.1542  0.3609  0.7396
 4032TIP3   OH233510   5.859   0.850   4.693 -0.9577 -0.1386 -0.1041
 4032TIP3    H133511   5.850   0.936   4.653  0.3420  0.3926  0.7050
 4032TIP3    H233512   5.948   0.823   4.674 -0.5836 -0.2483  1.6477
 4033TIP3   OH233513   0.649   3.023   3.338  0.8500  0.1854 -0.0122
 4033TIP3    H133514   0.613   2.971   3.266  0.3841  0.9267 -0.3315
 4033TIP3    H233515   0.638   2.968   3.416 -1.3680  0.5210 -0.0181
 4034TIP3   OH233516   0.635   3.489   3.114  0.0619  0.0171 -0.4873
 4034TIP3    H133517   0.623   3.475   3.208  0.0198  0.8736 -0.3619
 4034TIP3    H233518   0.673   3.406   3.083  0.6566 -0.0587  0.3892
 4035TIP3   OH233519   6.060   2.100  14.192  0.7324  0.0847  0.8997
 4035TIP3    H133520   6.050   2.005  14.190  1.4087  0.0232  0.0104
 4035TIP3    H233521   6.084   2.124  14.103  1.3081  1.0064  1.2850
 4036TIP3   OH233522   0.028   1.034   1.398 -0.0240 -0.1935  0.2444
 4036TIP3    H133523  -0.058   1.022   1.358 -1.4200  4.1564  1.3406
 4036TIP3    H233524   0.034   1.128   1.413  3.0995 -0.7543  4.2364
 4037TIP3   OH233525   2.503   3.616  16.737  0.0892  0.0045 -0.2653
 4037TIP3    H133526   2.520   3.689  16.678 -0.8983 -0.5518 -1.2691
 4037TIP3    H233527   2.446   3.653  16.805 -0.8388  0.0606 -1.0598
 4038TIP3   OH233528   6.614   2.607   3.564  0.6877  0.1643  0.1592
 4038TIP3    H133529   6.708   2.618   3.575  0.9642 -1.2803 -0.4524
 4038TIP3    H233530   6.587   2.552   3.638  0.5289 -0.3222 -0.2543
 4039TIP3   OH233531   4.661   1.805   2.954 -0.5394  0.3502 -0.3654
 4039TIP3    H133532   4.579   1.792   3.002 -1.5414  2.3807 -1.3499
 4039TIP3    H233533   4.727   1.758   3.004 -2.2962 -1.3208  0.4930
 4040TIP3   OH233534   6.203   5.852  15.903 -0.0174  0.0658  0.2688
 4040TIP3    H133535   6.189   5.915  15.832 -0.5656  0.0726  0.3809
 4040TIP3    H233536   6.294   5.866  15.930  0.1054  0.2579 -0.2416
 4041TIP3   OH233537   4.680   4.241  15.745 -0.2518  0.0652 -0.5073
 4041TIP3    H133538   4.591   4.247  15.711 -0.5908 -1.0292  0.1166
 4041TIP3    H233539   4.689   4.149  15.772  0.7608  0.3594  0.2318
 4042TIP3   OH233540   5.686   4.854   0.215 -0.3904  0.4502  0.1585
 4042TIP3    H133541   5.669   4.838   0.122 -0.6853  2.9331 -0.2856
 4042TIP3    H233542   5.606   4.826   0.259 -0.3123 -0.5951 -0.3445
 4043TIP3   OH233543   5.269   0.636   5.129 -0.3690 -0.1006 -0.1783
 4043TIP3    H133544   5.267   0.604   5.039  0.1723  0.4850 -0.4026
 4043TIP3    H233545   5.223   0.568   5.179 -1.3564 -0.0633 -1.0028
 4044TIP3   OH233546   3.420   3.915   3.987 -0.7750 -0.0605  0.8319
 4044TIP3    H133547   3.404   3.994   3.935 -0.8075 -0.8689 -0.4469
 4044TIP3    H233548   3.438   3.947   4.075 -1.7020  1.3128  0.5526
 4045TIP3   OH233549   3.625   5.695   5.185  0.3639 -0.6050 -0.9940
 4045TIP3    H133550   3.543   5.741   5.165  1.1714  1.0841 -0.6074
 4045TIP3    H233551   3.609   5.605   5.158 -2.2080 -0.7394  0.6359
 4046TIP3   OH233552   6.016   0.578  15.993 -0.1091 -0.0995 -0.0338
 4046TIP3    H133553   5.961   0.514  15.948 -0.7036  0.2430  0.1952
 4046TIP3    H233554   6.080   0.525  16.041  1.1634 -0.4681 -2.0070
 4047TIP3   OH233555   2.865   3.333  16.526 -0.6596 -0.1373 -0.2362
 4047TIP3    H133556   2.788   3.296  16.483 -0.4034  1.0567 -1.8055
 4047TIP3    H233557   2.936   3.318  16.464 -0.1241  0.9932  0.0782
 4048TIP3   OH233558   0.423   0.588  11.696  0.0681 -0.0501 -1.1860
 4048TIP3    H133559   0.392   0.630  11.777  1.8200  0.6504 -0.8422
 4048TIP3    H233560   0.354   0.606  11.632 -0.6938  0.6115 -0.2140
 4049TIP3   OH233561   0.428   1.048  11.679  0.1881 -0.7711  0.1545
 4049TIP3    H133562   0.364   0.983  11.649  0.9270 -1.3170 -0.2556
 4049TIP3    H233563   0.394   1.076  11.765 -0.6199 -1.0118 -0.0723
 4050TIP3   OH233564   5.909   0.175  16.857  0.2313  0.2818 -0.3327
 4050TIP3    H133565   5.992   0.128  16.864 -0.2003 -0.5424 -0.6493
 4050TIP3    H233566   5.852   0.116  16.808 -0.4367  0.9879 -0.4229
 4051TIP3   OH233567   4.118   4.578  16.957  0.0327 -0.1124  0.0980
 4051TIP3    H133568   4.112   4.663  17.001 -1.0397  0.2080 -0.6146
 4051TIP3    H233569   4.088   4.515  17.022 -1.8516  0.3924 -0.2113
 4052TIP3   OH233570   2.246   4.228  15.815  0.9763  0.1725 -0.3202
 4052TIP3    H133571   2.183   4.300  15.806 -1.6019 -1.9291 -0.5655
 4052TIP3    H233572   2.269   4.227  15.907  0.0263  0.5685 -0.0642
 4053TIP3   OH233573   1.366   2.651   3.639 -0.2705  0.6335  0.4480
 4053TIP3    H133574   1.440   2.652   3.699 -0.0282 -0.3128  0.1920
 4053TIP3    H233575   1.404   2.625   3.555 -1.2134 -2.6576  0.8768
 4054TIP3   OH233576   4.596   2.202  11.645 -0.7138  0.5099  0.5622
 4054TIP3    H133577   4.610   2.135  11.577  0.8184  1.4987 -0.1599
 4054TIP3    H233578   4.562   2.277  11.597  1.2898  1.5494  0.6658
 4055TIP3   OH233579   2.959   5.211   5.197  0.4473 -0.1713  0.4095
 4055TIP3    H133580   3.054   5.205   5.185  0.6230 -0.6464  1.8305
 4055TIP3    H233581   2.927   5.122   5.185  0.3312 -0.2186  1.0352
 4056TIP3   OH233582   0.800   2.950  11.140  0.3745 -0.2297 -0.1125
 4056TIP3    H133583   0.730   2.926  11.079  0.1950  1.9395 -0.8515
 4056TIP3    H233584   0.880   2.918  11.099  0.2317  1.0054 -1.4326
 4057TIP3   OH233585   5.601   0.994   0.441 -0.3352  0.0217 -0.7548
 4057TIP3    H133586   5.664   0.930   0.474 -2.5861 -1.4806  0.9557
 4057TIP3    H233587   5.613   0.992   0.346  0.3131 -2.2749 -0.6813
 4058TIP3   OH233588   4.797   2.954  13.685  0.0791 -0.5174 -0.2756
 4058TIP3    H133589   4.707   2.955  13.719 -0.5288  0.1396 -1.8314
 4058TIP3    H233590   4.787   2.961  13.590  1.7852 -0.3311 -0.4682
 4059TIP3   OH233591   4.480   4.063   1.230 -0.0632 -0.0166 -0.1082
 4059TIP3    H133592   4.392   4.096   1.211 -1.3458 -0.7739  3.6236
 4059TIP3    H233593   4.481   3.975   1.192 -0.5250  0.3525 -1.0077
 4060TIP3   OH233594   0.900   0.743  12.676  0.4965  0.0893 -0.0774
 4060TIP3    H133595   0.871   0.755  12.767 -0.9805 -0.6913 -0.4187
 4060TIP3    H233596   0.936   0.655  12.674 -1.4476 -0.7375 -0.6991
 4061TIP3   OH233597   5.784   3.960   5.752  0.1216 -0.6427  0.1208
 4061TIP3    H133598   5.773   4.046   5.792 -0.3694  0.3807 -2.0895
 4061TIP3    H233599   5.702   3.915   5.770 -0.6476  0.3156 -0.8411
 4062TIP3   OH233600   4.493   1.497   0.648 -0.2125 -0.3198  0.0661
 4062TIP3    H133601   4.476   1.562   0.579 -0.1140 -0.2515  0.1047
 4062TIP3    H233602   4.416   1.441   0.648 -0.2951 -0.2081  0.0240
 4063TIP3   OH233603   1.699   4.458   1.581  0.0808  0.8026  0.1136
 4063TIP3    H133604   1.733   4.450   1.492 -0.4260  2.9744 -0.3229
 4063TIP3    H233605   1.611   4.422   1.577  0.2811  0.3106 -0.0778
 4064TIP3   OH233606   3.025   1.969  14.802  0.7128  0.3584  0.1917
 4064TIP3    H133607   2.967   1.973  14.726  1.5417 -1.5601 -0.6030
 4064TIP3    H233608   3.002   2.046  14.854 -1.5214  0.4262 -0.8035
 4065TIP3   OH233609   5.858   3.176   5.263 -0.0055  0.6179  0.3018
 4065TIP3    H133610   5.768   3.176   5.297  0.3083 -0.4757  1.1813
 4065TIP3    H233611   5.881   3.269   5.256 -0.6533  0.8959  1.5850
 4066TIP3   OH233612   0.733   3.339  14.312  0.0187  0.0712  0.3315
 4066TIP3    H133613   0.672   3.272  14.282 -1.3574  2.1015 -1.8610
 4066TIP3    H233614   0.795   3.349  14.239 -0.2803  1.6524  0.2492
 4067TIP3   OH233615   6.182   2.021  13.710 -0.8202  0.3534 -0.5208
 4067TIP3    H133616   6.227   2.013  13.626  0.2387 -1.2398  0.1531
 4067TIP3    H233617   6.093   1.990  13.692 -0.2750 -1.1408 -0.8443
 4068TIP3   OH233618   2.705   3.880   1.850 -0.0142  0.1279 -0.1973
 4068TIP3    H133619   2.762   3.840   1.784  0.5757 -1.0995  0.9987
 4068TIP3    H233620   2.617   3.851   1.827  0.2460 -0.7057 -0.1573
 4069TIP3   OH233621   3.487   1.648  10.514  0.9636  0.4630 -0.3122
 4069TIP3    H133622   3.502   1.739  10.539 -0.4139  0.9095 -1.0161
 4069TIP3    H233623   3.565   1.623  10.465  2.5343  0.4083  2.0636
 4070TIP3   OH233624   0.569   3.116  16.625 -0.0385 -0.7771  0.5828
 4070TIP3    H133625   0.487   3.086  16.665  0.4516 -1.8785  0.7953
 4070TIP3    H233626   0.572   3.210  16.645 -2.8159  0.0550 -2.2170
 4071TIP3   OH233627   1.602   0.859   1.733  0.3101 -0.0333 -0.3041
 4071TIP3    H133628   1.630   0.775   1.697  2.2776 -1.0953  3.2262
 4071TIP3    H233629   1.530   0.836   1.793  1.2820  0.6199  1.1725
 4072TIP3   OH233630   5.966   5.004  10.945  0.6099 -0.1386 -0.2194
 4072TIP3    H133631   5.883   5.008  10.898  0.1411 -1.3371  0.4649
 4072TIP3    H233632   6.029   5.046  10.886  0.0471 -1.6088 -1.9590
 4073TIP3   OH233633   6.282   3.952  16.293  0.0767  0.2868 -0.4989
 4073TIP3    H133634   6.275   3.885  16.225  0.5670 -0.4181  0.1256
 4073TIP3    H233635   6.356   3.924  16.347 -0.0036  1.0873  0.0460
 4074TIP3   OH233636   4.977   2.127   2.930  0.3043  0.0208 -0.5075
 4074TIP3    H133637   5.072   2.120   2.944  0.2409  1.6220  1.1545
 4074TIP3    H233638   4.969   2.172   2.847  1.0484  0.6174 -0.2744
 4075TIP3   OH233639   3.245   2.211  15.611  0.4006 -0.0942 -0.1655
 4075TIP3    H133640   3.182   2.171  15.671  3.0653 -3.7271  0.5328
 4075TIP3    H233641   3.300   2.266  15.667 -1.1127  1.8942 -0.5352
 4076TIP3   OH233642   2.471   2.271  14.122  0.1249  0.2546  0.5339
 4076TIP3    H133643   2.566   2.280  14.132  0.2840 -0.8646  0.1960
 4076TIP3    H233644   2.435   2.307  14.203  1.0000 -1.8606  1.9662
 4077TIP3   OH233645   0.828   5.509  10.643  0.2620  0.0267 -0.6903
 4077TIP3    H133646   0.756   5.465  10.597 -0.1252  0.2945 -0.3493
 4077TIP3    H233647   0.845   5.453  10.719 -0.2381  0.4518 -0.2497
 4078TIP3   OH233648   6.280   0.916   3.401  0.2805  0.2672  0.5157
 4078TIP3    H133649   6.206   0.858   3.388  1.2078 -0.5341 -1.8066
 4078TIP3    H233650   6.247   0.985   3.459 -1.5164 -1.3141  1.4860
 4079TIP3   OH233651   3.306   5.785   5.387 -0.1713  0.2054 -0.4683
 4079TIP3    H133652   3.317   5.849   5.317 -3.0145 -0.4769 -1.6465
 4079TIP3    H233653   3.313   5.700   5.343 -1.2698 -0.2370  0.1818
 4080TIP3   OH233654   1.400   6.125   3.584 -0.4643 -0.1705  0.4807
 4080TIP3    H133655   1.489   6.159   3.584 -0.7442  0.5988 -0.3956
 4080TIP3    H233656   1.410   6.032   3.561  0.2640 -0.6455  2.4881
 4081TIP3   OH233657   4.591   5.282  12.176 -0.6186 -0.0430  0.0393
 4081TIP3    H133658   4.596   5.188  12.187  0.1216 -0.0779 -0.4855
 4081TIP3    H233659   4.519   5.310  12.233 -0.5946 -0.8676  0.4827
 4082TIP3   OH233660   0.952   3.419  16.631  0.2488  0.2969 -0.2861
 4082TIP3    H133661   0.892   3.442  16.559  0.0997  0.2185 -0.1870
 4082TIP3    H233662   0.955   3.497  16.686  0.9895  0.6460 -0.8017
 4083TIP3   OH233663   4.557   1.596   0.912 -0.5012 -0.5430  0.0110
 4083TIP3    H133664   4.491   1.578   0.845 -0.6297 -1.3814  0.3469
 4083TIP3    H233665   4.634   1.625   0.863 -0.5799 -1.1929 -0.5120
 4084TIP3   OH233666   1.051   2.190  15.441  0.0949  0.2333  0.3332
 4084TIP3    H133667   1.055   2.282  15.412  0.8410  0.8915  2.3499
 4084TIP3    H233668   1.131   2.151  15.406  0.4497  0.7198  0.5813
 4085TIP3   OH233669   3.915   3.443   1.294 -0.0253  0.0181 -0.4191
 4085TIP3    H133670   4.004   3.471   1.316  0.2154 -1.0763  0.1032
 4085TIP3    H233671   3.928   3.364   1.241 -0.6752  0.4176 -1.1856
 4086TIP3   OH233672   0.279   4.530  16.878 -0.4027 -0.1484 -1.2047
 4086TIP3    H133673   0.287   4.529  16.782 -1.8872  0.5175 -1.3656
 4086TIP3    H233674   0.320   4.612  16.905 -2.3700  1.0319 -1.5801
 4087TIP3   OH233675   2.656   0.799   2.639  0.4699  0.1052 -0.3453
 4087TIP3    H133676   2.630   0.818   2.729 -1.8634 -0.2639 -0.8861
 4087TIP3    H233677   2.697   0.713   2.643 -1.9331 -1.0872  0.0534
 4088TIP3   OH233678   2.093   3.228   0.276 -0.1214  0.0789 -0.0623
 4088TIP3    H133679   2.162   3.182   0.228 -0.9895 -0.4365 -0.8256
 4088TIP3    H233680   2.123   3.226   0.367  2.0009  1.8652 -0.6092
 4089TIP3   OH233681   0.015   4.680  15.472 -0.1990 -1.1147 -0.4725
 4089TIP3    H133682   0.006   4.696  15.378  0.9870  3.2101 -0.0818
 4089TIP3    H233683   0.080   4.611  15.479 -0.0284 -1.2550 -2.8319
 4090TIP3   OH233684   0.261   1.557   4.953 -0.7367 -0.3338  0.2189
 4090TIP3    H133685   0.297   1.609   5.026 -0.8127 -0.6708  0.4979
 4090TIP3    H233686   0.328   1.492   4.935 -1.3731 -1.2558  1.0415
 4091TIP3   OH233687   6.673   1.396   5.628 -0.6756 -0.0813  0.5281
 4091TIP3    H133688   6.679   1.407   5.723  0.3772 -0.0950  0.4682
 4091TIP3    H233689   6.663   1.301   5.616 -0.6091 -0.0997  0.6169
 4092TIP3   OH233690   5.918   5.183  10.553 -0.8938 -0.8616  0.1957
 4092TIP3    H133691   5.974   5.233  10.493 -0.3987 -1.3290  0.2610
 4092TIP3    H233692   5.844   5.242  10.571 -0.4102 -0.2193  0.1303
 4093TIP3   OH233693   2.352   2.549  11.995  0.0387 -0.6083 -0.1721
 4093TIP3    H133694   2.266   2.563  12.036 -0.1960 -1.9425 -0.1767
 4093TIP3    H233695   2.377   2.461  12.021 -0.2536 -1.6691 -3.0736
 4094TIP3   OH233696   4.680   1.726   0.558  0.2531  0.3960 -0.4534
 4094TIP3    H133697   4.655   1.770   0.640  0.9794  0.4557 -0.2540
 4094TIP3    H233698   4.771   1.753   0.544  0.1831  0.2511 -1.1967
 4095TIP3   OH233699   4.634   6.819   1.406 -0.5674  0.5113 -0.3159
 4095TIP3    H133700   4.558   6.770   1.374 -1.5521  0.6788  1.6268
 4095TIP3    H233701   4.665   6.867   1.329 -1.6334 -0.5448 -1.4604
 4096TIP3   OH233702   4.145   2.538   1.866 -0.0925  1.1343  0.2908
 4096TIP3    H133703   4.146   2.559   1.960  1.7028 -1.0519  0.8656
 4096TIP3    H233704   4.058   2.500   1.851  0.0812  0.1805  1.4584
 4097TIP3   OH233705   4.425   2.435   5.086 -0.3147 -1.0190 -0.2345
 4097TIP3    H133706   4.410   2.357   5.031 -0.2012  0.6820 -2.8625
 4097TIP3    H233707   4.520   2.445   5.088 -0.3673  0.7436 -2.6313
 4098TIP3   OH233708   5.334   0.752  12.401  0.0529  0.4208 -0.0966
 4098TIP3    H133709   5.327   0.828  12.343  0.0702  0.0919 -0.5378
 4098TIP3    H233710   5.300   0.679  12.349  1.3053 -0.1333 -0.1839
 4099TIP3   OH233711   4.260   2.736  13.154 -0.5506 -0.6470 -0.2718
 4099TIP3    H133712   4.318   2.793  13.103 -2.7882 -0.7512 -3.1484
 4099TIP3    H233713   4.257   2.654  13.105 -2.6662 -0.8424  0.0775
 4100TIP3   OH233714   2.263   5.582   3.863  0.4494  0.6010  0.2146
 4100TIP3    H133715   2.282   5.595   3.956  1.4559  0.3247  0.0518
 4100TIP3    H233716   2.258   5.670   3.827  3.0765  0.7285 -0.0474
 4101TIP3   OH233717   0.354   0.761  14.019  0.4288 -0.1758 -0.3703
 4101TIP3    H133718   0.308   0.681  13.992  1.5269 -0.8782 -0.2166
 4101TIP3    H233719   0.304   0.793  14.093  0.6618 -1.4142  0.3510
 4102TIP3   OH233720   3.281   4.634   0.918  0.5085 -0.5298 -0.0325
 4102TIP3    H133721   3.258   4.553   0.873  0.7485 -1.2478  1.1188
 4102TIP3    H233722   3.361   4.614   0.966 -0.2843 -0.1088  1.5374
 4103TIP3   OH233723   0.022   0.206   5.757  0.1717  0.0775  0.3533
 4103TIP3    H133724   0.015   0.263   5.834  1.1373  0.6746  0.0168
 4103TIP3    H233725   0.112   0.175   5.758 -0.5287 -2.1287  0.9667
 4104TIP3   OH233726   0.609   4.874   0.465  0.1335 -0.3823 -0.0117
 4104TIP3    H133727   0.597   4.799   0.407  0.1495 -0.7363  0.4380
 4104TIP3    H233728   0.625   4.836   0.551  3.0568  0.0372 -0.2592
 4105TIP3   OH233729   6.186   0.479   0.425  0.0048  0.5005  0.1966
 4105TIP3    H133730   6.208   0.450   0.336  2.2169  0.7752  0.6101
 4105TIP3    H233731   6.093   0.457   0.435  0.2360 -1.4508 -1.4225
 4106TIP3   OH233732   4.070   1.915   2.926 -1.3384  0.1758 -0.0413
 4106TIP3    H133733   4.079   1.837   2.872  0.0108  0.9229 -0.9488
 4106TIP3    H233734   4.100   1.888   3.013 -0.9926 -0.3345 -0.3184
 4107TIP3   OH233735   5.855   4.995   4.959  0.1629 -0.0048  0.2430
 4107TIP3    H133736   5.918   4.951   5.015  0.2504 -0.9539 -0.5746
 4107TIP3    H233737   5.792   4.927   4.934 -0.7309  0.7387  0.3838
 4108TIP3   OH233738   0.339   1.183   1.022 -0.3115 -0.1737 -0.4312
 4108TIP3    H133739   0.401   1.126   0.976 -0.7212  0.1201 -1.3853
 4108TIP3    H233740   0.304   1.129   1.093  0.5891 -0.5343 -0.2567
 4109TIP3   OH233741   2.853   1.832  16.787 -0.3612 -0.4602 -0.7014
 4109TIP3    H133742   2.925   1.893  16.771 -1.5387  1.6979  1.5800
 4109TIP3    H233743   2.859   1.811  16.880 -1.2146 -2.2674 -1.0172
 4110TIP3   OH233744   3.713   4.038  14.814 -0.8085  0.2981  0.0665
 4110TIP3    H133745   3.792   3.984  14.806 -0.9635  0.3910 -4.2599
 4110TIP3    H233746   3.646   3.978  14.847  0.6618 -0.1067  2.5643
 4111TIP3   OH233747   3.762   6.378   4.885 -0.2889 -0.1991  0.4315
 4111TIP3    H133748   3.715   6.419   4.812 -2.4745 -2.4423  0.4428
 4111TIP3    H233749   3.798   6.297   4.848  0.5142 -0.2634  1.3236
 4112TIP3   OH233750   3.827   0.680   0.539  0.1871 -0.5802  0.0857
 4112TIP3    H133751   3.852   0.758   0.490  0.1284 -1.4086 -1.2995
 4112TIP3    H233752   3.811   0.712   0.628  0.2832  0.9617 -0.4238
 4113TIP3   OH233753   5.551   0.775  14.899 -0.0134  0.4701 -0.0158
 4113TIP3    H133754   5.533   0.682  14.913  1.4766 -0.0315 -1.2330
 4113TIP3    H233755   5.502   0.797  14.820  0.3474  0.4851 -0.2366
 4114TIP3   OH233756   5.723   0.501   1.192  0.4276 -0.8859  0.0728
 4114TIP3    H133757   5.753   0.425   1.243 -0.2933 -1.6419 -0.5994
 4114TIP3    H233758   5.634   0.479   1.165 -0.1703  0.6322  0.6820
 4115TIP3   OH233759   0.976   6.130   6.085  0.0795 -0.7487 -0.3152
 4115TIP3    H133760   1.036   6.170   6.148 -0.5519  0.5530 -0.5068
 4115TIP3    H233761   0.925   6.068   6.136 -0.0903 -0.0574  0.3707
 4116TIP3   OH233762   0.055   2.010  12.880 -0.3201  0.2005 -0.6801
 4116TIP3    H133763  -0.037   2.028  12.858 -1.5970 -0.1499  3.4486
 4116TIP3    H233764   0.063   1.915  12.873 -1.2712 -0.1333  1.5820
 4117TIP3   OH233765   2.617   1.509  12.489  0.2782  0.1659  0.2759
 4117TIP3    H133766   2.683   1.567  12.527  1.1014 -0.8910  0.4898
 4117TIP3    H233767   2.597   1.548  12.403  0.0798  1.2995  0.8240
 4118TIP3   OH233768   4.883   4.915   2.384 -0.0101  0.3472 -0.0639
 4118TIP3    H133769   4.916   4.990   2.334 -2.1930  0.8540 -0.8464
 4118TIP3    H233770   4.837   4.955   2.458  1.0289 -0.3356  0.9837
 4119TIP3   OH233771   5.514   6.062   4.817 -0.6689  0.6905 -0.0287
 4119TIP3    H133772   5.568   6.129   4.774 -1.2783  0.5888 -0.9869
 4119TIP3    H233773   5.432   6.106   4.835 -0.1770  0.9541  1.7706
 4120TIP3   OH233774   4.101   0.764   4.099  0.0681  0.0801 -0.2638
 4120TIP3    H133775   4.135   0.688   4.052 -1.3253  0.1742 -1.5104
 4120TIP3    H233776   4.145   0.839   4.060 -0.1894  0.0681 -0.5788
 4121TIP3   OH233777   2.587   6.770  13.100 -0.2673 -0.2572  0.0105
 4121TIP3    H133778   2.634   6.842  13.058 -0.4071 -0.1178  0.0913
 4121TIP3    H233779   2.601   6.695  13.042 -1.8735  0.3201 -1.2097
 4122TIP3   OH233780   2.428   0.093   4.815  0.2955  0.3829 -0.1409
 4122TIP3    H133781   2.384   0.037   4.879  1.5781 -3.0007 -1.9567
 4122TIP3    H233782   2.365   0.161   4.795 -2.4272 -1.7498  0.5582
 4123TIP3   OH233783   2.805   6.208   4.944 -0.8971  0.0019 -0.6837
 4123TIP3    H133784   2.728   6.203   4.887  0.0602 -0.8272 -1.9573
 4123TIP3    H233785   2.801   6.296   4.982 -0.8850  1.1068 -3.0514
 4124TIP3   OH233786   1.560   2.723   6.368  0.3892  0.0901  0.5428
 4124TIP3    H133787   1.508   2.771   6.303  1.9458 -0.8225 -1.5066
 4124TIP3    H233788   1.519   2.637   6.372  0.6507 -0.0457  0.3106
 4125TIP3   OH233789   3.566   5.137  15.976  0.3039  0.3517 -0.1777
 4125TIP3    H133790   3.656   5.134  16.006  0.4608  0.8181 -0.5805
 4125TIP3    H233791   3.548   5.230  15.963 -0.7137  0.3978  1.3019
 4126TIP3   OH233792   0.395   0.179   0.759 -0.0297  0.2671 -0.7819
 4126TIP3    H133793   0.315   0.194   0.709 -0.4135  1.1747  0.0646
 4126TIP3    H233794   0.463   0.226   0.709 -0.0365 -0.3909 -1.4279
 4127TIP3   OH233795   0.342   0.871  14.439  0.5063  0.3171 -0.1846
 4127TIP3    H133796   0.276   0.835  14.498 -0.2536  0.6749 -0.8133
 4127TIP3    H233797   0.415   0.894  14.497 -0.5972  1.5782  0.7486
 4128TIP3   OH233798   5.901   5.582   4.783  0.1869  0.5550 -0.0608
 4128TIP3    H133799   5.985   5.558   4.745  0.3980 -1.6125  1.5967
 4128TIP3    H233800   5.905   5.550   4.873 -2.2161  0.8593  0.2243
 4129TIP3   OH233801   6.443   1.939  13.107  0.0320 -0.0239  0.3981
 4129TIP3    H133802   6.535   1.914  13.105  0.0017 -0.1354  0.3624
 4129TIP3    H233803   6.423   1.947  13.200  0.5193  1.6872  0.3836
 4130TIP3   OH233804   2.722   2.664   2.880  0.0941 -0.5972  0.3504
 4130TIP3    H133805   2.652   2.680   2.943 -0.0417  0.5580 -0.0780
 4130TIP3    H233806   2.798   2.709   2.917  0.2753 -0.7660  0.1830
 4131TIP3   OH233807   5.527   2.820  10.153  0.0411  0.3554 -0.0459
 4131TIP3    H133808   5.471   2.892  10.181 -0.6105 -0.3810  0.6263
 4131TIP3    H233809   5.469   2.743  10.157  1.0159 -0.3703  0.3420
 4132TIP3   OH233810   0.170   4.437  12.350  0.0924  0.0043  0.4540
 4132TIP3    H133811   0.076   4.444  12.333  0.4730  1.0030 -1.4167
 4132TIP3    H233812   0.181   4.473  12.438 -1.2100  0.3855  0.4818
 4133TIP3   OH233813   6.545   1.857   4.907  0.1625 -0.1671 -0.2911
 4133TIP3    H133814   6.588   1.787   4.858  0.8658 -0.1980  0.3461
 4133TIP3    H233815   6.514   1.813   4.987  1.6842  0.4621  0.6924
 4134TIP3   OH233816   2.482   0.539   5.517 -0.5128 -0.3615  0.1546
 4134TIP3    H133817   2.448   0.598   5.583  1.1359  0.9823 -0.1406
 4134TIP3    H233818   2.405   0.507   5.471 -1.6591 -0.8905  2.3057
 4135TIP3   OH233819   6.300   0.411   4.025 -0.0346  0.4736  0.1890
 4135TIP3    H133820   6.243   0.487   4.036 -2.4057 -1.2142  0.3039
 4135TIP3    H233821   6.317   0.381   4.114 -1.0280 -0.4491  0.0788
 4136TIP3   OH233822   4.277   3.406  12.818 -0.1925 -0.0229 -0.2775
 4136TIP3    H133823   4.192   3.408  12.773 -0.3646 -3.1362 -0.2736
 4136TIP3    H233824   4.338   3.373  12.752 -0.0128 -2.4769  0.9920
 4137TIP3   OH233825   4.322   0.158  12.792  0.1098 -0.1551 -0.5600
 4137TIP3    H133826   4.286   0.076  12.826 -0.0220  0.1931  0.1525
 4137TIP3    H233827   4.304   0.222  12.860  0.6650  0.3626 -0.8909
 4138TIP3   OH233828   3.093   1.291  16.051  0.5528 -0.1815  0.7468
 4138TIP3    H133829   3.054   1.365  16.097  0.6965  0.5120 -0.2070
 4138TIP3    H233830   3.019   1.238  16.024  0.5034 -1.0602  2.4852
 4139TIP3   OH233831   4.424   0.875  10.348  0.7217  0.2118  0.4779
 4139TIP3    H133832   4.448   0.878  10.440  2.4082 -1.9426  0.1910
 4139TIP3    H233833   4.491   0.927  10.304 -0.3577  1.6454  0.4742
 4140TIP3   OH233834   1.997   3.149   2.982  0.4458 -0.2916  0.0922
 4140TIP3    H133835   1.979   3.117   3.070 -0.5957 -1.1828 -0.4255
 4140TIP3    H233836   2.093   3.151   2.977  0.5340  0.7403  1.5597
 4141TIP3   OH233837   5.250   2.965   1.447 -0.0577  0.2145  0.1766
 4141TIP3    H133838   5.264   2.885   1.498 -0.7308 -0.7527 -1.1081
 4141TIP3    H233839   5.156   2.965   1.428 -0.3305  2.0617  1.3322
 4142TIP3   OH233840   4.002   0.517  12.570 -0.4119  0.4564  0.2600
 4142TIP3    H133841   3.916   0.502  12.531  0.6482  0.5176 -2.2862
 4142TIP3    H233842   4.033   0.430  12.593 -0.4831  0.2664 -0.3479
 4143TIP3   OH233843   4.710   3.211   0.933  0.2628 -0.1081 -0.0216
 4143TIP3    H133844   4.688   3.289   0.984  1.8661  0.0110  0.5223
 4143TIP3    H233845   4.776   3.165   0.985 -2.2105 -3.0824  0.7914
 4144TIP3   OH233846   5.931   1.611   5.527  1.0872  0.3100  0.0843
 4144TIP3    H133847   5.986   1.541   5.491 -0.4195 -0.2861 -1.1444
 4144TIP3    H233848   5.841   1.584   5.507  0.4739  3.2658 -1.7415
 4145TIP3   OH233849   5.758   6.584   3.551 -0.2507 -0.8089 -0.4064
 4145TIP3    H133850   5.727   6.674   3.544 -0.1340 -0.8343 -1.3757
 4145TIP3    H233851   5.826   6.577   3.484  1.8619 -0.7548  1.6083
 4146TIP3   OH233852   3.318   4.917  15.991 -0.2569  0.2026  0.1979
 4146TIP3    H133853   3.315   4.828  16.027  1.9106 -0.4088 -0.9266
 4146TIP3    H233854   3.364   4.969  16.057 -2.0591  0.6852  1.1268
 4147TIP3   OH233855   5.172   2.056  12.266  0.0941  0.2230 -0.4592
 4147TIP3    H133856   5.098   2.084  12.319  1.7066  1.2892  1.3755
 4147TIP3    H233857   5.137   1.986  12.211 -2.4802  1.3676 -0.4104
 4148TIP3   OH233858   5.823   5.810  13.833  0.4613  0.4097  0.3784
 4148TIP3    H133859   5.846   5.871  13.762 -0.7836 -0.0843 -0.4832
 4148TIP3    H233860   5.882   5.834  13.905  2.0774  0.6448 -0.9497
 4149TIP3   OH233861   3.475   2.188  14.855 -0.2471 -0.2141 -0.1288
 4149TIP3    H133862   3.472   2.163  14.948 -1.2328 -2.3372 -0.6708
 4149TIP3    H233863   3.408   2.257  14.848 -0.8337 -0.6817  0.5891
 4150TIP3   OH233864   4.775   5.833  15.521  0.3350 -0.7592 -0.2228
 4150TIP3    H133865   4.826   5.820  15.601 -0.6680 -1.4847  0.3211
 4150TIP3    H233866   4.790   5.754  15.469  1.0025 -0.2796 -0.7769
 4151TIP3   OH233867   0.751   2.403   5.844 -0.3033 -0.2449 -0.1354
 4151TIP3    H133868   0.733   2.320   5.888  0.3908 -0.2468  0.1676
 4151TIP3    H233869   0.697   2.467   5.889  0.2226 -0.2886  0.5805
 4152TIP3   OH233870   6.795   1.651  13.942  0.2079 -0.5558 -0.9221
 4152TIP3    H133871   6.814   1.568  13.899  2.9777 -0.6103  0.1734
 4152TIP3    H233872   6.840   1.644  14.027 -0.8447  1.4475 -0.1402
 4153TIP3   OH233873   0.258   5.831   4.834 -0.0013 -0.6341 -0.1157
 4153TIP3    H133874   0.184   5.810   4.777 -0.7135  0.3156  0.4284
 4153TIP3    H233875   0.321   5.875   4.777 -0.5563 -0.0045 -0.2546
 4154TIP3   OH233876   1.203   0.365   2.013 -0.2725  0.0090 -0.0150
 4154TIP3    H133877   1.235   0.372   1.923  1.8741  1.0283  0.7821
 4154TIP3    H233878   1.163   0.450   2.031 -0.5516 -0.1370  0.0737
 4155TIP3   OH233879   3.005   4.858  15.578  0.3103  0.2701 -0.5780
 4155TIP3    H133880   3.044   4.885  15.495  0.7402  0.5915 -0.2745
 4155TIP3    H233881   3.015   4.763  15.579 -0.8660  0.1325 -1.4775
 4156TIP3   OH233882   4.739   4.984   2.608 -0.2528  0.1448 -0.0875
 4156TIP3    H133883   4.702   4.898   2.624 -1.2200  0.5266 -0.1855
 4156TIP3    H233884   4.680   5.045   2.653  0.0023  0.8112 -0.6238
 4157TIP3   OH233885   3.103   0.908  14.852  0.3838 -0.0170  0.3183
 4157TIP3    H133886   3.191   0.919  14.816  0.0171 -3.1531 -1.9657
 4157TIP3    H233887   3.114   0.844  14.924  0.0054 -0.4186  0.0263
 4158TIP3   OH233888   2.176   4.867   2.731 -0.2977  0.2718  0.4378
 4158TIP3    H133889   2.139   4.871   2.642 -1.3238  0.8399  0.8835
 4158TIP3    H233890   2.271   4.867   2.717 -0.4438 -0.0894 -0.6779
 4159TIP3   OH233891   4.251   5.789   4.473  0.0423 -0.1755 -0.7373
 4159TIP3    H133892   4.278   5.839   4.396  1.7984  0.4413  0.2404
 4159TIP3    H233893   4.327   5.789   4.530 -1.1211 -0.8757  0.8914
 4160TIP3   OH233894   6.146   6.183  16.898  0.2155 -0.2909  0.2225
 4160TIP3    H133895   6.060   6.187  16.941  1.0054  0.9389  1.7639
 4160TIP3    H233896   6.126   6.194  16.805 -1.1224  2.7734  0.7622
 4161TIP3   OH233897   5.765   1.801  13.839  0.3667  0.3587  0.0496
 4161TIP3    H133898   5.781   1.893  13.859  0.9186  0.2761  0.0094
 4161TIP3    H233899   5.823   1.782  13.766 -0.2311  0.1485 -0.3832
 4162TIP3   OH233900   6.078   5.323  13.099 -0.2915  0.0842  0.5849
 4162TIP3    H133901   6.050   5.276  13.021  2.1185 -0.4373 -0.0617
 4162TIP3    H233902   6.141   5.387  13.067 -1.2173  1.6814  1.8283
 4163TIP3   OH233903   2.485   0.996  13.173  0.4079 -0.1593  0.9734
 4163TIP3    H133904   2.389   1.004  13.181  0.1845 -1.7260  0.2273
 4163TIP3    H233905   2.519   1.068  13.225 -1.2035  1.4271 -0.0406
 4164TIP3   OH233906   2.874   5.041  15.244  0.0652  0.5846  0.2412
 4164TIP3    H133907   2.934   5.054  15.317 -1.1111  1.5193  1.1014
 4164TIP3    H233908   2.792   5.081  15.274 -0.6844  0.2597 -1.2826
 4165TIP3   OH233909   0.172   1.589   3.331 -0.6695  0.4858  0.2514
 4165TIP3    H133910   0.224   1.652   3.381  2.3318 -1.6308  0.0574
 4165TIP3    H233911   0.140   1.639   3.256  1.6972  1.8087  0.0110
 4166TIP3   OH233912   3.561   3.272   2.018 -0.2241  0.2204 -0.2078
 4166TIP3    H133913   3.535   3.318   2.098 -1.4661  1.2366 -1.1692
 4166TIP3    H233914   3.547   3.335   1.948 -0.6166 -1.1573 -1.4158
 4167TIP3   OH233915   5.816   4.418  15.540  0.0971  0.4936  0.0162
 4167TIP3    H133916   5.865   4.483  15.592 -0.8794  0.3331  1.1819
 4167TIP3    H233917   5.859   4.335  15.559  0.2178  0.5405 -0.0474
 4168TIP3   OH233918   5.929   0.510  12.337  0.2159 -0.4980  0.3509
 4168TIP3    H133919   5.972   0.473  12.260  0.4586  0.2961  0.0963
 4168TIP3    H233920   5.857   0.562  12.302  0.2850 -0.1908  0.6611
 4169TIP3   OH233921   3.721   4.423  15.153  0.7754 -0.1485 -0.5896
 4169TIP3    H133922   3.664   4.476  15.209  1.6460  1.1584 -0.8938
 4169TIP3    H233923   3.780   4.378  15.213  0.6120 -0.0812 -0.3771
 4170TIP3   OH233924   0.042   5.645   4.473  0.5730 -0.0246  0.0579
 4170TIP3    H133925   0.103   5.581   4.509 -0.5823 -0.5842  1.0971
 4170TIP3    H233926   0.088   5.683   4.398  2.4671  0.0644  1.1908
 4171TIP3   OH233927   3.329   1.250   5.353 -0.2531 -0.2025 -0.2696
 4171TIP3    H133928   3.308   1.340   5.379 -0.5548 -0.2813 -0.2274
 4171TIP3    H233929   3.243   1.210   5.338 -0.1345 -0.5715  0.0223
 4172TIP3   OH233930   5.931   1.473  14.653 -0.6665 -0.2901 -0.3451
 4172TIP3    H133931   5.950   1.389  14.612  1.1478  0.1918 -0.5602
 4172TIP3    H233932   5.858   1.455  14.712  0.4965 -2.3218  0.5638
 4173TIP3   OH233933   4.474   5.921   1.457  0.0433 -0.2549  0.1795
 4173TIP3    H133934   4.543   5.958   1.400 -0.3838  1.4007  0.6806
 4173TIP3    H233935   4.509   5.930   1.545 -0.5111 -0.1031  0.3830
 4174TIP3   OH233936   2.731   3.961   5.522  0.3016 -0.0929 -0.7987
 4174TIP3    H133937   2.689   3.884   5.560 -0.3907 -0.5775 -2.4465
 4174TIP3    H233938   2.809   3.975   5.576 -0.8596 -0.4340  1.0326
 4175TIP3   OH233939   1.404   1.763  10.794 -0.0141 -0.3568 -0.3268
 4175TIP3    H133940   1.321   1.724  10.822 -0.6685  0.8859 -0.4871
 4175TIP3    H233941   1.415   1.733  10.704 -0.0237 -0.9332 -0.1420
 4176TIP3   OH233942   3.566   3.899   2.594  0.0622 -0.5990  0.0990
 4176TIP3    H133943   3.531   3.964   2.655 -0.5070  0.5711 -1.4078
 4176TIP3    H233944   3.491   3.842   2.574 -0.4723  0.5565 -1.4027
 4177TIP3   OH233945   6.161   2.977   3.075 -0.1094 -0.3601 -0.0220
 4177TIP3    H133946   6.180   3.070   3.081 -0.5138 -0.1724 -1.3380
 4177TIP3    H233947   6.145   2.950   3.165  1.1237  0.5844  0.5159
 4178TIP3   OH233948   5.884   1.232  12.554 -0.7720  0.1009 -0.0372
 4178TIP3    H133949   5.889   1.288  12.477 -1.2525  2.0781  1.2707
 4178TIP3    H233950   5.803   1.260  12.598  0.0294 -0.1844  1.7218
 4179TIP3   OH233951   3.540   1.658   5.536 -0.4379  0.0864 -0.1918
 4179TIP3    H133952   3.567   1.629   5.623 -2.2082  1.8819  1.0623
 4179TIP3    H233953   3.546   1.580   5.481  1.6274 -0.8859  1.2835
 4180TIP3   OH233954   5.153   4.211   1.292 -0.0220 -0.5546 -0.2683
 4180TIP3    H133955   5.127   4.286   1.239 -0.6396  0.3002  1.1552
 4180TIP3    H233956   5.074   4.189   1.342  1.0959  0.2756  2.0588
 4181TIP3   OH233957   3.825   5.181   1.528 -0.2743 -0.4110  0.1526
 4181TIP3    H133958   3.772   5.139   1.595  2.1596 -1.3318  1.6075
 4181TIP3    H233959   3.805   5.274   1.536 -1.5674 -0.7166  0.6908
 4182TIP3   OH233960   3.079   4.284   6.149  0.0606 -0.0341 -0.1741
 4182TIP3    H133961   3.126   4.203   6.166  0.3816  0.4423  1.3964
 4182TIP3    H233962   2.991   4.256   6.123  0.2423 -0.8870  0.1126
 4183TIP3   OH233963   1.544   5.726  13.875 -0.3149  0.8686  0.9516
 4183TIP3    H133964   1.449   5.720  13.884 -0.4555  1.4595 -0.0548
 4183TIP3    H233965   1.571   5.639  13.846 -0.2354 -0.0401  3.4654
 4184TIP3   OH233966   6.793   0.524   5.576 -0.4188 -0.3005  0.2379
 4184TIP3    H133967   6.745   0.607   5.570 -0.4380 -0.2066  1.4341
 4184TIP3    H233968   6.885   0.550   5.571 -0.4530 -0.3360 -0.6253
 4185TIP3   OH233969   3.293   6.428   3.047  0.3345 -0.7296 -0.1432
 4185TIP3    H133970   3.200   6.448   3.037  0.9024  1.5562 -1.5455
 4185TIP3    H233971   3.323   6.487   3.117  0.8785 -0.9171 -0.2140
 4186TIP3   OH233972   1.292   0.070   2.342 -0.2284 -0.3307  1.2469
 4186TIP3    H133973   1.259   0.041   2.257  0.0853  0.5123  0.8292
 4186TIP3    H233974   1.223   0.047   2.404 -1.5900  1.3022  0.4081
 4187TIP3   OH233975   0.072   4.014  13.880  0.1236  0.3165  0.6895
 4187TIP3    H133976  -0.008   4.039  13.833  1.0366  3.3254  0.5244
 4187TIP3    H233977   0.099   3.932  13.838 -1.6581  0.4020 -0.7777
 4188TIP3   OH233978   5.310   4.845  14.528 -0.2816  1.1484 -0.3957
 4188TIP3    H133979   5.321   4.908  14.599 -2.6700  2.5466 -1.1415
 4188TIP3    H233980   5.222   4.809  14.541  0.4441 -0.9301 -0.8833
 4189TIP3   OH233981   4.481   1.181  13.306 -0.3164 -0.0216  0.0240
 4189TIP3    H133982   4.563   1.144  13.273 -0.7470 -0.2925 -0.7445
 4189TIP3    H233983   4.448   1.236  13.235 -0.0042  1.3853  0.9077
 4190TIP3   OH233984   3.812   5.291   5.927  0.1668 -0.7670  0.3242
 4190TIP3    H133985   3.789   5.381   5.948  2.2955 -0.0769 -0.0863
 4190TIP3    H233986   3.735   5.240   5.954  0.2826  0.7181  4.1522
 4191TIP3   OH233987   6.616   2.453   4.669 -0.3310  0.0625  0.2847
 4191TIP3    H133988   6.701   2.496   4.680 -0.3685  0.5666 -1.2085
 4191TIP3    H233989   6.637   2.361   4.659  0.0900  0.2281 -0.4594
 4192TIP3   OH233990   1.146   3.522   0.545  0.2924 -0.2523  0.9020
 4192TIP3    H133991   1.112   3.465   0.615 -0.1665  0.4163  1.2308
 4192TIP3    H233992   1.227   3.480   0.518 -0.2184 -1.2784  0.8862
 4193TIP3   OH233993   5.939   2.928  15.206  0.4415 -0.7453 -0.3162
 4193TIP3    H133994   5.856   2.899  15.168  1.1866 -0.2064 -2.4773
 4193TIP3    H233995   5.987   2.847  15.224  0.7406 -1.0367 -2.2029
 4194TIP3   OH233996   4.483   5.268   0.878  0.1219 -0.1030  0.6629
 4194TIP3    H133997   4.573   5.249   0.851  0.4484 -1.7573  2.6743
 4194TIP3    H233998   4.440   5.182   0.879 -0.5018  0.1780  2.9142
 4195TIP3   OH233999   4.555   6.623   3.235 -0.2508 -0.1421 -0.5576
 4195TIP3    H134000   4.642   6.611   3.196 -0.1812  0.4032 -0.5826
 4195TIP3    H234001   4.555   6.567   3.312 -0.9969 -2.6294 -2.2234
 4196TIP3   OH234002   2.610   2.421  15.057  0.0508 -0.0886  0.4574
 4196TIP3    H134003   2.557   2.485  15.009 -0.5679  0.7037  2.1001
 4196TIP3    H234004   2.591   2.337  15.015 -0.1407  0.6127 -0.9157
 4197TIP3   OH234005   2.789   5.419   2.777 -0.1234  0.6344 -0.4058
 4197TIP3    H134006   2.841   5.499   2.769 -0.3353  0.8465  0.2380
 4197TIP3    H234007   2.849   5.356   2.818 -0.4887  1.0130  0.7521
 4198TIP3   OH234008   1.592   5.736  10.406  0.0233  0.7351 -0.4213
 4198TIP3    H134009   1.535   5.659  10.406  1.1239 -0.1764 -2.4668
 4198TIP3    H234010   1.677   5.701  10.434  0.3334  1.3783 -0.5486
 4199TIP3   OH234011   3.878   5.187   2.070 -0.0466 -0.3750 -0.1484
 4199TIP3    H134012   3.863   5.241   1.992 -0.1546  1.4853  1.1134
 4199TIP3    H234013   3.941   5.237   2.122  1.9185 -2.7146 -0.1004
 4200TIP3   OH234014   4.196   0.481  14.240 -0.1144  0.5469 -0.0055
 4200TIP3    H134015   4.257   0.545  14.275 -0.6434  1.4053 -0.5829
 4200TIP3    H234016   4.160   0.523  14.161  1.1079 -1.3174 -1.6568
 4201TIP3   OH234017   1.353   3.808   2.089  0.1094  0.0713 -0.4662
 4201TIP3    H134018   1.407   3.861   2.029  0.7836  1.5192  1.2981
 4201TIP3    H234019   1.301   3.873   2.138 -3.3665 -1.2551 -2.0796
 4202TIP3   OH234020   3.714   0.841  13.980  0.1010 -0.2404  0.4415
 4202TIP3    H134021   3.645   0.774  13.980 -1.4567  1.2592 -1.1669
 4202TIP3    H234022   3.779   0.808  13.918 -0.3394 -0.5762  0.1514
 4203TIP3   OH234023   5.349   6.410   5.876 -0.1463 -0.4079  0.2329
 4203TIP3    H134024   5.436   6.445   5.857 -0.5786  0.0286 -0.9926
 4203TIP3    H234025   5.320   6.459   5.953  0.3449  0.0277  0.1447
 4204TIP3   OH234026   2.124   3.940  12.076  0.1564  0.2009  0.2299
 4204TIP3    H134027   2.070   3.884  12.019  0.7805 -0.8455  0.6511
 4204TIP3    H234028   2.121   4.026  12.034 -1.6130  0.1139  0.0831
 4205TIP3   OH234029   0.611   2.864   3.900  0.1112  0.2933  0.3414
 4205TIP3    H134030   0.591   2.957   3.890  0.4174  0.4858  1.4229
 4205TIP3    H234031   0.706   2.860   3.911  0.2184 -0.2474 -0.7216
 4206TIP3   OH234032   3.801   5.156   1.005 -0.8204  0.1104 -0.1191
 4206TIP3    H134033   3.716   5.111   1.006 -1.9051  2.0177 -1.0101
 4206TIP3    H234034   3.835   5.142   1.093 -1.5172 -1.6313 -0.0767
 4207TIP3   OH234035   4.455   1.782  15.171  0.0297 -0.3457  0.1331
 4207TIP3    H134036   4.520   1.754  15.236 -0.2788  2.4637  1.8399
 4207TIP3    H234037   4.373   1.741  15.200  0.0545  0.2476  1.0893
 4208TIP3   OH234038   4.672   6.484   1.249  0.1488 -0.4651 -0.2775
 4208TIP3    H134039   4.712   6.491   1.336 -1.2736 -0.1669  0.3675
 4208TIP3    H234040   4.704   6.561   1.202  1.8091 -1.1963 -0.4268
 4209TIP3   OH234041   0.256   3.198   2.277  0.2205 -0.2753  0.2483
 4209TIP3    H134042   0.203   3.276   2.259  1.1634  0.7813  1.8156
 4209TIP3    H234043   0.266   3.156   2.192 -1.8457  0.2902 -0.3385
 4210TIP3   OH234044   0.256   4.965   0.168 -0.2378 -0.1559  0.3464
 4210TIP3    H134045   0.267   4.873   0.144  0.0531 -0.1914  0.6162
 4210TIP3    H234046   0.216   4.963   0.255  0.4109 -0.0324  0.6567
 4211TIP3   OH234047   2.314   5.248   0.608 -0.8206  0.3820  0.6808
 4211TIP3    H134048   2.309   5.326   0.663  2.4816  0.4997  0.9973
 4211TIP3    H234049   2.385   5.196   0.645  1.0566  0.0648 -2.8558
 4212TIP3   OH234050   5.050   2.980  11.176 -0.5427 -0.6968 -0.1282
 4212TIP3    H134051   5.004   3.047  11.126 -0.2437 -0.8587 -0.6182
 4212TIP3    H234052   5.006   2.980  11.261 -0.0138  0.7051  0.1751
 4213TIP3   OH234053   5.266   3.357  13.066 -0.7129 -0.4026 -0.1452
 4213TIP3    H134054   5.284   3.329  13.156 -1.6668 -0.2339  0.1110
 4213TIP3    H234055   5.207   3.291  13.031 -0.0949 -0.6406 -0.7707
 4214TIP3   OH234056   4.696   4.365   2.073 -0.2196  0.5636 -0.0993
 4214TIP3    H134057   4.781   4.393   2.106  0.7281 -1.8491 -0.3046
 4214TIP3    H234058   4.692   4.400   1.984  1.6511 -1.2127 -0.9586
 4215TIP3   OH234059   0.393   5.499  15.852  0.5369  0.8445 -0.0370
 4215TIP3    H134060   0.440   5.437  15.798 -3.2097 -1.5314 -0.9265
 4215TIP3    H234061   0.340   5.550  15.790 -0.8607  0.8028  1.0630
 4216TIP3   OH234062   4.549   5.594  15.278 -0.2917 -0.4023  0.0264
 4216TIP3    H134063   4.512   5.668  15.326 -2.0631 -0.8391 -0.5629
 4216TIP3    H234064   4.578   5.533  15.345 -1.4461 -0.3951  0.5589
 4217TIP3   OH234065   5.838   1.430   5.333 -0.3425 -0.2670  1.2070
 4217TIP3    H134066   5.926   1.407   5.304  0.5952  1.0276  2.8249
 4217TIP3    H234067   5.791   1.347   5.337  0.1992 -0.7632 -1.4489
 4218TIP3   OH234068   4.610   2.115   3.096  0.0920  0.1326  0.1210
 4218TIP3    H134069   4.608   2.036   3.150 -0.9960 -0.1003 -0.2300
 4218TIP3    H234070   4.530   2.110   3.044 -0.0384  1.5083  0.1483
 4219TIP3   OH234071   2.285   4.779  11.242  0.0731 -0.0352  0.0166
 4219TIP3    H134072   2.314   4.729  11.166 -1.3599 -0.9362  0.0364
 4219TIP3    H234073   2.315   4.869  11.224  3.0270 -0.8789  0.1647
 4220TIP3   OH234074   4.617   0.162   1.206  0.0897  0.0262  0.0227
 4220TIP3    H134075   4.622   0.143   1.112  2.0905  3.0966 -0.6089
 4220TIP3    H234076   4.524   0.174   1.223 -0.5071 -2.3968 -1.0807
 4221TIP3   OH234077   0.398   3.858   3.983  0.4677 -0.5388 -0.2356
 4221TIP3    H134078   0.318   3.837   4.030 -0.0040 -0.8505 -1.1571
 4221TIP3    H234079   0.414   3.951   4.003 -1.5373  0.2799 -2.0024
 4222TIP3   OH234080   3.770   0.674  14.580 -0.3566  0.2084 -0.3038
 4222TIP3    H134081   3.731   0.607  14.524 -0.7540  0.5283 -0.4135
 4222TIP3    H234082   3.862   0.676  14.553 -0.5728  0.4600 -1.0549
 4223TIP3   OH234083   2.771   3.157   1.394 -0.4068 -0.1415  0.6859
 4223TIP3    H134084   2.693   3.173   1.447  0.2519  0.9669  1.3656
 4223TIP3    H234085   2.745   3.088   1.334 -2.4756  1.3429 -0.2555
 4224TIP3   OH234086   3.789   5.388  15.999 -0.1001  1.0798  0.2505
 4224TIP3    H134087   3.700   5.385  15.964 -0.7091 -1.7027  1.6885
 4224TIP3    H234088   3.844   5.409  15.924 -1.6601 -0.8807 -1.5780
 4225TIP3   OH234089   0.067   6.349   2.611  1.1616  0.4311 -0.4997
 4225TIP3    H134090   0.032   6.370   2.525  0.8653 -2.5226 -1.2229
 4225TIP3    H234091   0.142   6.292   2.592 -0.0465 -1.8569  1.1272
 4226TIP3   OH234092   0.659   1.623  11.556 -0.3806  0.2008  0.1693
 4226TIP3    H134093   0.739   1.606  11.606 -0.9201 -1.2953  0.5685
 4226TIP3    H234094   0.588   1.609  11.619 -0.9825  0.9495 -0.3309
 4227TIP3   OH234095   5.237   1.161   0.858  0.0519  0.9592 -0.0717
 4227TIP3    H134096   5.234   1.225   0.929  0.5089  1.3935 -0.4441
 4227TIP3    H234097   5.312   1.187   0.805 -2.1536  2.6406 -2.6136
 4228TIP3   OH234098   4.704   2.924   3.614  0.3543 -0.2871  0.8368
 4228TIP3    H134099   4.755   2.886   3.542 -1.9563 -1.7295 -0.1510
 4228TIP3    H234100   4.662   3.000   3.576  1.4079  0.6727  1.5379
 4229TIP3   OH234101   0.787   6.230  11.653 -0.0917  0.0098 -0.3688
 4229TIP3    H134102   0.804   6.307  11.599 -0.8951  0.3333 -0.1765
 4229TIP3    H234103   0.740   6.170  11.595  0.8613 -0.5027 -0.6304
 4230TIP3   OH234104   4.103   2.074  10.931 -0.4797  0.1632 -0.7374
 4230TIP3    H134105   4.120   2.160  10.892  1.2551  0.3710  0.3776
 4230TIP3    H234106   4.189   2.032  10.936 -0.9641 -0.7299  0.7931
 4231TIP3   OH234107   2.047   0.044   1.070 -0.0424 -0.0526 -0.5806
 4231TIP3    H134108   2.105   0.023   0.998  0.3558 -0.6018 -0.1062
 4231TIP3    H234109   2.019  -0.041   1.104  0.6484  0.1686  0.6060
 4232TIP3   OH234110   2.437   1.110  11.036  0.0917 -0.0520 -0.2073
 4232TIP3    H134111   2.531   1.101  11.055  0.4374  0.2764 -1.5716
 4232TIP3    H234112   2.418   1.037  10.977 -0.6638 -0.4643  0.5367
 4233TIP3   OH234113   1.044   4.425  16.977 -0.0447  0.1897 -0.1317
 4233TIP3    H134114   1.081   4.481  16.909 -1.8068  0.0078 -1.3089
 4233TIP3    H234115   1.047   4.337  16.941  0.2068 -0.1062  0.5851
 4234TIP3   OH234116   5.281   3.176  11.831 -0.1593 -0.2938 -0.2431
 4234TIP3    H134117   5.345   3.135  11.889 -0.7559 -0.3973  0.3430
 4234TIP3    H234118   5.299   3.137  11.745 -0.1663 -1.1629  0.1386
 4235TIP3   OH234119   6.466   1.688  13.779  0.3622 -0.0171 -0.6010
 4235TIP3    H134120   6.522   1.710  13.706 -0.1073 -1.9200 -1.5894
 4235TIP3    H234121   6.518   1.628  13.833  0.3313  0.5488  0.0675
 4236TIP3   OH234122   2.121   1.807  11.933  0.0648 -0.0843 -0.3215
 4236TIP3    H134123   2.085   1.891  11.959  0.8629 -0.2296  1.4175
 4236TIP3    H234124   2.186   1.828  11.866 -0.0063  0.6429 -0.1655
 4237TIP3   OH234125   3.531   5.267   2.238 -0.2018 -0.2190 -0.1609
 4237TIP3    H134126   3.444   5.229   2.252 -0.2588 -1.5960 -3.3219
 4237TIP3    H234127   3.514   5.356   2.208 -0.3888  0.0707  0.7503
 4238TIP3   OH234128   4.468   1.841   5.490 -0.3656 -0.2786 -0.6379
 4238TIP3    H134129   4.528   1.778   5.530  0.7367  0.1073 -1.6162
 4238TIP3    H234130   4.521   1.919   5.476 -1.4539  0.5506 -0.3455
 4239TIP3   OH234131   1.045   6.009   1.384  0.5666 -0.3543  0.0471
 4239TIP3    H134132   1.015   5.918   1.382 -3.6449  0.8733 -1.9745
 4239TIP3    H234133   1.004   6.047   1.462  0.9089  0.2482 -0.0576
 4240TIP3   OH234134   5.057   1.131   0.636 -0.3526 -0.3373  0.7252
 4240TIP3    H134135   5.107   1.138   0.555 -0.8609 -2.9057  0.1034
 4240TIP3    H234136   5.124   1.118   0.704  0.0028  0.4339  0.5361
 4241TIP3   OH234137   3.468   3.577  13.515 -0.1403 -0.2276  0.5259
 4241TIP3    H134138   3.555   3.613  13.498 -0.2977  0.2098  0.6441
 4241TIP3    H234139   3.408   3.648  13.495 -0.4355 -0.3056  1.1069
 4242TIP3   OH234140   2.651   2.485  16.316  0.0027 -0.6807 -0.0704
 4242TIP3    H134141   2.618   2.401  16.346  0.0673 -1.0766 -1.0518
 4242TIP3    H234142   2.718   2.463  16.251 -0.9465  0.0931 -1.3782
 4243TIP3   OH234143   6.600   1.977  14.889 -0.6225  0.0970  0.1179
 4243TIP3    H134144   6.657   2.053  14.879 -1.2783  0.5882  0.0800
 4243TIP3    H234145   6.659   1.902  14.881 -0.2301  0.5440 -1.8510
 4244TIP3   OH234146   0.001   6.526  13.312  0.3744 -0.2425 -0.4035
 4244TIP3    H134147   0.053   6.548  13.390  0.7427  1.2364 -1.0166
 4244TIP3    H234148   0.066   6.514  13.243 -0.0202  1.5935 -1.1700
 4245TIP3   OH234149   4.739   5.679   3.985  0.1671  0.4121  0.6180
 4245TIP3    H134150   4.674   5.610   3.995 -0.7874  1.3533  1.0173
 4245TIP3    H234151   4.762   5.704   4.075  2.5722 -1.2403  0.5606
 4246TIP3   OH234152   5.363   0.324   5.594 -0.4393 -0.4417 -0.1705
 4246TIP3    H134153   5.376   0.317   5.688  1.4305 -1.1643 -0.4388
 4246TIP3    H234154   5.445   0.360   5.561 -0.7838 -0.8868 -1.5872
 4247TIP3   OH234155   1.241   5.696  10.459  0.4097  0.2573 -1.0078
 4247TIP3    H134156   1.303   5.656  10.399  0.5579  1.5916 -1.7878
 4247TIP3    H234157   1.176   5.740  10.403 -0.8704 -0.5337 -0.2083
 4248TIP3   OH234158   1.442   3.117  10.622 -0.4813 -0.0579  0.0682
 4248TIP3    H134159   1.412   3.027  10.615 -0.5809 -0.1379  1.3843
 4248TIP3    H234160   1.526   3.118  10.577 -0.2638 -0.9184  0.4395
 4249TIP3   OH234161   2.529   5.364   0.967  0.1704 -0.1017  0.9349
 4249TIP3    H134162   2.442   5.365   1.006  0.3179 -2.2031  1.4195
 4249TIP3    H234163   2.560   5.274   0.978  2.2149  0.4658  0.3351
 4250TIP3   OH234164   3.903   6.363  13.124 -0.5409  0.6259  0.5678
 4250TIP3    H134165   3.844   6.438  13.124 -0.1836  0.9096  0.6430
 4250TIP3    H234166   3.975   6.390  13.067 -0.7456  0.0747  0.0447
 4251TIP3   OH234167   5.101   2.743   5.261 -0.3989  0.5225 -0.2527
 4251TIP3    H134168   5.181   2.744   5.209 -0.2733 -2.0828 -0.2867
 4251TIP3    H234169   5.044   2.806   5.219  1.0651  1.2799 -1.2011
 4252TIP3   OH234170   3.249   1.622  15.716  0.4669 -0.3728  0.4137
 4252TIP3    H134171   3.279   1.640  15.806  1.4327  0.1485 -0.0010
 4252TIP3    H234172   3.316   1.661  15.660 -0.2647 -0.4603 -0.5461
 4253TIP3   OH234173   3.507   0.266   2.578  0.0667 -0.0333  0.0366
 4253TIP3    H134174   3.576   0.325   2.610 -1.0754  1.7651 -0.6778
 4253TIP3    H234175   3.426   0.303   2.612 -0.9049  0.1694 -2.3017
 4254TIP3   OH234176   0.192   2.025  13.272  0.2254  0.8526 -0.4645
 4254TIP3    H134177   0.149   1.950  13.231  0.7564  1.7274 -2.7678
 4254TIP3    H234178   0.144   2.101  13.240 -0.7402  1.5528  2.3682
 4255TIP3   OH234179   3.029   4.189   4.565 -0.1472  0.7891 -0.5108
 4255TIP3    H134180   3.112   4.209   4.522  0.7914 -0.0712  0.8008
 4255TIP3    H234181   3.043   4.213   4.657 -0.9843 -0.3173 -0.0692
 4256TIP3   OH234182   3.189   2.683   2.022 -0.1716  0.3897 -0.7905
 4256TIP3    H134183   3.227   2.768   2.002 -0.7896  1.0545  0.7313
 4256TIP3    H234184   3.262   2.622   2.012  1.0185  1.4733  0.8324
 4257TIP3   OH234185   1.921   5.077   3.458 -0.6815  0.4217  0.5168
 4257TIP3    H134186   1.866   5.005   3.490 -1.3983  1.0365  0.7193
 4257TIP3    H234187   1.930   5.060   3.364  0.4608 -0.7611  0.8101
 4258TIP3   OH234188   6.803   1.345  15.652  0.5669 -0.0451  0.0103
 4258TIP3    H134189   6.818   1.292  15.574  0.2233  1.5359 -1.2099
 4258TIP3    H234190   6.863   1.419  15.642 -2.3269  2.4231 -1.0686
 4259TIP3   OH234191   6.376   1.115   5.024 -0.7964 -0.1254 -0.4612
 4259TIP3    H134192   6.466   1.149   5.030 -0.8923 -0.1047  1.3868
 4259TIP3    H234193   6.382   1.046   4.957  0.5218  0.0927 -0.6075
 4260TIP3   OH234194   1.804   2.553  13.325 -0.1327 -0.3440 -0.6482
 4260TIP3    H134195   1.813   2.492  13.251 -0.0464  0.0797 -0.9954
 4260TIP3    H234196   1.729   2.608  13.302 -0.8501 -0.9617  0.1373
 4261TIP3   OH234197   5.716   1.751   3.167 -0.8234 -0.3118 -0.1237
 4261TIP3    H134198   5.748   1.840   3.183 -0.6048 -0.4447  0.1593
 4261TIP3    H234199   5.764   1.722   3.089  1.1059 -1.1956  1.3313
 4262TIP3   OH234200   6.220   3.667   0.312 -0.2142  0.0817  0.4139
 4262TIP3    H134201   6.269   3.726   0.254 -0.0369 -0.3681  0.1017
 4262TIP3    H234202   6.167   3.725   0.366  0.5409  0.5665  0.6489
 4263TIP3   OH234203   0.541   4.933   1.058  0.8136  0.4775  0.1303
 4263TIP3    H134204   0.570   4.848   1.024 -1.2348 -0.7301  1.1931
 4263TIP3    H234205   0.621   4.985   1.063  2.1868 -1.4490 -0.3425
 4264TIP3   OH234206   6.047   6.603  16.889  0.0860 -0.5064 -0.2773
 4264TIP3    H134207   5.996   6.557  16.955 -0.8059  1.1144  0.2011
 4264TIP3    H234208   6.008   6.578  16.806 -1.6232  0.8053  0.0881
 4265TIP3   OH234209   3.648   2.102   4.731 -0.1392  0.6594  0.1805
 4265TIP3    H134210   3.631   2.036   4.798  1.4314  0.0271  0.0111
 4265TIP3    H234211   3.634   2.185   4.775 -0.1608  0.2343  0.9984
 4266TIP3   OH234212   0.425   4.320   0.607 -0.1369  0.0596  0.0380
 4266TIP3    H134213   0.507   4.366   0.590  0.5671 -0.6737  1.2849
 4266TIP3    H234214   0.451   4.229   0.625 -1.2398 -0.2498  0.1830
 4267TIP3   OH234215   5.249   1.921  13.867 -0.2190 -0.1382 -0.3404
 4267TIP3    H134216   5.215   1.832  13.868  0.7997 -0.5279 -0.1936
 4267TIP3    H234217   5.342   1.912  13.883  0.1060  0.8670 -1.5383
 4268TIP3   OH234218   3.806   1.812   2.688 -0.4795 -0.1592  0.3918
 4268TIP3    H134219   3.868   1.762   2.741 -0.3413  1.0025  1.3746
 4268TIP3    H234220   3.741   1.844   2.751 -0.9285  0.3537 -0.3123
 4269TIP3   OH234221   0.170   6.612  14.923 -0.4947  0.2699  0.2465
 4269TIP3    H134222   0.197   6.525  14.891 -0.4394  0.7577 -1.0777
 4269TIP3    H234223   0.203   6.615  15.013  0.2066 -0.7744  0.0472
 4270TIP3   OH234224   4.549   1.235  14.398  0.4839  0.7989  0.1682
 4270TIP3    H134225   4.533   1.190  14.315 -0.0530  0.3696  0.4926
 4270TIP3    H234226   4.463   1.270  14.423  0.8032  1.6332  0.1451
 4271TIP3   OH234227   6.575   3.271   0.075 -0.4657 -0.5980 -0.3607
 4271TIP3    H134228   6.510   3.284   0.006  1.2598  0.5736 -1.8690
 4271TIP3    H234229   6.605   3.360   0.097 -1.0339 -0.9380  2.0044
 4272TIP3   OH234230   3.228   6.751   5.149  0.3356  0.1393  0.7771
 4272TIP3    H134231   3.180   6.677   5.184  2.1190 -1.2905  0.3644
 4272TIP3    H234232   3.317   6.740   5.183  0.9526  1.3848 -0.3170
 4273TIP3   OH234233   0.633   2.173   3.653 -0.5304 -0.0705  0.3311
 4273TIP3    H134234   0.696   2.244   3.668  0.2044 -1.1091  2.7318
 4273TIP3    H234235   0.564   2.189   3.718 -0.4145 -1.4367  0.8207
 4274TIP3   OH234236   4.969   0.410  15.337  0.1414 -0.1088  0.6712
 4274TIP3    H134237   4.929   0.464  15.269  0.2610 -3.1932 -2.1319
 4274TIP3    H234238   4.907   0.412  15.409 -1.5984  0.8505 -0.7693
 4275TIP3   OH234239   4.483   0.119   3.818 -0.2620  0.1097 -0.1455
 4275TIP3    H134240   4.557   0.160   3.863 -0.5860 -1.0451  1.5389
 4275TIP3    H234241   4.416   0.109   3.886 -1.6203  0.2209 -1.3963
 4276TIP3   OH234242   1.907   4.160  15.557 -0.4059  0.1663  0.3072
 4276TIP3    H134243   1.836   4.165  15.621 -2.0018 -0.1388 -1.3920
 4276TIP3    H234244   1.864   4.164  15.472  1.5999 -0.2358 -0.7814
 4277TIP3   OH234245   1.937   1.052   0.735  0.0137  0.3700 -0.7125
 4277TIP3    H134246   2.032   1.054   0.737  0.0620 -0.2305 -1.8014
 4277TIP3    H234247   1.911   1.142   0.753  0.7693  0.4588 -0.0130
 4278TIP3   OH234248   5.154   6.031  15.398  0.1335 -0.2634 -0.0433
 4278TIP3    H134249   5.085   6.015  15.333  0.9056  1.0505 -1.2515
 4278TIP3    H234250   5.107   6.054  15.478 -0.9235  2.5097 -1.3343
 4279TIP3   OH234251   0.416   6.442   3.807 -0.0090  0.5397  0.3202
 4279TIP3    H134252   0.432   6.351   3.834  1.4540  0.0747 -1.8307
 4279TIP3    H234253   0.377   6.434   3.720  0.6133  1.9744 -0.1153
 4280TIP3   OH234254   5.513   3.782  12.681  1.1196 -0.6804  0.5726
 4280TIP3    H134255   5.420   3.786  12.702  0.7685  1.1369 -1.0144
 4280TIP3    H234256   5.516   3.765  12.587  2.1156  3.7150 -0.4450
 4281TIP3   OH234257   2.905   0.948   1.666 -0.5562 -0.1678 -0.0040
 4281TIP3    H134258   2.831   1.009   1.662 -0.8088 -0.2930  1.9493
 4281TIP3    H234259   2.866   0.862   1.648 -0.3457  0.0779 -1.8725
 4282TIP3   OH234260   0.963   6.085  16.948 -0.2330 -0.1903 -0.3060
 4282TIP3    H134261   1.009   6.100  17.031  1.2628 -0.0818 -1.1158
 4282TIP3    H234262   0.870   6.095  16.970  0.1672  0.5881  1.1931
 4283TIP3   OH234263   0.306   4.937  13.873 -0.2237  0.9302  0.2350
 4283TIP3    H134264   0.330   4.854  13.916 -2.6334  1.4176  2.8280
 4283TIP3    H234265   0.211   4.932  13.865 -0.2551  2.8256 -1.0066
 4284TIP3   OH234266   4.971   0.563   0.771 -0.1660  0.2282  0.1320
 4284TIP3    H134267   4.903   0.619   0.734 -1.6561 -0.5811  1.5341
 4284TIP3    H234268   5.008   0.517   0.695 -0.7965  1.0885 -0.7178
 4285TIP3   OH234269   5.645   4.480  12.755  0.1671 -0.0787 -0.2502
 4285TIP3    H134270   5.645   4.546  12.686 -1.1874  0.7155  0.4546
 4285TIP3    H234271   5.736   4.473  12.782  0.2120  2.4851  0.5316
 4286TIP3   OH234272   0.716   4.662   2.432 -0.9767  0.1675 -0.3037
 4286TIP3    H134273   0.700   4.674   2.525 -1.6620  0.8988 -0.5089
 4286TIP3    H234274   0.791   4.602   2.428  0.0296  1.3184  0.7291
 4287TIP3   OH234275   4.339   1.468  11.747 -0.4769  0.6805  0.4653
 4287TIP3    H134276   4.367   1.380  11.723 -0.0831  1.0173 -0.3552
 4287TIP3    H234277   4.243   1.466  11.739 -0.3784  0.7807 -1.2527
 4288TIP3   OH234278   0.768   4.367  15.437 -0.7568  0.1709  0.2004
 4288TIP3    H134279   0.734   4.370  15.526 -1.1267  0.1811  0.0603
 4288TIP3    H234280   0.785   4.458  15.414 -2.4142  0.3608 -0.4011
 4289TIP3   OH234281   6.382   6.591  11.123 -0.2457 -0.4137  0.3523
 4289TIP3    H134282   6.375   6.496  11.109 -2.4841 -0.1360 -1.1275
 4289TIP3    H234283   6.402   6.626  11.036  0.5465  0.4705  0.8836
 4290TIP3   OH234284   4.552   1.441  11.911  0.0778 -0.4333 -0.2006
 4290TIP3    H134285   4.544   1.515  11.971  0.6760 -1.0355  0.6548
 4290TIP3    H234286   4.491   1.461  11.840  0.3812  0.9672 -0.0970
 4291TIP3   OH234287   4.704   4.462  13.180  0.8527  0.2237  0.3848
 4291TIP3    H134288   4.659   4.533  13.227  1.8357 -0.2374  2.0923
 4291TIP3    H234289   4.640   4.391  13.179  0.6097  0.4367  0.4744
 4292TIP3   OH234290   1.493   4.481  12.065  0.4159  0.3098  0.0437
 4292TIP3    H134291   1.531   4.521  12.143 -0.9239  2.0185 -0.1131
 4292TIP3    H234292   1.542   4.518  11.992  0.4095  0.2057 -0.0135
 4293TIP3   OH234293   2.906   2.723   2.075  0.0458  0.3224 -0.0079
 4293TIP3    H134294   2.882   2.735   2.167 -1.7362  0.8408 -0.4835
 4293TIP3    H234295   3.001   2.718   2.074  0.1883  1.8863  1.7074
 4294TIP3   OH234296   2.769   4.948   4.026  0.0553  0.5526 -0.3423
 4294TIP3    H134297   2.722   4.869   4.051 -0.0633  0.2460 -1.5066
 4294TIP3    H234298   2.753   4.958   3.933  1.0242  1.3082 -0.4499
 4295TIP3   OH234299   3.372   2.467  13.504  0.9690 -0.0456  0.3116
 4295TIP3    H134300   3.353   2.491  13.413  1.5401  1.0011  0.4523
 4295TIP3    H234301   3.286   2.459  13.545  0.7123 -0.2375 -0.2543
 4296TIP3   OH234302   1.752   1.350   0.698 -0.1002 -0.1528  0.4274
 4296TIP3    H134303   1.703   1.363   0.617  1.6987 -1.3258 -0.9305
 4296TIP3    H234304   1.686   1.347   0.766 -1.7146  0.3917 -1.0473
 4297TIP3   OH234305   1.212   0.662   3.021  0.6647  0.0544 -0.5119
 4297TIP3    H134306   1.290   0.612   3.045  0.0870  0.1811  1.8557
 4297TIP3    H234307   1.166   0.676   3.103 -2.4750 -0.9785 -1.9519
 4298TIP3   OH234308   1.587   2.591   0.032 -0.5082  0.2404 -0.3114
 4298TIP3    H134309   1.660   2.532   0.013 -0.9079 -1.1458  2.0780
 4298TIP3    H234310   1.618   2.677   0.002  2.0482 -0.3175  0.4428
 4299TIP3   OH234311   2.415   4.002   4.852 -0.2950  0.1215 -0.4500
 4299TIP3    H134312   2.357   4.067   4.814 -1.2119 -0.9316 -0.9278
 4299TIP3    H234313   2.390   3.997   4.944 -0.5258  0.1411 -0.5116
 4300TIP3   OH234314   6.527   1.592   4.196 -0.8544 -0.0986  0.2508
 4300TIP3    H134315   6.603   1.588   4.255 -0.7655  2.8679  0.4539
 4300TIP3    H234316   6.455   1.620   4.252 -1.2008  0.8810 -0.6611
 4301TIP3   OH234317   2.878   3.651  15.866 -0.1306  0.3404 -0.2166
 4301TIP3    H134318   2.912   3.689  15.785  2.4499 -1.2475 -0.0119
 4301TIP3    H234319   2.784   3.645  15.852  0.0257  1.7329 -2.3670
 4302TIP3   OH234320   0.249   2.256   5.651 -0.1138 -0.0742 -0.1222
 4302TIP3    H134321   0.213   2.205   5.578 -0.8328  0.5566 -0.2134
 4302TIP3    H234322   0.280   2.337   5.611  1.9972 -0.8336 -0.1481
 4303TIP3   OH234323   3.477   6.329   1.627 -0.0395 -0.2388  0.1853
 4303TIP3    H134324   3.503   6.266   1.560  2.3926 -0.4779  1.2799
 4303TIP3    H234325   3.451   6.407   1.578  2.0889 -0.2566 -1.0842
 4304TIP3   OH234326   6.499   5.074   1.479 -0.0946 -0.3303 -0.4648
 4304TIP3    H134327   6.453   5.157   1.493  0.8524  0.3136 -1.0207
 4304TIP3    H234328   6.431   5.012   1.456 -0.8789  0.1900  0.3882
 4305TIP3   OH234329   3.669   3.952  12.867  0.5172 -0.1517 -0.2147
 4305TIP3    H134330   3.742   3.904  12.828 -0.4379 -1.6614 -0.2141
 4305TIP3    H234331   3.599   3.947  12.802  0.0593  0.3789  0.2259
 4306TIP3   OH234332   1.269   4.069  14.428  0.3364  0.1267  0.2582
 4306TIP3    H134333   1.312   4.155  14.425  1.6032 -0.4686 -3.0112
 4306TIP3    H234334   1.199   4.076  14.364 -1.2736 -0.5522  1.8639
 4307TIP3   OH234335   2.277   1.302  15.978  0.8707 -0.5534  0.2956
 4307TIP3    H134336   2.246   1.310  15.888 -1.1603  0.5911  1.0326
 4307TIP3    H234337   2.363   1.344  15.978  0.3807  0.5081 -0.8669
 4308TIP3   OH234338   5.814   1.850  12.075 -0.1608 -0.0472 -0.2089
 4308TIP3    H134339   5.831   1.779  12.136 -1.5564 -0.8783 -0.7542
 4308TIP3    H234340   5.897   1.899  12.072  0.3823 -0.8289  1.2155
 4309TIP3   OH234341   0.497   1.596   1.372  0.1308  0.4811  0.7074
 4309TIP3    H134342   0.484   1.503   1.386  1.0882  0.5193  2.0668
 4309TIP3    H234343   0.544   1.602   1.289 -1.9249 -0.0611 -0.5674
 4310TIP3   OH234344   5.128   2.354   2.268 -0.1623 -0.4685 -0.6697
 4310TIP3    H134345   5.047   2.340   2.317 -0.8542  0.8548 -1.3767
 4310TIP3    H234346   5.150   2.446   2.284  0.3392 -0.3907 -1.7301
 4311TIP3   OH234347   1.539   4.450   5.797 -0.4288  0.2177 -0.4089
 4311TIP3    H134348   1.487   4.527   5.821  2.4278  2.2602 -0.1967
 4311TIP3    H234349   1.532   4.444   5.702 -2.0239 -0.3694 -0.2826
 4312TIP3   OH234350   4.783   2.526   2.665  0.0217 -0.5501 -0.2747
 4312TIP3    H134351   4.874   2.534   2.691 -0.6234 -2.0466  2.9636
 4312TIP3    H234352   4.764   2.607   2.617  2.8295  0.0981 -0.4263
 4313TIP3   OH234353   0.143   3.241  15.828  0.1167 -0.3219  0.1672
 4313TIP3    H134354   0.133   3.199  15.743  1.1051 -0.2092 -0.0166
 4313TIP3    H234355   0.236   3.236  15.847  0.8914  4.2192 -1.1897
 4314TIP3   OH234356   5.096   3.887   6.456  0.9472  0.2193  0.5507
 4314TIP3    H134357   5.139   3.804   6.478  1.2758 -0.8399 -3.3281
 4314TIP3    H234358   5.090   3.934   6.539  1.5494 -3.2809  2.7871
 4315TIP3   OH234359   1.745   3.513   1.035  0.4936  0.0399 -0.0180
 4315TIP3    H134360   1.652   3.513   1.058  0.7758 -1.6977  1.2685
 4315TIP3    H234361   1.783   3.580   1.091  0.0968  0.5109 -0.2973
 4316TIP3   OH234362   2.268   5.273  16.747 -0.2252 -0.3315 -0.2160
 4316TIP3    H134363   2.274   5.368  16.735 -2.4494 -0.2660 -1.2959
 4316TIP3    H234364   2.323   5.236  16.678 -0.9150  0.1986 -1.0780
 4317TIP3   OH234365   5.149   4.488   1.933 -0.4008  0.2818 -0.2801
 4317TIP3    H134366   5.132   4.510   1.842 -0.0368  0.0856 -0.3945
 4317TIP3    H234367   5.226   4.539   1.957  0.5745 -0.9951 -0.6051
 4318TIP3   OH234368   2.748   6.164   4.580 -0.7870  0.2907  0.0138
 4318TIP3    H134369   2.839   6.169   4.611 -0.7654 -0.1209  0.0292
 4318TIP3    H234370   2.701   6.123   4.653 -0.7165 -0.7792 -0.5262
 4319TIP3   OH234371   1.042   0.726   0.782 -0.5293  0.5833 -0.5707
 4319TIP3    H134372   0.965   0.760   0.827 -0.0471  1.3815 -0.3269
 4319TIP3    H234373   1.109   0.792   0.797  0.2110 -0.1124 -0.7664
 4320TIP3   OH234374   1.845   5.698  16.471 -0.2634 -0.1138 -0.5800
 4320TIP3    H134375   1.776   5.643  16.509 -1.0730  0.1643 -1.5806
 4320TIP3    H234376   1.858   5.663  16.383  1.8745 -1.0190  0.0389
 4321TIP3   OH234377   6.270   3.328  14.850  0.0250  0.3776  0.0886
 4321TIP3    H134378   6.216   3.341  14.928 -0.0455 -2.3983  0.5783
 4321TIP3    H234379   6.358   3.357  14.877  0.5824 -2.7979  2.1349
 4322TIP3   OH234380   2.439   6.621  14.825  0.0218 -0.4920 -0.8064
 4322TIP3    H134381   2.418   6.528  14.816  0.9651 -0.6238 -1.9510
 4322TIP3    H234382   2.404   6.661  14.745  2.5755 -0.4701 -1.9994
 4323TIP3   OH234383   1.989   4.842   5.833 -0.0608 -0.5047 -0.8963
 4323TIP3    H134384   1.939   4.785   5.891 -0.5540 -0.7505 -1.5524
 4323TIP3    H234385   2.017   4.915   5.888 -0.5869 -0.6984 -0.3709
 4324TIP3   OH234386   4.571   6.749   0.597 -0.6140  0.3610  0.4100
 4324TIP3    H134387   4.481   6.722   0.614 -0.4308  0.4954  1.7676
 4324TIP3    H234388   4.574   6.841   0.624 -0.2622  0.5888 -0.3811
 4325TIP3   OH234389   2.929   5.536  11.088  0.1498  0.0293 -0.0851
 4325TIP3    H134390   2.997   5.507  11.027  1.2749 -0.0777  1.1904
 4325TIP3    H234391   2.849   5.494  11.056  0.3755  1.1724 -2.3741
 4326TIP3   OH234392   5.275   1.455   0.194  0.4820  0.4027  0.4922
 4326TIP3    H134393   5.190   1.425   0.162 -0.5091  2.5273  1.0009
 4326TIP3    H234394   5.274   1.550   0.181  3.3612  0.3619 -0.8092
 4327TIP3   OH234395   0.026   1.593   5.595  0.0586  0.3759 -0.0781
 4327TIP3    H134396  -0.015   1.631   5.518 -1.4077  0.6946  0.8224
 4327TIP3    H234397  -0.021   1.511   5.610 -1.2587  1.3909  1.7461
 4328TIP3   OH234398   3.526   4.882   0.385 -0.0933  0.3286 -0.1424
 4328TIP3    H134399   3.495   4.970   0.365  1.1528  0.2318 -2.8424
 4328TIP3    H234400   3.450   4.825   0.370 -0.3380  0.7153 -0.3727
 4329TIP3   OH234401   1.723   4.530  10.858  0.1499 -0.4274  0.1497
 4329TIP3    H134402   1.702   4.453  10.805 -0.0627  0.7449 -1.5666
 4329TIP3    H234403   1.642   4.581  10.860 -0.0398 -0.7318  2.2097
 4330TIP3   OH234404   2.609   3.157  11.367  0.3086  0.3044 -0.4513
 4330TIP3    H134405   2.588   3.185  11.456 -0.2514  1.2317 -0.8702
 4330TIP3    H234406   2.648   3.070  11.378 -2.0571 -0.6970  0.4916
 4331TIP3   OH234407   6.175   0.210   2.634 -0.2558 -0.3630 -0.7022
 4331TIP3    H134408   6.246   0.233   2.574 -0.2507  0.2049 -0.4861
 4331TIP3    H234409   6.163   0.288   2.688 -3.0048  0.7115 -2.6226
 4332TIP3   OH234410   6.615   4.978  12.011  0.6910  0.0254 -0.3234
 4332TIP3    H134411   6.642   4.919  11.942  1.4637 -0.4254  0.3471
 4332TIP3    H234412   6.583   4.921  12.081  0.2193  0.4567 -0.1817
 4333TIP3   OH234413   3.741   3.984  10.242 -1.1053 -0.7169 -0.4595
 4333TIP3    H134414   3.768   4.003  10.332 -1.5436  1.2517 -0.7149
 4333TIP3    H234415   3.657   3.939  10.251 -1.4929  0.0947  0.1113
 4334TIP3   OH234416   2.463   0.284   2.002 -0.4626  0.2403 -0.0621
 4334TIP3    H134417   2.499   0.203   1.966 -0.9498  0.0100 -0.0429
 4334TIP3    H234418   2.539   0.339   2.020 -0.1950  0.2603 -1.1865
 4335TIP3   OH234419   3.025   4.342  13.019 -0.6325  0.0505  0.4935
 4335TIP3    H134420   3.044   4.432  12.994  2.2993 -0.2976  1.0900
 4335TIP3    H234421   3.038   4.291  12.938 -2.0020  0.1102  0.2234
 4336TIP3   OH234422   5.554   3.436   0.705  0.1129  0.0681 -0.4621
 4336TIP3    H134423   5.607   3.441   0.626  0.9336 -0.6755  0.0210
 4336TIP3    H234424   5.582   3.512   0.757  0.3053 -0.0054 -0.4558
 4337TIP3   OH234425   6.378   5.994  13.523  0.0074  0.6020 -0.3710
 4337TIP3    H134426   6.436   6.020  13.451  1.3783 -2.3835 -0.5005
 4337TIP3    H234427   6.391   5.899  13.530 -3.4137  0.1204  0.9476
 4338TIP3   OH234428   2.144   2.103   5.597  0.7687  0.6963 -0.5500
 4338TIP3    H134429   2.091   2.024   5.612  0.2602  0.7019 -2.1604
 4338TIP3    H234430   2.113   2.165   5.663  2.4278 -0.9557  1.9863
 4339TIP3   OH234431   6.374   1.577   0.474  0.4227  0.0118 -0.1123
 4339TIP3    H134432   6.412   1.593   0.388 -0.5138 -0.2898 -0.5995
 4339TIP3    H234433   6.447   1.582   0.535  0.9688  1.0527 -0.8337
 4340TIP3   OH234434   6.775   5.635  14.491 -0.9950  0.5110 -0.3109
 4340TIP3    H134435   6.756   5.552  14.535  0.5618 -0.3705 -1.2102
 4340TIP3    H234436   6.768   5.701  14.560 -0.7353 -0.5501  0.7657
 4341TIP3   OH234437   3.546   5.369  16.638  0.0541 -0.0886 -0.0499
 4341TIP3    H134438   3.468   5.317  16.655  0.3352 -0.1125  1.3026
 4341TIP3    H234439   3.537   5.446  16.694  0.5755  0.3523 -0.5545
 4342TIP3   OH234440   3.784   3.758   2.108 -0.2429 -0.3228  0.8043
 4342TIP3    H134441   3.742   3.744   2.192 -0.9517  1.5717  0.8280
 4342TIP3    H234442   3.871   3.790   2.129 -0.7409  1.0704  0.8894
 4343TIP3   OH234443   0.164   6.161  16.719 -0.4679 -0.4263  0.4123
 4343TIP3    H134444   0.199   6.072  16.713 -0.8352 -0.5564  0.0785
 4343TIP3    H234445   0.213   6.211  16.654 -0.3345 -0.4114  0.5248
 4344TIP3   OH234446   4.541   3.770   1.179 -0.0196  0.4125 -0.4037
 4344TIP3    H134447   4.634   3.780   1.158  0.0912  2.0385  0.7059
 4344TIP3    H234448   4.539   3.734   1.267 -0.4322  0.8637 -0.2234
 4345TIP3   OH234449   3.838   5.004  10.894  0.3226  0.2644 -0.1163
 4345TIP3    H134450   3.839   4.930  10.833  0.2522  1.5316 -1.7223
 4345TIP3    H234451   3.892   5.071  10.851 -0.2993  1.4564  0.9018
 4346TIP3   OH234452   3.594   2.553   2.096  0.3044 -0.1112 -0.0900
 4346TIP3    H134453   3.619   2.603   2.174  2.1106 -0.7874 -0.1812
 4346TIP3    H234454   3.536   2.484   2.129 -0.3208  0.6394  0.3891
 4347TIP3   OH234455   2.583   4.866   0.955  0.3332  0.2125 -0.1300
 4347TIP3    H134456   2.665   4.826   0.925 -0.3104 -0.9234 -0.4216
 4347TIP3    H234457   2.556   4.922   0.882  0.7943  0.5146 -0.0733
 4348TIP3   OH234458   6.273   5.000   3.972  0.3998 -0.0474 -0.1781
 4348TIP3    H134459   6.328   5.010   3.894 -1.2584  0.2488 -1.3639
 4348TIP3    H234460   6.201   4.944   3.944 -1.8734  2.5009  0.1760
 4349TIP3   OH234461   3.617   4.826  12.945  0.4199 -0.0973 -0.1496
 4349TIP3    H134462   3.709   4.799  12.953  0.1908 -0.6405  0.8400
 4349TIP3    H234463   3.567   4.748  12.967 -0.2699  0.8988  2.0736
 4350TIP3   OH234464   3.836   2.556  14.969 -0.4257  0.2825 -0.3232
 4350TIP3    H134465   3.809   2.467  14.948  0.1517 -0.5619  2.0671
 4350TIP3    H234466   3.767   2.590  15.026 -0.8564  1.5678 -1.5524
 4351TIP3   OH234467   0.404   4.132   4.067  0.4180  0.9784  0.8294
 4351TIP3    H134468   0.335   4.196   4.048  0.4808  0.9202  0.3804
 4351TIP3    H234469   0.484   4.183   4.073  0.7656  0.7929 -1.2708
 4352TIP3   OH234470   4.833   3.489   4.193  0.3498  0.0562  0.5871
 4352TIP3    H134471   4.795   3.532   4.270 -0.5839  2.4070 -1.0869
 4352TIP3    H234472   4.760   3.479   4.132  1.0211 -2.0072  0.0525
 4353TIP3   OH234473   0.686   3.501  10.796  0.4995  0.0533  0.0126
 4353TIP3    H134474   0.641   3.436  10.742  0.7858  0.8068 -1.1630
 4353TIP3    H234475   0.644   3.584  10.774  0.8758  0.4354  0.6886
 4354TIP3   OH234476   6.270   2.628   3.239 -0.2424  0.0917 -0.2837
 4354TIP3    H134477   6.309   2.698   3.291 -0.1449  0.1430 -0.4259
 4354TIP3    H234478   6.343   2.591   3.190 -0.1251 -0.7143  0.4709
 4355TIP3   OH234479   6.153   5.821   3.858  0.0906  0.3764 -0.2761
 4355TIP3    H134480   6.206   5.879   3.803  2.3031 -1.0797  0.1761
 4355TIP3    H234481   6.212   5.794   3.928 -1.5520 -0.6737  0.7642
 4356TIP3   OH234482   6.100   5.264   1.049 -0.4082  0.2134  0.1281
 4356TIP3    H134483   6.097   5.304   0.963 -1.5579 -1.0327 -0.4549
 4356TIP3    H234484   6.192   5.266   1.074 -0.2151  1.5946 -0.6208
 4357TIP3   OH234485   2.199   2.770   0.746 -0.4807 -0.6573 -0.4839
 4357TIP3    H134486   2.274   2.819   0.712 -0.4075  2.2256  3.2300
 4357TIP3    H234487   2.130   2.785   0.681  0.8015  0.6849 -1.6142
 4358TIP3   OH234488   1.076   5.021  16.961  0.2148  0.0781 -0.4294
 4358TIP3    H134489   1.021   5.038  17.036 -0.5046  1.9660 -1.3119
 4358TIP3    H234490   1.080   5.105  16.915  2.3749 -0.4585 -1.3524
 4359TIP3   OH234491   6.083   4.088   0.951  0.2370  0.0706 -0.3168
 4359TIP3    H134492   6.168   4.059   0.918 -0.6050 -1.7475 -1.0021
 4359TIP3    H234493   6.027   4.012   0.944 -0.9746  0.6507  1.9770
 4360TIP3   OH234494   1.470   1.821  12.966 -0.2151 -0.7267  0.6834
 4360TIP3    H134495   1.472   1.900  13.020 -2.4029 -1.3106  1.7110
 4360TIP3    H234496   1.505   1.850  12.881  0.9382  0.8142  1.6199
 4361TIP3   OH234497   1.978   5.362  11.731 -0.1175  0.3873 -0.3786
 4361TIP3    H134498   1.985   5.421  11.656  3.1061  2.0681  1.0681
 4361TIP3    H234499   1.997   5.417  11.807 -2.7094 -1.3599  1.7193
 4362TIP3   OH234500   3.800   1.734  16.787  0.1296  0.0759  0.1783
 4362TIP3    H134501   3.794   1.648  16.827 -0.1377  0.0103 -0.0053
 4362TIP3    H234502   3.811   1.794  16.861  0.6267 -0.1411  0.2913
 4363TIP3   OH234503   3.047   5.202  12.112  0.1085 -0.6027 -0.1155
 4363TIP3    H134504   3.106   5.227  12.042  0.0273 -0.4278 -0.1202
 4363TIP3    H234505   3.005   5.121  12.080  0.3835 -0.7577 -0.0880
 4364TIP3   OH234506   2.570   3.125  14.802  0.0146  0.1534 -0.1234
 4364TIP3    H134507   2.630   3.101  14.732 -0.1141 -0.4101 -0.0409
 4364TIP3    H234508   2.482   3.108  14.767 -0.0357 -0.5326  0.3192
 4365TIP3   OH234509   6.669   5.887  12.289  0.1544 -0.3550  0.3747
 4365TIP3    H134510   6.707   5.970  12.259 -0.6187  0.1306  0.6893
 4365TIP3    H234511   6.731   5.820  12.262  1.0221  0.3760  0.5196
 4366TIP3   OH234512   3.544   2.219   0.496  0.7617 -0.0586 -0.4595
 4366TIP3    H134513   3.461   2.226   0.448 -0.1448 -0.1716  1.0480
 4366TIP3    H234514   3.567   2.126   0.491 -1.4872 -0.9494  2.6970
 4367TIP3   OH234515   3.656   0.685   1.714  0.4305  0.1725  0.3733
 4367TIP3    H134516   3.570   0.719   1.739  0.4989 -0.3428  1.3735
 4367TIP3    H234517   3.714   0.761   1.721  0.3102  0.2073  1.1072
 4368TIP3   OH234518   2.366   0.591  15.085 -0.0483 -0.7012  0.5375
 4368TIP3    H134519   2.418   0.545  15.151  0.9191 -1.8698 -0.9826
 4368TIP3    H234520   2.353   0.527  15.015 -0.6120  0.6495 -0.6473
 4369TIP3   OH234521   0.286   1.226   4.009  0.4222 -0.2878 -0.2427
 4369TIP3    H134522   0.363   1.177   3.981  0.6436  0.0970 -0.3262
 4369TIP3    H234523   0.316   1.278   4.084  0.1848 -0.3066 -0.1333
 4370TIP3   OH234524   3.147   3.151   3.174  0.1143 -0.0232 -0.5353
 4370TIP3    H134525   3.182   3.200   3.100  0.6965 -1.1762 -1.0435
 4370TIP3    H234526   3.076   3.099   3.138 -0.4276  0.3486 -0.0220
 4371TIP3   OH234527   4.121   1.778   6.167  0.3032 -0.2390  0.0179
 4371TIP3    H134528   4.203   1.764   6.120 -0.0290 -2.7324  0.0548
 4371TIP3    H234529   4.142   1.844   6.233  1.3855  1.5870 -2.0108
 4372TIP3   OH234530   5.321   0.725   0.599 -0.2925 -0.2224  0.2972
 4372TIP3    H134531   5.357   0.651   0.549 -0.5637  0.4027 -0.8461
 4372TIP3    H234532   5.317   0.797   0.537 -0.0475  0.7758  1.3880
 4373TIP3   OH234533   2.320   1.127  10.187 -0.1657 -0.5183 -0.4761
 4373TIP3    H134534   2.245   1.084  10.146 -1.2810 -0.7412  1.7017
 4373TIP3    H234535   2.396   1.084  10.148 -1.1494 -0.8815 -2.0973
 4374TIP3   OH234536   2.582   5.634  14.737 -0.5637 -0.0520 -0.1511
 4374TIP3    H134537   2.665   5.639  14.689  1.4137  1.2143  3.1078
 4374TIP3    H234538   2.532   5.710  14.707 -0.5119 -0.6895 -1.9680
 4375TIP3   OH234539   6.068   1.828  14.220 -0.4831 -0.3918 -0.6334
 4375TIP3    H134540   5.987   1.802  14.265  0.2133 -0.7448  0.4434
 4375TIP3    H234541   6.044   1.826  14.127 -1.1754 -2.4744 -0.4681
 4376TIP3   OH234542   4.231   3.452  13.945 -0.0935 -0.2737  0.2859
 4376TIP3    H134543   4.248   3.519  14.011 -1.5191 -0.2385  0.6354
 4376TIP3    H234544   4.288   3.476  13.872  0.5270  0.4399  0.9897
 4377TIP3   OH234545   6.336   0.925   6.441  0.3598  0.4466 -0.0452
 4377TIP3    H134546   6.310   0.850   6.494  0.8943 -0.7368 -1.3792
 4377TIP3    H234547   6.256   0.950   6.394 -0.0102  1.2257  0.9854
 4378TIP3   OH234548   2.361   0.807  13.740  0.0806 -0.0460  0.0714
 4378TIP3    H134549   2.356   0.847  13.653 -0.1033 -0.5008 -0.1310
 4378TIP3    H234550   2.295   0.855  13.792 -1.1721 -1.0174 -0.5618
 4379TIP3   OH234551   2.613   5.023  11.481  0.0153 -0.6520 -0.1212
 4379TIP3    H134552   2.523   5.021  11.448  0.2609  1.8382 -1.1730
 4379TIP3    H234553   2.618   5.105  11.531  1.5868 -0.9387  0.2328
 4380TIP3   OH234554   3.126   0.468   2.937  0.6524 -0.8411 -0.1256
 4380TIP3    H134555   3.111   0.516   3.019  0.4610 -2.1111  0.6059
 4380TIP3    H234556   3.040   0.463   2.896  0.5970 -0.9382  0.0040
 4381TIP3   OH234557   0.351   2.894  16.802  0.1056  0.2996  0.4153
 4381TIP3    H134558   0.379   2.856  16.719  0.3350  0.8353  0.2389
 4381TIP3    H234559   0.326   2.984  16.779  0.8389  0.6716  1.0401
 4382TIP3   OH234560   3.584   6.655  13.204 -0.3374 -0.1198 -0.3872
 4382TIP3    H134561   3.584   6.747  13.232 -2.0351  0.6198 -2.4999
 4382TIP3    H234562   3.526   6.611  13.266 -1.7408  0.8635 -0.9459
 4383TIP3   OH234563   1.779   0.021   4.656 -0.0597  0.2444  0.7800
 4383TIP3    H134564   1.811  -0.060   4.695  0.3523 -0.1146 -0.2660
 4383TIP3    H234565   1.830   0.090   4.697 -1.0338  0.0755  2.3473
 4384TIP3   OH234566   1.960   1.875   3.535 -0.6543  0.1502  0.6016
 4384TIP3    H134567   1.920   1.961   3.520  0.3595  0.5242 -0.0409
 4384TIP3    H234568   2.047   1.882   3.496  0.5845 -0.1922  3.1199
 4385TIP3   OH234569   5.140   1.358   4.364 -0.3625  0.2171  0.4619
 4385TIP3    H134570   5.121   1.355   4.458  0.7363  0.4853  0.6977
 4385TIP3    H234571   5.165   1.449   4.348 -2.2645  0.6377 -0.4560
 4386TIP3   OH234572   4.711   2.048  14.058  0.1792 -0.5933 -0.1297
 4386TIP3    H134573   4.653   2.111  14.016 -0.9969 -0.7075  1.2467
 4386TIP3    H234574   4.678   1.962  14.031  2.8828 -0.7926 -3.5172
 4387TIP3   OH234575   3.283   3.645   5.305  0.1073  0.1773  0.2167
 4387TIP3    H134576   3.336   3.597   5.370  2.5444 -0.0668 -1.7920
 4387TIP3    H234577   3.269   3.581   5.235 -1.1702  0.8866 -0.1949
 4388TIP3   OH234578   1.728   0.393  15.060  0.2522  0.7051  0.7402
 4388TIP3    H134579   1.809   0.356  15.025 -0.2643  0.1497  0.0839
 4388TIP3    H234580   1.715   0.473  15.010  0.1603  0.5527  0.5161
 4389TIP3   OH234581   5.333   1.957  13.440 -0.0432 -0.0929 -0.2114
 4389TIP3    H134582   5.326   1.862  13.430 -2.6032  0.1081 -0.9584
 4389TIP3    H234583   5.289   1.993  13.362 -0.2611  1.6877  0.6798
 4390TIP3   OH234584   2.789   2.507  14.620 -0.1160 -0.4275 -0.0875
 4390TIP3    H134585   2.717   2.568  14.635 -1.0126 -1.8103  1.6065
 4390TIP3    H234586   2.857   2.533  14.683 -0.3522 -0.9306  0.3823
 4391TIP3   OH234587   0.825   3.147  12.614 -0.0183  0.4473 -0.2352
 4391TIP3    H134588   0.743   3.196  12.622  0.1082  0.4745  1.1643
 4391TIP3    H234589   0.893   3.211  12.635  0.0964 -0.4666  2.6278
 4392TIP3   OH234590   1.286   0.780  15.011 -0.1156 -0.2067 -0.3736
 4392TIP3    H134591   1.378   0.789  14.986 -0.0058 -0.6502 -0.1293
 4392TIP3    H234592   1.281   0.695  15.054 -0.5922 -0.0751 -0.1671
 4393TIP3   OH234593   2.698   6.172  14.822  0.2797  0.0178  0.1037
 4393TIP3    H134594   2.729   6.252  14.779 -2.9044  1.2409 -0.1375
 4393TIP3    H234595   2.654   6.123  14.753  0.4834 -1.0144  0.6834
 4394TIP3   OH234596   1.322   3.652  16.072  0.3081  0.4793 -0.3457
 4394TIP3    H134597   1.328   3.747  16.075  2.3337  0.4244  3.8273
 4394TIP3    H234598   1.230   3.634  16.052 -1.0211  3.4369  2.2850
 4395TIP3   OH234599   2.272   4.349  10.562  0.4923  0.1378  0.2596
 4395TIP3    H134600   2.230   4.266  10.539 -0.1947  0.0394  1.7786
 4395TIP3    H234601   2.199   4.405  10.589  1.1611  0.5701  1.1786
 4396TIP3   OH234602   0.167   3.082   4.146  0.2030 -0.5351 -0.0540
 4396TIP3    H134603   0.187   3.032   4.225 -0.3390 -0.4441  0.1400
 4396TIP3    H234604   0.239   3.145   4.139 -1.1011  1.2988  1.8861
 4397TIP3   OH234605   0.845   0.678  11.285  0.2750 -0.1658 -0.6651
 4397TIP3    H134606   0.909   0.721  11.227 -0.3011 -2.4705 -3.2108
 4397TIP3    H234607   0.760   0.701  11.248 -0.1854 -0.6117  0.0908
 4398TIP3   OH234608   6.428   0.806   5.672  0.3341  0.1927  0.3613
 4398TIP3    H134609   6.412   0.891   5.712 -2.0731 -0.4878  1.0240
 4398TIP3    H234610   6.385   0.810   5.587  3.4139  0.8243 -1.2897
 4399TIP3   OH234611   6.115   1.900   2.109 -0.0339  0.1186  0.1387
 4399TIP3    H134612   6.137   1.994   2.110  1.4599 -0.1794 -1.1956
 4399TIP3    H234613   6.024   1.897   2.137 -0.8366  2.1897 -1.9259
 4400TIP3   OH234614   0.105   2.226   3.280  0.8439  0.1769  0.1447
 4400TIP3    H134615   0.065   2.221   3.193  1.4602 -0.8538 -0.0999
 4400TIP3    H234616   0.049   2.286   3.329 -0.0609  0.0230 -0.6743
 4401TIP3   OH234617   1.586   1.179   0.508 -0.1533  0.5321 -0.5368
 4401TIP3    H134618   1.653   1.213   0.448 -0.2030 -1.0499 -1.5239
 4401TIP3    H234619   1.636   1.132   0.575 -0.2593 -1.8385 -2.0259
 4402TIP3   OH234620   0.939   0.763  16.785  0.1978  0.8141 -0.3135
 4402TIP3    H134621   0.933   0.686  16.729 -1.0230  0.7967 -0.2036
 4402TIP3    H234622   1.032   0.781  16.792  0.4453 -0.0372 -1.1813
 4403TIP3   OH234623   0.195   6.078   3.481  0.2167 -0.1294 -0.2850
 4403TIP3    H134624   0.275   6.038   3.446  1.4517  2.2746 -0.3908
 4403TIP3    H234625   0.170   6.022   3.554  1.8091 -1.1110 -0.4450
 4404TIP3   OH234626   6.274   6.309   2.966  0.3986 -0.2426  0.7088
 4404TIP3    H134627   6.186   6.346   2.958  0.7992  0.2658 -2.9645
 4404TIP3    H234628   6.273   6.231   2.910  2.4073  0.1221  0.0613
 4405TIP3   OH234629   0.155   3.343  13.408  0.3903  0.6929  0.8984
 4405TIP3    H134630   0.174   3.266  13.355 -1.4016  0.9659 -0.2395
 4405TIP3    H234631   0.065   3.366  13.384  0.4947  2.4620  2.0647
 4406TIP3   OH234632   0.405   2.980  13.264  0.0589 -0.2127 -0.6419
 4406TIP3    H134633   0.450   2.938  13.338 -0.0984  3.0266  1.5282
 4406TIP3    H234634   0.328   3.022  13.304 -0.8324  0.5141 -2.9510
 4407TIP3   OH234635   5.534   4.783  10.922  0.7579  0.2145  0.0369
 4407TIP3    H134636   5.449   4.779  10.878  2.0878 -3.0666 -2.7342
 4407TIP3    H234637   5.513   4.794  11.015 -2.5498  0.9978 -0.6713
 4408TIP3   OH234638   5.199   2.729   4.509 -0.2310 -0.4112  0.6224
 4408TIP3    H134639   5.126   2.695   4.559 -1.2711 -0.5986 -0.9569
 4408TIP3    H234640   5.171   2.816   4.480 -0.0302 -0.6711 -0.3852
 4409TIP3   OH234641   5.508   0.823  10.452  0.0398 -0.3552  0.4638
 4409TIP3    H134642   5.506   0.740  10.404 -0.5729 -1.9520  3.0465
 4409TIP3    H234643   5.418   0.856  10.446 -0.0888 -0.6598  0.6850
 4410TIP3   OH234644   3.562   1.318   1.701  0.1882  0.1767  0.0573
 4410TIP3    H134645   3.579   1.363   1.784 -2.5006  0.4062  0.5966
 4410TIP3    H234646   3.547   1.227   1.726  1.9403 -0.3203 -0.5659
 4411TIP3   OH234647   2.238   4.046   2.701 -0.6958 -0.3294 -0.1160
 4411TIP3    H134648   2.305   4.045   2.633 -0.2160 -0.9173  0.3491
 4411TIP3    H234649   2.155   4.053   2.653 -0.2722  1.7451 -0.6453
 4412TIP3   OH234650   3.050   0.645   5.903 -1.2535 -0.0157  0.2910
 4412TIP3    H134651   3.124   0.690   5.862 -0.6714  0.6687  1.9998
 4412TIP3    H234652   2.984   0.713   5.917 -1.4582 -0.2455  0.4625
 4413TIP3   OH234653   6.075   3.233   0.812 -0.2515  0.3549 -0.2169
 4413TIP3    H134654   6.019   3.310   0.803 -0.4111  0.1439 -1.1671
 4413TIP3    H234655   6.028   3.164   0.766 -0.6449 -0.6298  1.5713
 4414TIP3   OH234656   1.129   0.145  14.324 -0.0398 -0.3520 -0.0421
 4414TIP3    H134657   1.214   0.126  14.363  2.2366  2.6677 -2.8919
 4414TIP3    H234658   1.123   0.086  14.249  1.1568  1.4653 -1.6579
 4415TIP3   OH234659   4.975   2.602  12.150 -0.4594  0.1503 -0.1255
 4415TIP3    H134660   5.057   2.605  12.101  0.0828 -0.8293  0.6902
 4415TIP3    H234661   4.969   2.511  12.180 -1.5622  0.3543  0.3111
 4416TIP3   OH234662   3.378   0.224  13.080  0.1067  0.5788 -0.4149
 4416TIP3    H134663   3.320   0.248  13.007 -2.7118 -0.9273  1.1711
 4416TIP3    H234664   3.382   0.303  13.134  1.2022  1.3069 -1.5053
 4417TIP3   OH234665   3.145   5.933   3.968 -0.3017  0.3025  0.2788
 4417TIP3    H134666   3.209   5.862   3.969  1.0264  1.3666 -1.6797
 4417TIP3    H234667   3.137   5.959   4.060 -0.0028 -1.6180  0.8938
 4418TIP3   OH234668   6.082   5.137   4.861  0.4163 -0.1973  0.0298
 4418TIP3    H134669   6.005   5.123   4.916  0.0029 -0.8120 -0.6935
 4418TIP3    H234670   6.125   5.051   4.858  0.3366 -0.2106 -0.7523
 4419TIP3   OH234671   0.386   3.855  16.021  0.3032  0.3653 -0.5235
 4419TIP3    H134672   0.323   3.926  16.006 -0.6283 -0.2963  0.1463
 4419TIP3    H234673   0.377   3.799  15.944 -0.5882 -0.1902 -0.0360
 4420TIP3   OH234674   4.413   4.302   1.550  0.2347  0.8067  0.0119
 4420TIP3    H134675   4.400   4.390   1.515 -0.0606  0.8545  0.2446
 4420TIP3    H234676   4.381   4.306   1.640 -1.4706 -0.0009 -0.5098
 4421TIP3   OH234677   3.499   4.540   1.097 -0.2712 -0.3138  0.7205
 4421TIP3    H134678   3.529   4.488   1.172  1.2378  2.2089  2.0184
 4421TIP3    H234679   3.570   4.533   1.033  0.0506  0.3195  1.0026
 4422TIP3   OH234680   5.516   2.681   3.114 -1.1781 -0.1303  0.8949
 4422TIP3    H134681   5.500   2.622   3.187 -1.3659 -0.1067  0.8743
 4422TIP3    H234682   5.583   2.741   3.145 -1.0467 -0.3035  0.9444
 4423TIP3   OH234683   4.076   3.977  11.153  0.3043  0.1542  0.1094
 4423TIP3    H134684   4.128   3.935  11.222  0.9699 -0.4331 -0.7213
 4423TIP3    H234685   4.009   4.026  11.200  1.5646  0.8866  1.2218
 4424TIP3   OH234686   3.944   3.545   4.639  0.0071  0.0456  0.0220
 4424TIP3    H134687   3.978   3.595   4.713 -1.6009 -0.2320  1.0011
 4424TIP3    H234688   3.978   3.589   4.562  0.9039  0.9507  0.9104
 4425TIP3   OH234689   6.304   1.761   2.260 -0.0450  0.5057 -0.2918
 4425TIP3    H134690   6.373   1.818   2.296  0.3800  0.4615 -1.0098
 4425TIP3    H234691   6.264   1.814   2.191 -0.3261  0.3041 -0.2800
 4426TIP3   OH234692   3.765   6.809   3.081 -0.5007 -0.1688 -0.2125
 4426TIP3    H134693   3.690   6.867   3.081 -0.4001 -0.0388 -0.3435
 4426TIP3    H234694   3.728   6.722   3.067 -0.6605 -0.1502  0.0804
 4427TIP3   OH234695   6.196   2.033   5.371  0.3490  0.0327 -0.2604
 4427TIP3    H134696   6.258   1.981   5.423 -0.4496 -0.8489 -0.1617
 4427TIP3    H234697   6.112   2.019   5.414 -0.1802 -0.0301 -1.2904
 4428TIP3   OH234698   3.983   0.117   2.998  0.3605 -0.0347 -0.5565
 4428TIP3    H134699   3.916   0.050   3.013  0.4337  0.1191  0.5586
 4428TIP3    H234700   3.943   0.198   3.032  0.9980  0.1101 -0.1377
 4429TIP3   OH234701   4.926   4.359  11.046  0.1168  0.0669  0.3195
 4429TIP3    H134702   4.895   4.445  11.018  1.2289  0.1844 -0.5906
 4429TIP3    H234703   4.979   4.376  11.123 -1.9054 -0.1252  1.8325
 4430TIP3   OH234704   3.672   3.417   4.875 -0.1492  0.7388  0.2553
 4430TIP3    H134705   3.629   3.439   4.793 -0.9812  0.5540  0.6341
 4430TIP3    H234706   3.646   3.486   4.936  2.4913  2.3150 -0.2592
 4431TIP3   OH234707   5.930   0.351   0.508 -0.4493  0.1421 -0.2971
 4431TIP3    H134708   5.894   0.277   0.557 -0.6343  2.1044  2.7660
 4431TIP3    H234709   5.957   0.414   0.575  1.8209  1.9281 -2.7002
 4432TIP3   OH234710   3.320   2.951   2.251  0.2867 -0.1904 -0.6326
 4432TIP3    H134711   3.275   2.908   2.323  1.2202 -0.2308 -0.0565
 4432TIP3    H234712   3.371   3.021   2.293  0.1577  0.3476 -1.3542
 4433TIP3   OH234713   6.813   6.135  13.043  0.5893 -0.4404  0.2833
 4433TIP3    H134714   6.730   6.123  13.090  0.4268  0.7253  0.3305
 4433TIP3    H234715   6.817   6.062  12.981 -0.3094 -0.7000  0.5189
 4434TIP3   OH234716   5.197   5.302  13.218  0.4280 -0.2366 -0.8347
 4434TIP3    H134717   5.289   5.287  13.238  0.5382 -1.7217 -2.2290
 4434TIP3    H234718   5.186   5.396  13.228  2.1582  0.0077 -0.8535
 4435TIP3   OH234719   3.911   2.578   1.495  0.3024 -0.1540 -0.2184
 4435TIP3    H134720   3.838   2.528   1.458  0.2898  0.6025 -1.2705
 4435TIP3    H234721   3.968   2.594   1.420  1.5436 -0.6899  0.5815
 4436TIP3   OH234722   1.568   3.865  13.391  0.2536 -0.1256 -0.5382
 4436TIP3    H134723   1.659   3.835  13.383  0.4864  0.0581  0.9786
 4436TIP3    H234724   1.516   3.786  13.378  0.8198 -1.1173  2.3231
 4437TIP3   OH234725   5.740   1.176  16.321 -0.2147  0.1932 -0.1204
 4437TIP3    H134726   5.656   1.203  16.285 -0.1210 -0.2864 -0.7316
 4437TIP3    H234727   5.722   1.156  16.413 -0.7609  0.1266 -0.2369
 4438TIP3   OH234728   5.714   0.589  13.624 -0.2200  0.0024  0.3534
 4438TIP3    H134729   5.744   0.564  13.711 -0.3823  0.4673  0.5485
 4438TIP3    H234730   5.750   0.677  13.612 -0.3767  0.0233  0.0365
 4439TIP3   OH234731   3.835   2.551  11.167  0.0786  0.4303  0.2459
 4439TIP3    H134732   3.907   2.581  11.223  0.1333  0.1357  0.3391
 4439TIP3    H234733   3.873   2.481  11.115 -0.0749  0.4449  0.1147
 4440TIP3   OH234734   4.317   3.017   0.331  0.1810 -0.2731  0.4455
 4440TIP3    H134735   4.338   2.925   0.349 -0.5219 -0.7946 -1.1636
 4440TIP3    H234736   4.228   3.029   0.366 -1.1084 -1.2316 -2.2135
 4441TIP3   OH234737   3.868   2.596  12.067 -0.4175 -0.5633  0.2395
 4441TIP3    H134738   3.837   2.513  12.031 -1.0097  0.0383 -0.6741
 4441TIP3    H234739   3.962   2.581  12.083 -0.2377 -1.0353 -1.0931
 4442TIP3   OH234740   6.543   6.219   2.785  0.2896  0.3221  0.4086
 4442TIP3    H134741   6.579   6.307   2.781  0.4932  0.2398  0.4412
 4442TIP3    H234742   6.574   6.183   2.868  1.6638 -0.4050 -0.3805
 4443TIP3   OH234743   0.063   0.211   2.415  0.7318 -0.2775 -0.4412
 4443TIP3    H134744   0.092   0.205   2.324 -4.5656  1.4779 -2.6589
 4443TIP3    H234745   0.038   0.122   2.438 -1.0207 -0.2781 -2.0988
 4444TIP3   OH234746   6.036   5.328  14.414 -0.2336 -0.4465  0.0940
 4444TIP3    H134747   6.119   5.344  14.459 -0.4044 -0.5660  0.4645
 4444TIP3    H234748   6.044   5.238  14.380 -0.3383 -0.5845  0.4258
 4445TIP3   OH234749   6.671   1.148  11.985 -0.5393 -0.0058 -0.3127
 4445TIP3    H134750   6.722   1.206  11.928 -1.7312  1.7504  0.3319
 4445TIP3    H234751   6.737   1.100  12.035  0.5225 -0.9560 -2.4985
 4446TIP3   OH234752   3.458   2.978   0.699 -0.5008  0.3857 -0.5202
 4446TIP3    H134753   3.549   2.958   0.723 -0.8818 -0.6314  0.1215
 4446TIP3    H234754   3.459   2.981   0.604  0.0931 -0.2439 -0.5465
 4447TIP3   OH234755   0.772   6.387   2.048 -0.2202 -0.3951 -0.5547
 4447TIP3    H134756   0.697   6.341   2.085 -0.1923  0.8428  1.1865
 4447TIP3    H234757   0.734   6.439   1.976 -1.0689  0.2942  0.3637
 4448TIP3   OH234758   3.180   2.676   2.313  0.5552 -0.5371  0.0271
 4448TIP3    H134759   3.166   2.689   2.219  1.7147 -0.1105 -0.1155
 4448TIP3    H234760   3.214   2.587   2.320  0.5616 -0.5348  0.0260
 4449TIP3   OH234761   1.076   1.027   1.645 -0.0794  0.3137  0.6233
 4449TIP3    H134762   1.004   1.087   1.622  0.3293  1.1455  1.4599
 4449TIP3    H234763   1.081   1.032   1.740 -1.3804 -2.6415  0.9570
 4450TIP3   OH234764   0.737   0.226  11.067 -0.8876  0.7191  0.1193
 4450TIP3    H134765   0.728   0.308  11.116  2.3366  1.9260 -1.0327
 4450TIP3    H234766   0.700   0.246  10.981 -1.6786  0.3647  0.3709
 4451TIP3   OH234767   4.136   4.999   4.320  0.6357  0.5317  0.0496
 4451TIP3    H134768   4.167   5.066   4.260 -1.1914  3.6829  2.2986
 4451TIP3    H234769   4.167   5.028   4.406  0.2950 -1.9177  1.0758
 4452TIP3   OH234770   0.299   5.490   5.734 -0.2210 -0.2349 -0.1850
 4452TIP3    H134771   0.246   5.552   5.683 -0.5733 -1.7774 -1.8090
 4452TIP3    H234772   0.281   5.405   5.694  0.2481 -1.4096  1.9615
 4453TIP3   OH234773   4.129   0.845   2.919  0.4123 -0.1126  0.3126
 4453TIP3    H134774   4.131   0.928   2.872  0.5853 -0.1340  0.2799
 4453TIP3    H234775   4.176   0.784   2.861 -0.5070 -0.4544 -0.0884
 4454TIP3   OH234776   0.465   0.803   3.404  0.6648  0.1594  0.3449
 4454TIP3    H134777   0.485   0.787   3.312 -0.2700  2.8041 -0.4140
 4454TIP3    H234778   0.446   0.897   3.409 -1.3973 -0.2504  2.8428
 4455TIP3   OH234779   2.195   3.392   3.010 -0.3975 -0.1281  0.2436
 4455TIP3    H134780   2.254   3.448   2.959  0.3989 -1.1949 -0.0603
 4455TIP3    H234781   2.109   3.404   2.969 -0.5096  1.7560  0.9419
 4456TIP3   OH234782   2.347   1.912   5.457 -0.3101  0.4391  0.2500
 4456TIP3    H134783   2.432   1.887   5.422 -0.6258 -0.7358  0.2702
 4456TIP3    H234784   2.344   1.873   5.544 -0.7747  0.6778  0.3454
 4457TIP3   OH234785   1.263   5.698  16.524  0.2726  0.1783  0.1760
 4457TIP3    H134786   1.353   5.713  16.496  0.1037 -0.4098 -0.7382
 4457TIP3    H234787   1.264   5.711  16.619  0.9712  1.8098 -0.0230
 4458TIP3   OH234788   6.008   2.410  15.083 -0.5831  0.5418  0.4623
 4458TIP3    H134789   5.991   2.468  15.008  1.1526  0.5994  0.0581
 4458TIP3    H234790   5.990   2.322  15.050 -1.8570  0.7110  0.6472
 4459TIP3   OH234791   3.498   1.773  16.325  0.8773  1.0074 -0.1877
 4459TIP3    H134792   3.546   1.823  16.260  2.0088  1.2846  0.8496
 4459TIP3    H234793   3.548   1.782  16.406 -0.2041  0.2131  0.6051
 4460TIP3   OH234794   4.168   4.803   3.562  0.7159 -0.0024 -0.1016
 4460TIP3    H134795   4.127   4.743   3.499 -0.1288  1.1942 -0.7434
 4460TIP3    H234796   4.139   4.771   3.647 -2.3875  1.2592 -0.5490
 4461TIP3   OH234797   2.703   4.734   3.147 -0.6316  0.0838  0.2548
 4461TIP3    H134798   2.695   4.644   3.118  0.0665 -0.1631  0.7927
 4461TIP3    H234799   2.738   4.728   3.236  0.3590  0.8946 -0.0544
 4462TIP3   OH234800   0.620   6.522  12.217  0.3339  0.4438 -0.4135
 4462TIP3    H134801   0.694   6.580  12.200  0.6851  0.1457  0.0492
 4462TIP3    H234802   0.553   6.550  12.155  0.9390  0.5221 -1.0551
 4463TIP3   OH234803   0.796   6.035   2.797  0.2308 -0.8032  0.5424
 4463TIP3    H134804   0.819   6.128   2.791 -0.2030 -0.7364 -0.2353
 4463TIP3    H234805   0.860   5.991   2.742 -1.1606 -0.6531 -1.3404
 4464TIP3   OH234806   5.645   1.747  15.924  0.2643  0.2489  0.0128
 4464TIP3    H134807   5.561   1.714  15.890  0.5812  0.6426 -1.2000
 4464TIP3    H234808   5.648   1.839  15.896  1.5816 -0.0525 -0.8949
 4465TIP3   OH234809   1.742   1.567   3.634  0.2064  0.2685  0.3607
 4465TIP3    H134810   1.667   1.532   3.587  1.1107  0.3279 -1.1936
 4465TIP3    H234811   1.808   1.498   3.631  1.9573  1.8477 -2.6163
 4466TIP3   OH234812   5.148   6.378  11.536  0.6617  0.2350  0.2219
 4466TIP3    H134813   5.209   6.383  11.462  0.5950  0.4368  0.1801
 4466TIP3    H234814   5.104   6.463  11.536  0.6856  0.2452  0.5161
 4467TIP3   OH234815   2.089   0.061  16.333 -0.4004  0.2929 -0.0558
 4467TIP3    H134816   2.055   0.003  16.265 -0.2168 -1.0391  0.9604
 4467TIP3    H234817   2.014   0.075  16.392  0.4474 -1.8962  1.6778
 4468TIP3   OH234818   3.031   3.533  11.667 -0.4566 -0.7070  0.2482
 4468TIP3    H134819   3.107   3.573  11.624 -0.7733  1.8916  1.8973
 4468TIP3    H234820   2.997   3.471  11.603 -0.1408  1.9736 -2.7496
 4469TIP3   OH234821   2.732   3.901   0.801  0.7707 -0.5508  0.0791
 4469TIP3    H134822   2.662   3.924   0.739 -0.0202 -2.2640  0.2646
 4469TIP3    H234823   2.686   3.882   0.883  1.5435 -0.9549  0.4255
 4470TIP3   OH234824   2.873   0.092   5.130  0.1924  0.1716  0.6788
 4470TIP3    H134825   2.888   0.009   5.086 -0.4067  0.7344 -0.6368
 4470TIP3    H234826   2.781   0.114   5.110  0.1458  0.8279  1.5466
 4471TIP3   OH234827   2.143   2.831  12.694  0.3293 -0.0735 -0.1990
 4471TIP3    H134828   2.150   2.863  12.604  0.7294  0.2460 -0.0602
 4471TIP3    H234829   2.067   2.773  12.693 -0.7742  1.3158 -0.3314
 4472TIP3   OH234830   6.338   6.583  12.195 -0.1246  0.1451  0.2555
 4472TIP3    H134831   6.396   6.613  12.265 -1.7889  1.3788  1.1635
 4472TIP3    H234832   6.398   6.559  12.124  1.5049  1.8226  0.9661
 4473TIP3   OH234833   6.299   5.804   1.183 -0.2822  0.4547  0.3331
 4473TIP3    H134834   6.242   5.801   1.260  0.9645  1.8031  1.3746
 4473TIP3    H234835   6.285   5.890   1.145  2.0004  1.4209  1.4527
 4474TIP3   OH234836   3.720   4.738  10.382  0.0923  0.2565 -0.1288
 4474TIP3    H134837   3.782   4.752  10.453 -0.0911  1.9410 -0.2444
 4474TIP3    H234838   3.637   4.719  10.425 -0.0018  1.2016  0.1387
 4475TIP3   OH234839   3.874   3.866  11.550 -0.5101 -0.3346 -0.3220
 4475TIP3    H134840   3.959   3.892  11.514 -0.1641  1.3128  1.5040
 4475TIP3    H234841   3.811   3.893  11.483  0.2354  0.9044 -0.5656
 4476TIP3   OH234842   0.155   1.670  14.155  0.0056 -0.4038  0.2220
 4476TIP3    H134843   0.187   1.760  14.148  2.9245 -1.3257  0.5740
 4476TIP3    H234844   0.139   1.657  14.249  0.8973 -0.6342  0.3509
 4477TIP3   OH234845   0.487   5.352   0.005  0.6007  0.0545  0.0469
 4477TIP3    H134846   0.503   5.288  -0.065  1.2245  0.4952 -0.2263
 4477TIP3    H234847   0.427   5.308   0.064  1.2069 -0.8843 -0.0119
 4478TIP3   OH234848   2.837   2.577  16.685  0.4957 -0.0305 -0.3243
 4478TIP3    H134849   2.815   2.616  16.601 -0.9528  1.0887  0.5293
 4478TIP3    H234850   2.820   2.646  16.749  2.9701 -0.3391  0.8131
 4479TIP3   OH234851   0.285   1.555  10.531  0.0910 -0.1457 -0.6507
 4479TIP3    H134852   0.353   1.598  10.583  0.7958 -0.0510 -1.6326
 4479TIP3    H234853   0.330   1.482  10.489 -0.4810 -0.2355 -1.1121
 4480TIP3   OH234854   1.310   4.212  13.617 -0.5329 -0.1473  0.3211
 4480TIP3    H134855   1.344   4.138  13.669 -0.1194  0.2824  0.6716
 4480TIP3    H234856   1.375   4.224  13.548 -0.9942 -0.6039 -0.2025
 4481TIP3   OH234857   0.768   4.741   5.726  0.4409  0.6435 -0.0369
 4481TIP3    H134858   0.691   4.689   5.703 -1.1512  2.4106  1.0681
 4481TIP3    H234859   0.810   4.690   5.795 -0.3393  0.1560  0.0971
 4482TIP3   OH234860   1.704   3.892   2.723 -0.0082 -0.1316 -0.0409
 4482TIP3    H134861   1.694   3.958   2.792 -0.6038 -1.7814  1.5641
 4482TIP3    H234862   1.614   3.875   2.693 -0.2296 -1.9751  1.4197
 4483TIP3   OH234863   5.844   2.408  13.375 -0.1160  0.2107  0.2388
 4483TIP3    H134864   5.752   2.383  13.377  0.2779 -1.3709  0.1599
 4483TIP3    H234865   5.853   2.459  13.294 -1.2946  2.0997  1.2476
 4484TIP3   OH234866   5.379   1.741   5.801  0.0486  0.1301  0.2741
 4484TIP3    H134867   5.292   1.775   5.822  0.0032  1.1532 -1.3673
 4484TIP3    H234868   5.377   1.726   5.706  1.9846  1.2367 -0.0086
 4485TIP3   OH234869   2.980   4.961  13.429  0.2429  0.1318  0.2451
 4485TIP3    H134870   3.054   4.911  13.462  0.7431 -0.3701 -1.4905
 4485TIP3    H234871   2.916   4.894  13.402 -0.1343  0.5073  0.1896
 4486TIP3   OH234872   6.701   3.552  13.962 -0.4530  0.3543  0.3193
 4486TIP3    H134873   6.730   3.461  13.963  0.4490  0.6118  2.0158
 4486TIP3    H234874   6.713   3.581  13.872 -0.3161 -1.0670 -0.1364
 4487TIP3   OH234875   0.025   6.066  10.934 -0.1165  0.0041 -0.1974
 4487TIP3    H134876  -0.070   6.071  10.932 -0.3324 -2.3531  0.3345
 4487TIP3    H234877   0.046   6.048  11.026  0.8594  0.7178 -0.2682
 4488TIP3   OH234878   0.713   1.121  15.280 -0.6050 -0.3603 -0.1973
 4488TIP3    H134879   0.682   1.042  15.324 -2.2299 -0.4655 -1.4358
 4488TIP3    H234880   0.679   1.193  15.333 -1.0070 -0.4965 -0.2640
 4489TIP3   OH234881   0.048   5.642   1.052 -0.2607 -0.2985  0.2597
 4489TIP3    H134882   0.006   5.700   0.988  0.2872 -0.6242 -0.4156
 4489TIP3    H234883   0.083   5.701   1.119  1.0826  0.2680 -0.8779
 4490TIP3   OH234884   1.071   0.018  14.025 -0.3281  0.0886  0.3955
 4490TIP3    H134885   1.117  -0.052  14.073  0.0106  0.4192  0.5568
 4490TIP3    H234886   1.006  -0.029  13.972 -1.1045 -0.2342  1.6065
 4491TIP3   OH234887   4.487   1.933   0.374 -1.0111  0.2178  0.1216
 4491TIP3    H134888   4.427   1.962   0.443 -0.1847 -0.2449  1.0612
 4491TIP3    H234889   4.555   1.885   0.420  0.4711  1.3196 -0.8387
 4492TIP3   OH234890   0.426   5.649   5.007  0.3163  0.1812 -0.3011
 4492TIP3    H134891   0.362   5.706   4.966 -1.6085 -1.0914  0.8176
 4492TIP3    H234892   0.447   5.692   5.090 -0.7129 -0.4191  0.2876
 4493TIP3   OH234893   2.807   0.951  16.896  0.1389  0.1004  0.0116
 4493TIP3    H134894   2.832   0.903  16.817  2.3492 -3.2600  2.4494
 4493TIP3    H234895   2.858   1.032  16.891  2.6610 -1.3855 -0.7084
 4494TIP3   OH234896   3.167   3.441  12.012 -0.2112  0.8742 -0.0985
 4494TIP3    H134897   3.101   3.406  12.071 -0.4392  1.9595  0.3211
 4494TIP3    H234898   3.117   3.487  11.945 -0.0541 -1.8163 -2.2292
 4495TIP3   OH234899   1.923   0.843  11.340 -0.1889 -0.3145  0.0406
 4495TIP3    H134900   1.972   0.782  11.394  2.1879  2.9288  1.8581
 4495TIP3    H234901   1.831   0.820  11.356  0.5310 -2.2690  1.9480
 4496TIP3   OH234902   3.874   5.545  11.250 -0.0220  0.0351  0.6154
 4496TIP3    H134903   3.866   5.596  11.331  1.3139  0.7189  0.3461
 4496TIP3    H234904   3.940   5.591  11.199  0.8378 -1.6679  0.1165
 4497TIP3   OH234905   4.932   0.987   2.563 -0.0853 -0.5712  0.4700
 4497TIP3    H134906   4.938   1.036   2.481 -0.6171 -1.5479 -0.1706
 4497TIP3    H234907   4.903   1.052   2.627 -1.4578 -0.1708 -0.5137
 4498TIP3   OH234908   5.088   1.347  13.890  0.7108  0.0308 -0.3872
 4498TIP3    H134909   5.023   1.401  13.845 -1.3035 -0.4939  1.6927
 4498TIP3    H234910   5.126   1.405  13.956 -1.2558 -0.8463  1.6634
 4499TIP3   OH234911   6.177   2.504   3.693 -0.1813 -0.1321 -0.6732
 4499TIP3    H134912   6.186   2.465   3.607 -1.3868 -0.8928 -0.4720
 4499TIP3    H234913   6.089   2.481   3.721  0.1704  0.1498  0.7448
 4500TIP3   OH234914   4.878   0.552   3.973  0.2362  0.1619  0.1639
 4500TIP3    H134915   4.805   0.596   3.929  0.6911 -0.1431 -0.9053
 4500TIP3    H234916   4.952   0.560   3.913  0.8611 -0.3069  0.8482
 4501TIP3   OH234917   5.942   0.947  13.259  0.2521 -0.7975  0.0763
 4501TIP3    H134918   6.009   0.987  13.315  1.0098 -0.0827 -1.2928
 4501TIP3    H234919   5.958   0.853  13.267  0.4191 -0.7047  0.9641
 4502TIP3   OH234920   1.071   6.812  14.959  0.4210 -0.4734  0.8668
 4502TIP3    H134921   1.145   6.789  14.902 -0.9243  0.3977 -1.3490
 4502TIP3    H234922   1.096   6.895  14.999  0.7692 -0.3539  0.4031
 4503TIP3   OH234923   3.292   4.424   0.139  0.4003 -0.1998 -0.0730
 4503TIP3    H134924   3.205   4.417   0.101  0.1285  1.1162  0.2710
 4503TIP3    H234925   3.289   4.369   0.217 -0.2939  0.2569  0.2294
 4504TIP3   OH234926   0.476   2.858  12.813 -0.0595  0.3524  0.5771
 4504TIP3    H134927   0.561   2.901  12.822  0.7117 -1.1135  0.5221
 4504TIP3    H234928   0.424   2.892  12.885  1.1736 -0.0868  1.7179
 4505TIP3   OH234929   5.236   6.750  13.270  0.2592 -0.2189  0.0982
 4505TIP3    H134930   5.257   6.656  13.273  0.0487 -0.3382 -1.3743
 4505TIP3    H234931   5.321   6.793  13.260  0.3279 -0.2648  0.4605
 4506TIP3   OH234932   4.828   5.612   2.115 -0.3416  0.3845  0.1792
 4506TIP3    H134933   4.766   5.642   2.181  0.1333  0.4957  0.5825
 4506TIP3    H234934   4.909   5.658   2.135  0.3337 -0.9508  0.6512
 4507TIP3   OH234935   5.570   4.817   1.548 -0.5777 -0.1865  0.4250
 4507TIP3    H134936   5.542   4.764   1.474  0.8147 -1.3240  0.6770
 4507TIP3    H234937   5.665   4.807   1.550 -0.6146 -0.4567  2.5712
 4508TIP3   OH234938   5.596   4.082   3.704  0.8098  0.0162 -0.3196
 4508TIP3    H134939   5.606   3.987   3.708  0.5762 -0.0271 -0.6772
 4508TIP3    H234940   5.670   4.112   3.650 -0.4931 -0.2331 -2.3636
 4509TIP3   OH234941   5.081   6.050  11.061 -0.2361  0.2145 -0.4148
 4509TIP3    H134942   5.093   6.035  10.967 -1.3165  2.6468 -1.0144
 4509TIP3    H234943   5.003   5.999  11.083 -0.1823 -0.1031 -0.9380
 4510TIP3   OH234944   3.889   1.108  14.240 -0.1040 -0.0977 -0.0133
 4510TIP3    H134945   3.908   1.092  14.332 -1.4818  0.3453  0.3697
 4510TIP3    H234946   3.878   1.203  14.234 -3.6161 -0.3408  0.1758
 4511TIP3   OH234947   0.697   5.059   0.758 -0.4211  0.2587  0.3412
 4511TIP3    H134948   0.694   5.133   0.818 -0.9035  1.1900 -0.7824
 4511TIP3    H234949   0.764   5.082   0.694 -0.0554 -0.6134  0.3959
 4512TIP3   OH234950   0.134   1.103   1.779 -0.2587 -0.0000  0.2297
 4512TIP3    H134951   0.148   1.139   1.866 -1.1655  2.0124 -0.4037
 4512TIP3    H234952   0.051   1.141   1.750 -0.1448 -0.8846 -1.3935
 4513TIP3   OH234953   5.015   1.470   0.045  0.0148 -0.2397 -0.4348
 4513TIP3    H134954   4.975   1.384   0.032 -1.1379  0.3005 -0.5882
 4513TIP3    H234955   4.947   1.522   0.087  0.1646  1.0236 -1.6737
 4514TIP3   OH234956   3.099   1.277  10.665  0.1728 -0.1268 -0.8071
 4514TIP3    H134957   3.104   1.371  10.648 -1.6239  0.0844 -0.3377
 4514TIP3    H234958   3.136   1.237  10.587 -0.9342  0.9502 -1.9352
 4515TIP3   OH234959   6.285   4.755  14.819 -0.0039 -0.1180  0.2137
 4515TIP3    H134960   6.305   4.762  14.913 -0.3710 -0.3812  0.3099
 4515TIP3    H234961   6.371   4.749  14.777  0.1451 -0.8092  0.5988
 4516TIP3   OH234962   0.352   2.098   4.071 -0.0557 -0.7360 -0.0895
 4516TIP3    H134963   0.437   2.072   4.034 -1.3227 -2.0850 -2.2762
 4516TIP3    H234964   0.338   2.036   4.143  0.8568 -0.4001  0.3994
 4517TIP3   OH234965   3.526   1.495  11.710  0.1328  0.2499  0.2912
 4517TIP3    H134966   3.544   1.525  11.621 -0.4307 -1.1840 -0.3377
 4517TIP3    H234967   3.432   1.510  11.722  0.3492  1.1444  0.9370
 4518TIP3   OH234968   1.226   2.562  11.855 -0.2336 -0.0143 -0.2717
 4518TIP3    H134969   1.234   2.546  11.949  0.2967  0.1972 -0.2751
 4518TIP3    H234970   1.279   2.493  11.814 -0.6599 -0.2544 -0.4314
 4519TIP3   OH234971   5.864   4.063   0.295 -0.1810  0.1369  0.4410
 4519TIP3    H134972   5.868   4.116   0.374 -0.1093  1.4272 -0.3959
 4519TIP3    H234973   5.905   4.117   0.228 -1.8254 -0.1608 -0.8725
 4520TIP3   OH234974   0.108   6.590  11.932 -1.1736  0.7484  0.7031
 4520TIP3    H134975   0.201   6.573  11.948 -0.9495  2.5516  1.4977
 4520TIP3    H234976   0.101   6.593  11.836 -0.3477  0.9801  0.6387
 4521TIP3   OH234977   2.956   2.897   2.652 -0.2394  0.1263 -0.1086
 4521TIP3    H134978   2.872   2.942   2.659  0.3140  1.1253  0.3726
 4521TIP3    H234979   2.978   2.872   2.742 -0.6881 -1.4099 -0.4137
 4522TIP3   OH234980   2.536   5.710   3.244 -0.3509 -0.0954  0.0925
 4522TIP3    H134981   2.586   5.642   3.199  0.8210  0.5755  0.3396
 4522TIP3    H234982   2.531   5.681   3.335 -1.4868 -0.7454 -0.1456
 4523TIP3   OH234983   5.403   0.860   1.730  0.0801  0.1091 -0.4329
 4523TIP3    H134984   5.416   0.805   1.652 -0.0910  0.1287 -0.4755
 4523TIP3    H234985   5.422   0.803   1.804 -0.4020 -0.0979 -0.4647
 4524TIP3   OH234986   6.727   0.550  11.893  0.2780 -0.3039 -0.3501
 4524TIP3    H134987   6.690   0.462  11.902  0.0148 -0.0036  2.6131
 4524TIP3    H234988   6.662   0.599  11.844 -0.7314 -1.1707  0.0902
 4525TIP3   OH234989   1.155   2.494   5.379  0.6513  0.5387  0.3972
 4525TIP3    H134990   1.106   2.431   5.326 -0.1986  1.2521  0.3341
 4525TIP3    H234991   1.217   2.439   5.428 -0.2969 -0.3927  0.5944
 4526TIP3   OH234992   1.040   6.063   3.035 -0.3159  0.3938  0.2572
 4526TIP3    H134993   0.998   6.135   3.082  1.3942  1.2961  0.5014
 4526TIP3    H234994   1.047   6.096   2.945  0.1555  0.3868  0.2923
 4527TIP3   OH234995   5.748   0.872  13.602 -0.0653 -0.3247 -0.0744
 4527TIP3    H134996   5.823   0.924  13.576 -0.8837  0.6032 -0.6664
 4527TIP3    H234997   5.730   0.899  13.692  0.7882 -1.1621  0.3721
 4528TIP3   OH234998   2.494   3.306   3.318 -0.2955 -0.0838 -0.7625
 4528TIP3    H134999   2.513   3.215   3.295  0.3140 -0.2034  0.1471
 4528TIP3    H235000   2.487   3.352   3.234 -1.1099 -1.0609 -1.2451
 4529TIP3   OH235001   1.327   3.122   2.287 -0.3101  1.4461  0.0823
 4529TIP3    H135002   1.401   3.182   2.297  1.6117 -0.9914  1.5593
 4529TIP3    H235003   1.344   3.051   2.349 -1.7219 -1.3071 -2.3826
 4530TIP3   OH235004   1.473   3.051  13.779 -0.4674 -0.0763  0.4753
 4530TIP3    H135005   1.515   3.126  13.737  0.0385  0.1438  1.3586
 4530TIP3    H235006   1.380   3.061  13.757 -0.2526  0.1765 -0.3591
 4531TIP3   OH235007   0.672   2.847  16.751 -0.0744 -0.0447  1.1179
 4531TIP3    H135008   0.669   2.832  16.846  0.4829  0.5509  1.2320
 4531TIP3    H235009   0.735   2.918  16.740 -0.7699  0.4647  0.3660
 4532TIP3   OH235010   1.217   4.703   1.952 -0.6705  0.1844  0.2980
 4532TIP3    H135011   1.271   4.629   1.923  0.2931  0.6868  0.7450
 4532TIP3    H235012   1.130   4.684   1.918 -0.8184 -1.9225  1.6367
 4533TIP3   OH235013   4.821   5.561  14.526 -0.3680 -0.1604 -0.0012
 4533TIP3    H135014   4.841   5.584  14.616  0.9366 -1.9685  0.2255
 4533TIP3    H235015   4.742   5.507  14.531 -0.8088  0.4796 -0.0407
 4534TIP3   OH235016   1.820   1.546  12.560 -0.6135  0.2092 -0.1496
 4534TIP3    H135017   1.819   1.639  12.582 -3.0979  0.4547 -1.0639
 4534TIP3    H235018   1.845   1.502  12.642 -0.5632  1.6023  0.6008
 4535TIP3   OH235019   1.705   2.012  16.521 -0.3906 -0.3255  0.0714
 4535TIP3    H135020   1.734   2.068  16.448  0.5676 -0.7670  0.0890
 4535TIP3    H235021   1.680   1.930  16.479  0.0884 -0.5539  0.2187
 4536TIP3   OH235022   5.011   1.904   2.328  0.0066 -0.1872  0.6598
 4536TIP3    H135023   5.029   1.956   2.406 -1.0335  0.8732  0.2294
 4536TIP3    H235024   4.917   1.887   2.331  0.1934 -1.3891  0.3703
 4537TIP3   OH235025   0.323   0.608   2.587  0.1186 -0.4225 -0.0043
 4537TIP3    H135026   0.248   0.549   2.572 -0.4669  0.2478  0.2248
 4537TIP3    H235027   0.398   0.560   2.551 -0.4086 -1.1287 -0.2030
 4538TIP3   OH235028   5.568   1.125  15.244 -0.2670 -0.2708  0.0956
 4538TIP3    H135029   5.659   1.133  15.273 -0.3521  2.8588 -0.1222
 4538TIP3    H235030   5.516   1.150  15.321 -0.7994  0.6457 -0.5441
 4539TIP3   OH235031   5.635   3.820   2.873  0.4601 -0.3056 -0.0944
 4539TIP3    H135032   5.550   3.849   2.841 -0.0301 -3.1260 -1.6414
 4539TIP3    H235033   5.687   3.805   2.794  1.5895 -0.9486  0.7412
 4540TIP3   OH235034   4.367   0.370  11.112 -0.6901 -0.4180  0.5413
 4540TIP3    H135035   4.315   0.441  11.073 -0.1924 -0.1124  0.4168
 4540TIP3    H235036   4.448   0.413  11.139 -0.2160 -1.0208  0.1008
 4541TIP3   OH235037   1.172   4.782  16.863 -0.4652 -0.1070 -0.2090
 4541TIP3    H135038   1.147   4.857  16.917 -0.9043  0.4449 -1.1569
 4541TIP3    H235039   1.248   4.745  16.908  1.1170  2.1859 -0.8408
 4542TIP3   OH235040   0.424   3.350  16.302  0.1249  0.3104 -0.2845
 4542TIP3    H135041   0.418   3.436  16.260 -1.5137  0.8653  1.0107
 4542TIP3    H235042   0.334   3.320  16.308  0.5261 -0.6993  0.9160
 4543TIP3   OH235043   1.723   5.350  16.823  0.8586  0.0388 -0.4613
 4543TIP3    H135044   1.775   5.400  16.886 -1.6206  0.6123  1.3035
 4543TIP3    H235045   1.698   5.414  16.756  0.0726  0.5025  0.2541
 4544TIP3   OH235046   0.102   0.857   3.587 -0.4736 -0.2784 -0.4790
 4544TIP3    H135047   0.145   0.903   3.658  1.3233 -3.4561  0.6936
 4544TIP3    H235048   0.151   0.883   3.508  0.2059  0.1296  0.0686
 4545TIP3   OH235049   3.737   5.626  12.418 -0.1169 -0.0206  0.0516
 4545TIP3    H135050   3.648   5.625  12.453  0.4056  1.1415  1.5057
 4545TIP3    H235051   3.784   5.562  12.472  0.2445  0.3853  0.2248
 4546TIP3   OH235052   0.716   2.985  12.842  0.0983 -0.2166 -0.5595
 4546TIP3    H135053   0.777   3.021  12.778  0.2353 -0.3149 -0.4821
 4546TIP3    H235054   0.763   2.988  12.925  0.8255 -2.3752 -0.8511
 4547TIP3   OH235055   4.524   2.943  13.701  0.4818 -0.1665 -0.2986
 4547TIP3    H135056   4.477   2.949  13.784  0.6799 -0.2334 -0.1822
 4547TIP3    H235057   4.475   2.878  13.650  0.4638 -0.2566 -0.1669
 4548TIP3   OH235058   4.949   0.607  15.883 -0.0859 -0.5452  0.3631
 4548TIP3    H135059   5.009   0.657  15.828 -0.1034 -0.4619  0.4205
 4548TIP3    H235060   4.874   0.665  15.896 -1.1081 -1.3982 -1.4186
 4549TIP3   OH235061   4.358   5.881   1.789 -0.2712  0.4789 -0.3546
 4549TIP3    H135062   4.449   5.881   1.761 -0.1209  0.1847  0.1269
 4549TIP3    H235063   4.336   5.974   1.798 -0.1599  0.5636 -0.9041
 4550TIP3   OH235064   5.143   5.403   1.612 -0.0733 -0.1707  0.2438
 4550TIP3    H135065   5.125   5.326   1.666 -0.3862  0.1757  0.6373
 4550TIP3    H235066   5.211   5.450   1.659 -2.2129  1.5691  1.8280
 4551TIP3   OH235067   3.254   5.933  14.258 -0.8651 -0.1467 -0.1833
 4551TIP3    H135068   3.201   6.013  14.259  0.0468  0.4659 -0.1286
 4551TIP3    H235069   3.331   5.954  14.309 -0.4468 -0.9609 -0.4558
 4552TIP3   OH235070   2.457   2.051  13.375  0.2079  0.1291 -0.2834
 4552TIP3    H135071   2.511   2.106  13.431 -0.5849  0.9855 -0.3220
 4552TIP3    H235072   2.412   1.992  13.435  1.2147 -0.6328 -0.2596
 4553TIP3   OH235073   5.432   0.921  11.619  0.2762 -0.0540 -0.0734
 4553TIP3    H135074   5.368   0.990  11.603 -1.8244 -1.5995  1.1007
 4553TIP3    H235075   5.462   0.894  11.532 -1.5002 -0.0026 -0.7324
 4554TIP3   OH235076   2.750   1.886  14.905  0.2291  0.0122 -0.3216
 4554TIP3    H135077   2.678   1.944  14.931 -0.1554  0.2100 -1.7458
 4554TIP3    H235078   2.812   1.890  14.978  0.3100  2.3856 -0.4493
 4555TIP3   OH235079   0.622   4.680   2.036 -0.2614  0.1704 -0.7510
 4555TIP3    H135080   0.716   4.666   2.050  0.1890  2.6389 -0.7915
 4555TIP3    H235081   0.618   4.744   1.965 -2.0370 -0.5375 -1.3349
 4556TIP3   OH235082   5.317   5.316   3.308  0.0961  0.1294 -0.3654
 4556TIP3    H135083   5.267   5.239   3.280 -0.5111  0.0496  0.8796
 4556TIP3    H235084   5.280   5.388   3.258 -0.9954  0.0008  0.2223
 4557TIP3   OH235085   0.845   5.523   1.418  0.0224 -0.2225 -0.0517
 4557TIP3    H135086   0.837   5.564   1.332  0.4945  0.9163  0.4362
 4557TIP3    H235087   0.930   5.480   1.416 -0.3095 -0.8852 -0.4248
 4558TIP3   OH235088   5.324   5.569   1.708 -0.3422 -0.0433  0.0323
 4558TIP3    H135089   5.391   5.567   1.777 -2.7364 -1.6125  2.5456
 4558TIP3    H235090   5.285   5.656   1.714  0.7809  0.5249 -0.7559
 4559TIP3   OH235091   2.637   1.407   2.834 -0.7767 -0.1218  0.1167
 4559TIP3    H135092   2.590   1.326   2.857  0.5444 -1.0547 -0.3856
 4559TIP3    H235093   2.726   1.392   2.865  0.1337  0.0989 -2.2107
 4560TIP3   OH235094   2.749   1.984   4.443 -0.0950  0.5156 -0.2352
 4560TIP3    H135095   2.666   1.962   4.400 -0.2787  0.3952  0.1807
 4560TIP3    H235096   2.725   2.040   4.516  0.1428  0.0792  0.1845
 4561TIP3   OH235097   6.725   4.796   3.556  0.7307  0.2722 -0.4051
 4561TIP3    H135098   6.658   4.849   3.512  0.0072 -0.0754  0.2499
 4561TIP3    H235099   6.716   4.818   3.649 -1.4176 -2.8301  0.2971
 4562TIP3   OH235100   1.830   5.894   3.399 -0.4094 -0.4391  0.2956
 4562TIP3    H135101   1.759   5.853   3.448 -1.9734 -0.0058 -1.4733
 4562TIP3    H235102   1.879   5.821   3.361 -0.2493 -0.7296  1.0459
 4563TIP3   OH235103   5.473   4.997   3.978 -0.3297  0.1559 -0.6604
 4563TIP3    H135104   5.496   4.945   4.055  0.5200  0.5259 -0.6600
 4563TIP3    H235105   5.543   5.062   3.971  0.6569 -1.0550 -2.8618
 4564TIP3   OH235106   3.602   4.515  10.704 -0.1758  0.0478 -0.2614
 4564TIP3    H135107   3.550   4.467  10.768  1.4265  0.9382  1.8114
 4564TIP3    H235108   3.662   4.448  10.668 -0.2118 -0.1889  0.1170
 4565TIP3   OH235109   4.361   4.466   3.598  0.6012 -0.0556 -0.3912
 4565TIP3    H135110   4.288   4.526   3.582  1.9307  1.6903 -0.2062
 4565TIP3    H235111   4.343   4.391   3.540 -0.7587  0.8252 -1.1704
 4566TIP3   OH235112   5.758   3.155   2.088 -0.1135 -0.1568  0.2386
 4566TIP3    H135113   5.712   3.121   2.164 -2.0888  2.1462  0.2005
 4566TIP3    H235114   5.844   3.180   2.121 -1.6596  2.9228  2.4483
 4567TIP3   OH235115   3.285   4.758  13.189  0.2857 -0.0431  0.0731
 4567TIP3    H135116   3.264   4.711  13.108 -0.1921 -0.7163  0.5735
 4567TIP3    H235117   3.239   4.841  13.181 -0.0979 -0.2754 -0.1661
 4568TIP3   OH235118   4.951   1.518  15.434 -0.0713 -0.3220  0.1294
 4568TIP3    H135119   4.967   1.458  15.362  2.3776  0.1299  0.2331
 4568TIP3    H235120   5.025   1.506  15.493 -0.7415  1.1056  1.3316
 4569TIP3   OH235121   1.662   0.204   1.849  0.3910 -0.4847  0.4860
 4569TIP3    H135122   1.727   0.207   1.920  0.1113  0.5986  0.7080
 4569TIP3    H235123   1.697   0.262   1.782 -0.6721  0.6571  0.8982
 4570TIP3   OH235124   2.385   2.698   2.685 -0.1112 -0.4280  0.1288
 4570TIP3    H135125   2.329   2.717   2.760 -3.9466 -1.9659 -2.0797
 4570TIP3    H235126   2.355   2.756   2.616  1.9544 -0.4510 -0.8828
 4571TIP3   OH235127   4.280   4.388  13.659 -0.2342 -0.2846 -0.0944
 4571TIP3    H135128   4.359   4.409  13.707 -0.9988  1.1230  0.5979
 4571TIP3    H235129   4.225   4.341  13.721 -0.8797  0.7999  0.1820
 4572TIP3   OH235130   3.080   1.207  12.602 -0.3642  0.0796 -0.3244
 4572TIP3    H135131   2.994   1.237  12.572 -0.3824 -0.9218 -1.3083
 4572TIP3    H235132   3.061   1.154  12.679 -0.6728 -0.5188 -0.8110
 4573TIP3   OH235133   1.132   6.404  14.644 -0.1006  0.0688  0.5155
 4573TIP3    H135134   1.151   6.474  14.582 -0.3812  0.8251  1.2548
 4573TIP3    H235135   1.047   6.428  14.681 -1.0339 -1.5749 -0.4524
 4574TIP3   OH235136   3.407   1.495   0.449  0.1298  0.3489  0.5713
 4574TIP3    H135137   3.401   1.579   0.403  0.8439 -1.0476 -2.2741
 4574TIP3    H235138   3.497   1.491   0.482  0.0050  0.7855  0.9841
 4575TIP3   OH235139   0.708   1.048  14.385 -0.2785  0.0173  0.1968
 4575TIP3    H135140   0.687   1.136  14.352  1.9226  1.0369  1.2751
 4575TIP3    H235141   0.663   1.043  14.469  1.1470  0.9353  1.0457
 4576TIP3   OH235142   4.353   3.748   1.827 -0.1036 -0.4782 -0.0331
 4576TIP3    H135143   4.258   3.744   1.816 -0.0889 -0.8167 -0.0555
 4576TIP3    H235144   4.365   3.798   1.908 -0.3183 -0.7954  0.1996
 4577TIP3   OH235145   4.030   2.169   0.280 -0.3697  0.3841  0.1513
 4577TIP3    H135146   4.119   2.138   0.261 -0.4806 -0.2487  0.6079
 4577TIP3    H235147   3.990   2.097   0.330 -0.7917  1.0887  0.8588
 4578TIP3   OH235148   3.049   4.371   0.051  0.5525  0.1200  0.6278
 4578TIP3    H135149   3.076   4.300  -0.007 -2.1297  0.0994 -0.6876
 4578TIP3    H235150   2.996   4.328   0.118 -0.7515  0.7977  0.0543
 4579TIP3   OH235151   3.061   6.179   0.452  0.7729 -0.3612 -0.2533
 4579TIP3    H135152   3.028   6.090   0.440  1.0043 -0.6446  1.0658
 4579TIP3    H235153   2.984   6.229   0.478  1.2095 -0.9215  2.3501
 4580TIP3   OH235154   4.808   2.782  12.303 -0.0196  0.4088  0.0926
 4580TIP3    H135155   4.855   2.711  12.258  0.6191  0.4031  0.7556
 4580TIP3    H235156   4.877   2.839  12.337 -0.4768  0.3024  1.2417
 4581TIP3   OH235157   1.319   2.282   0.119  0.1323 -0.4022 -0.1067
 4581TIP3    H135158   1.402   2.238   0.137 -0.1767 -1.3076 -0.8583
 4581TIP3    H235159   1.258   2.212   0.095 -0.8908  0.2389  0.5451
 4582TIP3   OH235160   4.068   0.477   1.495 -0.3001 -0.0431 -0.4089
 4582TIP3    H135161   4.132   0.434   1.552 -2.0033 -0.0723  1.5726
 4582TIP3    H235162   4.024   0.405   1.450 -1.5002 -0.2936  1.0990
 4583TIP3   OH235163   5.832   1.908   3.847 -0.2693  0.1963  0.0305
 4583TIP3    H135164   5.769   1.893   3.918  0.0811 -2.8278 -0.1481
 4583TIP3    H235165   5.913   1.933   3.891 -1.4505  4.2574  0.2561
 4584TIP3   OH235166   0.189   0.211   9.940 -0.2506 -0.2740 -0.2595
 4584TIP3    H135167   0.283   0.210   9.960 -0.6391 -0.1208  1.7933
 4584TIP3    H235168   0.156   0.291   9.982 -1.4112 -0.6405 -0.4363
 4585TIP3   OH235169   0.076   3.983  11.967  0.8549 -0.1481  0.3131
 4585TIP3    H135170   0.102   3.976  11.876  2.9569 -1.0536  0.9333
 4585TIP3    H235171   0.042   3.896  11.989  0.8124 -0.0773  0.5355
 4586TIP3   OH235172   5.925   4.884  15.585 -0.2711  0.2238 -0.5862
 4586TIP3    H135173   6.002   4.910  15.636 -1.2957  2.4851 -0.0705
 4586TIP3    H235174   5.915   4.954  15.520 -0.9068 -0.9337 -1.7827
 4587TIP3   OH235175   0.901   0.115   3.409  0.1039  0.4006  0.7440
 4587TIP3    H135176   0.952   0.105   3.489 -1.9728 -0.7154  2.0382
 4587TIP3    H235177   0.818   0.152   3.438 -0.3658  0.8240 -1.0386
 4588TIP3   OH235178   2.659   4.744   0.685 -0.4359 -0.8397 -1.0649
 4588TIP3    H135179   2.735   4.783   0.641 -1.0116 -0.2222 -1.5284
 4588TIP3    H235180   2.585   4.795   0.654 -0.9069 -0.6264  0.3519
 4589TIP3   OH235181   6.768   0.376   4.043  0.4589 -1.1253 -0.1230
 4589TIP3    H135182   6.747   0.299   4.095  1.3574 -0.7922  0.7696
 4589TIP3    H235183   6.780   0.446   4.107  1.5338 -0.6868 -0.7674
 4590TIP3   OH235184   1.834   0.593   0.077 -0.4153  0.0824  0.4448
 4590TIP3    H135185   1.866   0.562   0.162 -0.6581  1.0673  0.9113
 4590TIP3    H235186   1.740   0.604   0.089 -0.1961  2.0117  0.6504
 4591TIP3   OH235187   0.878   0.493   2.275  0.0757  0.4510  0.5393
 4591TIP3    H135188   0.915   0.462   2.358 -2.9450 -0.9120  1.5205
 4591TIP3    H235189   0.889   0.420   2.215 -0.2437  0.3677  0.5816
 4592TIP3   OH235190   4.326   1.100  15.151 -0.2528  0.4123  0.2026
 4592TIP3    H135191   4.303   1.047  15.227 -1.5549 -1.1788 -1.2100
 4592TIP3    H235192   4.395   1.159  15.182  2.2008 -2.8899  1.6431
 4593TIP3   OH235193   1.620   1.551  13.905  0.1786 -0.3115  0.3590
 4593TIP3    H135194   1.618   1.557  14.001  0.1848 -0.2257  0.3537
 4593TIP3    H235195   1.636   1.459  13.887  0.7974 -0.2226  0.4479
 4594TIP3   OH235196   6.213   2.420  14.046 -0.1563 -0.0183 -0.1579
 4594TIP3    H135197   6.227   2.337  14.000 -0.0817  1.1974 -2.4814
 4594TIP3    H235198   6.301   2.455  14.060 -0.0992 -0.9353  2.1345
 4595TIP3   OH235199   5.206   3.960   3.347  0.1286 -0.2154 -0.7715
 4595TIP3    H135200   5.298   3.936   3.340  0.3052 -0.1830  0.9448
 4595TIP3    H235201   5.200   4.045   3.303  0.7459 -0.5855 -1.5867
 4596TIP3   OH235202   2.442   5.268   1.247  0.0678  0.9040 -0.2376
 4596TIP3    H135203   2.390   5.348   1.251  1.2504  1.6715  0.3009
 4596TIP3    H235204   2.531   5.296   1.269  0.9933 -0.1258 -2.3631
 4597TIP3   OH235205   5.339   2.967  15.857  0.1648  0.3482 -0.4805
 4597TIP3    H135206   5.311   2.991  15.946 -0.7323 -0.1398 -0.6247
 4597TIP3    H235207   5.427   3.005  15.849 -0.1807  1.3485  0.2169
 4598TIP3   OH235208   2.856   1.436  14.166 -0.0188 -0.1097  0.2797
 4598TIP3    H135209   2.900   1.408  14.085 -0.7204 -0.4263  0.0050
 4598TIP3    H235210   2.875   1.530  14.172 -1.2367  0.2639 -1.0835
 4599TIP3   OH235211   0.006   6.329   4.103  0.0623  0.1958 -0.4534
 4599TIP3    H135212  -0.019   6.359   4.191 -1.2313 -0.4391 -0.5717
 4599TIP3    H235213   0.045   6.243   4.118 -0.0790  0.1257 -0.4824
 4600TIP3   OH235214   2.308   2.803  13.758  0.0703 -0.5111 -0.2346
 4600TIP3    H135215   2.364   2.748  13.814  1.8385  1.2540 -0.1818
 4600TIP3    H235216   2.301   2.754  13.676  2.7406 -0.2890 -0.6795
 4601TIP3   OH235217   6.274   3.610  12.865 -0.2919 -0.2075 -0.7784
 4601TIP3    H135218   6.192   3.627  12.912  1.1804  1.8313  1.2962
 4601TIP3    H235219   6.291   3.517  12.878 -0.9994 -0.1227  1.0269
 4602TIP3   OH235220   0.860   5.354   3.086  0.2127 -0.3071  0.6002
 4602TIP3    H135221   0.784   5.301   3.107 -0.4770  0.3406 -0.1668
 4602TIP3    H235222   0.846   5.436   3.132 -0.1549  0.2488 -0.4570
 4603TIP3   OH235223   4.545   1.109   3.127  0.6015 -0.4426  0.1381
 4603TIP3    H135224   4.605   1.036   3.142  0.1808 -1.4591 -2.4178
 4603TIP3    H235225   4.537   1.153   3.211  3.9943 -0.9425  0.8474
 4604TIP3   OH235226   6.395   5.963  11.492 -0.1124  0.3180 -0.1650
 4604TIP3    H135227   6.468   5.917  11.534 -0.1299 -0.4654 -0.9452
 4604TIP3    H235228   6.360   6.021  11.560  0.0797 -0.6388  0.7812
 4605TIP3   OH235229   3.087   6.330   3.828  0.2248 -0.6943 -0.5009
 4605TIP3    H135230   3.032   6.272   3.775 -0.7651 -1.2874  1.1068
 4605TIP3    H235231   3.176   6.296   3.816  0.1193 -0.4626 -2.1863
 4606TIP3   OH235232   0.679   6.634  16.793  0.0024  0.1028  0.0147
 4606TIP3    H135233   0.720   6.640  16.879 -0.4920  0.0967  0.2565
 4606TIP3    H235234   0.598   6.585  16.809  0.0667 -0.1832 -0.5134
 4607TIP3   OH235235   0.621   2.763  11.307 -0.9110 -0.8527 -0.3483
 4607TIP3    H135236   0.677   2.706  11.254 -0.3587 -0.6891  0.0528
 4607TIP3    H235237   0.627   2.849  11.265  0.0626 -0.5633  0.3542
 4608TIP3   OH235238   5.622   3.973  11.544 -0.4888  0.0743  0.5888
 4608TIP3    H135239   5.608   4.044  11.607  1.5858 -0.3346  1.6265
 4608TIP3    H235240   5.620   4.016  11.458 -1.6053  0.9588  1.0417
 4609TIP3   OH235241   2.477   4.601  12.090 -0.5733  0.1657 -0.0508
 4609TIP3    H135242   2.409   4.651  12.135  1.1316  0.0141  2.9320
 4609TIP3    H235243   2.489   4.523  12.144  0.7881 -0.6594 -1.4642
 4610TIP3   OH235244   4.531   6.645  16.750  0.8066  0.5735 -0.2219
 4610TIP3    H135245   4.561   6.555  16.761  0.9772  0.9516  3.8515
 4610TIP3    H235246   4.452   6.651  16.804  0.4186  2.7421 -0.9213
 4611TIP3   OH235247   1.650   3.533   5.331  0.4558 -0.5119 -0.3335
 4611TIP3    H135248   1.587   3.541   5.402  0.5184  0.2197 -0.3528
 4611TIP3    H235249   1.735   3.525   5.375  0.7084  1.7586 -0.2995
 4612TIP3   OH235250   0.255   2.292  16.314  0.3820 -0.1148  0.4051
 4612TIP3    H135251   0.211   2.210  16.290 -0.6327  1.0801 -2.2168
 4612TIP3    H235252   0.194   2.361  16.286  2.1846  1.5527  0.3875
 4613TIP3   OH235253   1.008   6.696   3.334  0.5446  0.3095  0.2441
 4613TIP3    H135254   0.927   6.684   3.284  0.4696  1.0958  0.1575
 4613TIP3    H235255   0.988   6.770   3.393  1.2419  0.5954  0.1279
 4614TIP3   OH235256   4.407   1.035  14.889  0.0901 -0.1300 -0.2056
 4614TIP3    H135257   4.343   1.044  14.960  0.8175 -1.3649  0.6554
 4614TIP3    H235258   4.491   1.051  14.932  0.4201  0.7804 -1.1700
 4615TIP3   OH235259   4.136   4.440  13.077  0.6778  0.5963  0.2261
 4615TIP3    H135260   4.065   4.385  13.109 -1.9024  1.9199 -2.6414
 4615TIP3    H235261   4.144   4.510  13.141 -1.4785  1.0388  0.0626
 4616TIP3   OH235262   3.741   3.766  13.770 -0.4776  0.5000 -0.0693
 4616TIP3    H135263   3.708   3.687  13.813  0.7016 -0.6800 -1.2466
 4616TIP3    H235264   3.666   3.802  13.724 -1.1419  0.3608  0.8754
 4617TIP3   OH235265   5.108   5.852   0.332 -0.4114  0.6037  0.0754
 4617TIP3    H135266   5.017   5.823   0.339 -1.4638  3.6355  0.3808
 4617TIP3    H235267   5.109   5.910   0.255  1.3621  0.3914 -0.1131
 4618TIP3   OH235268   2.592   5.977   3.182 -0.4497  0.8129  0.1475
 4618TIP3    H135269   2.571   5.884   3.185 -1.5167  1.0344  0.0124
 4618TIP3    H235270   2.651   5.991   3.255  2.2475 -0.5520 -1.6139
 4619TIP3   OH235271   0.603   4.350  14.065  0.1293  0.0453 -0.2208
 4619TIP3    H135272   0.658   4.335  14.142 -1.2008 -2.1122  0.3755
 4619TIP3    H235273   0.616   4.273  14.010 -1.4890 -0.0427 -0.5356
 4620TIP3   OH235274   5.048   1.460  11.754  0.0639  0.1145  0.1844
 4620TIP3    H135275   4.967   1.421  11.785  0.5146 -2.5865 -1.7251
 4620TIP3    H235276   5.114   1.433  11.818  0.2881 -2.0412 -0.8842
 4621TIP3   OH235277   1.550   4.300  13.428 -0.9604 -0.4158  0.6453
 4621TIP3    H135278   1.637   4.296  13.386 -1.1266  1.0940  0.0958
 4621TIP3    H235279   1.492   4.260  13.364 -0.7611 -0.8554  0.7374
 4622TIP3   OH235280   4.363   6.314   0.654 -0.0422 -0.5056 -0.0228
 4622TIP3    H135281   4.455   6.337   0.641 -0.0521 -0.2828  0.2848
 4622TIP3    H235282   4.335   6.280   0.569 -0.1751  1.1501 -0.6890
 4623TIP3   OH235283   2.672   6.359   0.011 -0.1776  0.0062 -0.0059
 4623TIP3    H135284   2.698   6.446  -0.017  2.1462 -0.6525 -0.1293
 4623TIP3    H235285   2.582   6.369   0.042 -0.3315  2.1994 -0.9944
 4624TIP3   OH235286   2.794   3.970  11.516  0.4397  0.1110 -0.7881
 4624TIP3    H135287   2.884   3.996  11.494  0.3421  1.3858  0.2036
 4624TIP3    H235288   2.742   4.049  11.502 -0.4443 -0.4644 -0.8279
 4625TIP3   OH235289   2.450   3.540  13.284 -0.1011 -0.7420 -0.3917
 4625TIP3    H135290   2.474   3.486  13.359  0.5054 -1.7608 -1.2978
 4625TIP3    H235291   2.526   3.536  13.226  0.1614  1.5095 -0.2731
 4626TIP3   OH235292   3.775   0.710   2.510  1.2677  0.0544  0.0677
 4626TIP3    H135293   3.761   0.615   2.514 -3.0862  0.4803 -0.6093
 4626TIP3    H235294   3.740   0.743   2.592  0.2983  1.2050 -0.7670
 4627TIP3   OH235295   1.418   2.054   4.325  0.4115  0.7144  0.3082
 4627TIP3    H135296   1.419   1.993   4.251 -0.5773  0.3939  0.5344
 4627TIP3    H235297   1.473   2.012   4.391 -0.4532 -0.0931  0.5548
 4628TIP3   OH235298   1.953   5.064  16.589 -0.2091 -0.0372  0.2653
 4628TIP3    H135299   2.026   5.126  16.599 -1.8094  1.9723  0.0055
 4628TIP3    H235300   1.935   5.063  16.495  0.8436 -2.2390  0.0343
 4629TIP3   OH235301   6.616   2.211   4.472  0.0564 -0.0304 -0.3969
 4629TIP3    H135302   6.625   2.237   4.381 -0.4150 -0.5821 -0.6061
 4629TIP3    H235303   6.617   2.116   4.470 -1.1667 -0.0745  0.0340
 4630TIP3   OH235304   4.851   0.013  14.361 -0.5496  0.3699  0.8519
 4630TIP3    H135305   4.760  -0.015  14.367 -0.5516  0.3256  0.6446
 4630TIP3    H235306   4.868   0.058  14.444 -1.0033  1.0856  0.5744
 4631TIP3   OH235307   4.353   3.539  13.717 -0.8120  0.3751 -0.2227
 4631TIP3    H135308   4.348   3.633  13.697 -0.3645  0.2547 -0.9059
 4631TIP3    H235309   4.406   3.502  13.646  1.5669  0.0701  1.5759
 4632TIP3   OH235310   3.182   1.162   1.864  0.2606 -0.8488  0.1937
 4632TIP3    H135311   3.206   1.252   1.887 -0.9821 -0.6673  0.8526
 4632TIP3    H235312   3.262   1.112   1.878  0.0657 -0.4783  3.4909
 4633TIP3   OH235313   0.035   3.357  10.844 -0.3156 -0.2175 -0.4581
 4633TIP3    H135314   0.064   3.338  10.933 -0.1228  1.7067 -0.0579
 4633TIP3    H235315   0.023   3.271  10.804 -1.3881 -1.1747  1.7191
 4634TIP3   OH235316   3.938   5.164  12.700  0.0191 -0.3833  0.3902
 4634TIP3    H135317   3.896   5.085  12.736 -0.5809 -1.7802 -2.9115
 4634TIP3    H235318   3.872   5.200  12.640  1.6551  0.4316 -0.9979
 4635TIP3   OH235319   3.857   6.421  15.256  0.5050  0.6289  0.3532
 4635TIP3    H135320   3.877   6.480  15.184  0.5398  0.5235  0.2758
 4635TIP3    H235321   3.799   6.355  15.217 -0.4619  1.2542  0.7078
 4636TIP3   OH235322   2.159   5.375  11.395  0.3666  0.1360 -1.0808
 4636TIP3    H135323   2.081   5.416  11.434 -0.1045 -0.2020 -1.6429
 4636TIP3    H235324   2.211   5.345  11.470 -0.6737 -0.7878 -0.6896
 4637TIP3   OH235325   4.657   5.480  10.300  0.3914 -0.2984 -0.0160
 4637TIP3    H135326   4.607   5.478  10.381  0.2147 -0.1471 -0.1219
 4637TIP3    H235327   4.732   5.423  10.317  0.0990 -0.6562  0.0817
 4638TIP3   OH235328   3.535   3.857   2.116 -0.3000  0.7015 -0.6306
 4638TIP3    H135329   3.624   3.844   2.150  0.3455  1.6501 -1.8631
 4638TIP3    H235330   3.479   3.815   2.181  1.1439 -1.8333 -0.8794
 4639TIP3   OH235331   3.565   3.121  13.453  0.6876  0.1774  0.1217
 4639TIP3    H135332   3.559   3.044  13.509  1.9099  0.3408  0.4963
 4639TIP3    H235333   3.620   3.094  13.380 -0.4818  0.1197 -0.7616
 4640TIP3   OH235334   2.640   6.368   1.206  0.1348  0.5837  0.3793
 4640TIP3    H135335   2.729   6.334   1.197  0.6845  1.9992  0.1268
 4640TIP3    H235336   2.585   6.307   1.157  0.9588 -0.3061  0.5423
 4641TIP3   OH235337   5.452   6.285   1.592  0.1329  0.3687  0.3191
 4641TIP3    H135338   5.499   6.224   1.535 -0.5595  0.9798 -0.9521
 4641TIP3    H235339   5.360   6.259   1.584  0.0034  0.6087  0.9883
 4642TIP3   OH235340   2.774   5.884  13.475 -0.2290  0.4209  0.1148
 4642TIP3    H135341   2.718   5.806  13.481  0.4647 -0.0790  0.2670
 4642TIP3    H235342   2.738   5.934  13.402 -1.8149  0.8902  1.1848
 4643TIP3   OH235343   5.398   0.867  15.477 -0.2712 -0.1866  0.5990
 4643TIP3    H135344   5.343   0.790  15.491 -1.5432  0.5270 -0.2610
 4643TIP3    H235345   5.465   0.861  15.545 -1.3184 -1.1817  1.5936
 4644TIP3   OH235346   1.659   2.100  10.946  0.0233  0.1485 -0.1757
 4644TIP3    H135347   1.724   2.029  10.942  0.1262  0.2513 -0.3430
 4644TIP3    H235348   1.679   2.145  11.029  0.9781  0.9440 -0.8084
 4645TIP3   OH235349   5.799   4.457  10.857  0.2861  0.1781  0.2875
 4645TIP3    H135350   5.827   4.541  10.893 -0.6049  1.1838 -1.2524
 4645TIP3    H235351   5.881   4.413  10.832  0.7129  1.0426  0.1423
 4646TIP3   OH235352   6.739   3.561  15.184  0.2307 -0.5901 -0.0426
 4646TIP3    H135353   6.826   3.601  15.196  0.0435 -0.4182  0.8196
 4646TIP3    H235354   6.710   3.540  15.272  0.3066 -2.6612 -0.4639
 4647TIP3   OH235355   3.011   1.537  11.674  0.0505  0.5442  0.1741
 4647TIP3    H135356   3.004   1.510  11.765 -0.1395 -1.5371 -0.4047
 4647TIP3    H235357   3.028   1.631  11.678  0.6264  0.3987  2.3534
 4648TIP3   OH235358   5.538   4.324   0.974  0.8653  0.3710 -0.0414
 4648TIP3    H135359   5.471   4.364   0.919  1.6364  1.4880 -0.1893
 4648TIP3    H235360   5.489   4.283   1.046  0.0105  0.8613 -0.3345
 4649TIP3   OH235361   0.405   4.405  10.901 -0.6986 -0.4027  0.5187
 4649TIP3    H135362   0.312   4.390  10.886 -0.3748 -1.5883 -0.4649
 4649TIP3    H235363   0.408   4.475  10.966 -2.2733  1.9243 -1.7015
 4650TIP3   OH235364   2.101   2.536  13.059  0.1836  0.6852  0.5513
 4650TIP3    H135365   2.089   2.620  13.103 -1.3396 -0.1859  1.8960
 4650TIP3    H235366   2.050   2.474  13.111  0.2904 -0.8638 -1.0934
 4651TIP3   OH235367   1.110   0.258   3.826  0.0014 -0.3881  0.0765
 4651TIP3    H135368   1.129   0.285   3.736  0.7808 -1.8036 -0.2269
 4651TIP3    H235369   1.185   0.204   3.851 -1.4671 -2.3706  0.5370
 4652TIP3   OH235370   0.488   2.614   0.094 -0.0965 -0.0206  0.3376
 4652TIP3    H135371   0.515   2.674   0.026  1.5860 -0.5697  0.4855
 4652TIP3    H235372   0.535   2.533   0.076 -0.7005 -0.6316  1.3484
 4653TIP3   OH235373   2.632   5.590  15.029 -0.1602  0.0886  0.0296
 4653TIP3    H135374   2.727   5.590  15.039 -0.3538  0.0749  2.4403
 4653TIP3    H235375   2.618   5.582  14.935  2.2133 -0.0509 -0.3763
 4654TIP3   OH235376   0.071   6.329   0.136  1.2535  0.7504 -0.4120
 4654TIP3    H135377   0.023   6.334   0.053  1.1836  3.1822 -0.3011
 4654TIP3    H235378   0.029   6.395   0.191  2.8720  0.8800  0.7223
 4655TIP3   OH235379   2.951   4.794   5.370 -0.3755 -0.1363 -0.0632
 4655TIP3    H135380   2.898   4.730   5.417  0.6539 -0.9426  0.0443
 4655TIP3    H235381   2.995   4.844   5.439  0.2538 -0.5666 -0.1353
 4656TIP3   OH235382   4.258   5.674   2.445 -0.1527 -0.0318 -0.2645
 4656TIP3    H135383   4.278   5.762   2.478  1.0875 -0.8544  1.3261
 4656TIP3    H235384   4.207   5.634   2.515  2.6990 -1.9015  0.9343
 4657TIP3   OH235385   5.652   3.606  13.197 -0.3634  0.3144  0.2905
 4657TIP3    H135386   5.628   3.603  13.104 -0.4337  1.9890  0.2164
 4657TIP3    H235387   5.642   3.516  13.227 -0.8682 -0.1653 -1.1939
 4658TIP3   OH235388   3.811   0.232   4.962 -0.0902 -0.1918 -0.7712
 4658TIP3    H135389   3.868   0.309   4.966 -0.1996 -0.0335 -1.8751
 4658TIP3    H235390   3.782   0.219   5.052 -0.5701  1.4511 -0.6553
 4659TIP3   OH235391   1.322   3.563   3.941 -0.9179 -0.1100  0.4619
 4659TIP3    H135392   1.319   3.593   3.850 -0.3951 -0.1243  0.4370
 4659TIP3    H235393   1.359   3.637   3.989 -1.2272 -0.0889  0.6705
 4660TIP3   OH235394   5.536   6.211   2.209 -0.3859  0.0631 -0.5340
 4660TIP3    H135395   5.472   6.270   2.250  0.6580  0.8656 -0.0387
 4660TIP3    H235396   5.566   6.259   2.132  2.0863  1.2350  1.0211
 4661TIP3   OH235397   4.458   2.571   1.432 -0.1488 -0.3492  0.0515
 4661TIP3    H135398   4.381   2.539   1.480 -1.5540  0.4265 -1.6064
 4661TIP3    H235399   4.468   2.662   1.460  2.0824 -1.2345  2.5459
 4662TIP3   OH235400   5.105   1.987  16.074 -0.0526 -0.2489 -1.0192
 4662TIP3    H135401   5.115   1.910  16.130 -1.2181  0.0342 -0.3915
 4662TIP3    H235402   5.011   2.007  16.077 -0.0506  0.1559 -2.5761
 4663TIP3   OH235403   3.275   3.154   0.216  0.1215 -0.2127 -0.2597
 4663TIP3    H135404   3.253   3.213   0.144  0.9603  0.0396 -0.3163
 4663TIP3    H235405   3.224   3.075   0.198  1.6523 -0.8618 -2.1548
 4664TIP3   OH235406   4.970   4.055  15.758 -0.0783  0.7365  0.3070
 4664TIP3    H135407   4.976   4.142  15.797  2.2449  1.0169 -0.5094
 4664TIP3    H235408   4.949   3.997  15.831  0.0828  1.7638  1.1864
 4665TIP3   OH235409   5.139   2.731  15.923 -0.8055  0.4350  0.0618
 4665TIP3    H135410   5.233   2.728  15.939 -0.7708 -0.0206 -0.2204
 4665TIP3    H235411   5.125   2.677  15.845 -0.9832  2.5011 -1.4254
 4666TIP3   OH235412   0.084   1.112   0.104  0.6050 -0.2845 -0.1763
 4666TIP3    H135413   0.179   1.105   0.095  0.9307 -0.2656  2.5731
 4666TIP3    H235414   0.051   1.028   0.071  1.8925 -1.7155  1.9535
 4667TIP3   OH235415   1.792   0.039   5.738 -0.0057 -0.1409 -0.2315
 4667TIP3    H135416   1.799   0.000   5.825  0.0362 -1.0758 -0.6363
 4667TIP3    H235417   1.763   0.129   5.754  0.2108 -0.2314  0.7518
 4668TIP3   OH235418   1.773   5.806   2.009  0.3462 -0.0381 -0.1244
 4668TIP3    H135419   1.767   5.897   1.980  2.7462  0.2504  0.0563
 4668TIP3    H235420   1.802   5.758   1.932 -1.3725 -0.7664 -0.3463
 4669TIP3   OH235421   0.717   0.001   1.651 -1.1077 -0.2217 -0.0365
 4669TIP3    H135422   0.798   0.049   1.671 -1.6106  0.7329 -0.2522
 4669TIP3    H235423   0.713  -0.068   1.717 -0.3007 -0.0626  0.1910
 4670TIP3   OH235424   2.876   1.340   2.949 -0.0236  0.0870 -0.2800
 4670TIP3    H135425   2.889   1.282   2.873 -0.0255 -0.8455  0.4124
 4670TIP3    H235426   2.954   1.395   2.950  0.7657 -0.9957 -0.0257
 4671TIP3   OH235427   3.699   4.899  16.795 -0.8506  0.4108  0.1133
 4671TIP3    H135428   3.675   4.863  16.880 -0.8625  1.3019  0.5003
 4671TIP3    H235429   3.794   4.900  16.795 -0.6750 -3.3524 -1.5233
 4672TIP3   OH235430   2.328   3.007  12.829 -0.6550 -0.0732 -0.3594
 4672TIP3    H135431   2.262   2.938  12.824 -1.1731  0.3660  0.2073
 4672TIP3    H235432   2.334   3.041  12.739  0.0027 -1.1949 -0.7606
 4673TIP3   OH235433   1.175   0.372  11.527 -0.1550  0.3226  0.5302
 4673TIP3    H135434   1.097   0.390  11.475 -0.9940  1.7102  2.1590
 4673TIP3    H235435   1.202   0.284  11.501 -0.6704  0.8506 -2.0027
 4674TIP3   OH235436   5.137   1.223  12.393 -0.0820  0.4354 -0.1226
 4674TIP3    H135437   5.108   1.193  12.479  0.0141 -0.1916 -0.3021
 4674TIP3    H235438   5.161   1.315  12.406 -0.7348  0.5427  0.3580
 4675TIP3   OH235439   6.544   5.548   2.096  0.3137 -0.6015  0.2738
 4675TIP3    H135440   6.467   5.545   2.039 -0.0726 -0.8670  0.8090
 4675TIP3    H235441   6.519   5.499   2.174  0.8598 -0.2866  0.6561
 4676TIP3   OH235442   5.627   3.578  16.351 -0.1437  0.5840 -0.3154
 4676TIP3    H135443   5.605   3.642  16.283 -0.7856  0.5034 -0.1958
 4676TIP3    H235444   5.625   3.494  16.307 -0.2131  0.5653 -0.2788
 4677TIP3   OH235445   0.550   0.962  14.914 -0.2012 -0.6080  0.3093
 4677TIP3    H135446   0.562   0.932  15.004 -2.8128 -0.2693  0.8585
 4677TIP3    H235447   0.487   0.901  14.877  0.5005 -0.4741 -1.1767
 4678TIP3   OH235448   1.199   2.834  12.230  0.1946  0.0206  0.0049
 4678TIP3    H135449   1.279   2.851  12.278 -1.0845  0.3191  2.1390
 4678TIP3    H235450   1.176   2.744  12.254 -0.3070  0.0657 -0.3005
 4679TIP3   OH235451   0.593   2.106   3.334 -0.4236 -0.6375 -0.4673
 4679TIP3    H135452   0.507   2.088   3.372  0.5820 -1.5770  1.4644
 4679TIP3    H235453   0.596   2.201   3.325 -0.3172 -0.1893  2.9668
 4680TIP3   OH235454   4.715   4.960  10.843 -0.2061  0.4716  0.7654
 4680TIP3    H135455   4.761   5.041  10.824 -1.8736  1.2669 -0.0868
 4680TIP3    H235456   4.705   4.917  10.757  0.6924 -0.6738  1.2052
 4681TIP3   OH235457   3.083   4.872  16.939 -0.3741  0.1884 -0.3835
 4681TIP3    H135458   3.008   4.820  16.969  0.2762  0.5770  2.1399
 4681TIP3    H235459   3.156   4.811  16.940 -0.5227 -0.0945 -2.4881
 4682TIP3   OH235460   5.537   3.655  12.081  0.7443 -0.4746  0.1014
 4682TIP3    H135461   5.444   3.674  12.089  1.1020  1.0287  1.0651
 4682TIP3    H235462   5.559   3.681  11.992  0.2747 -0.7154 -0.0889
 4683TIP3   OH235463   6.573   6.384  15.375 -0.3333 -0.3895 -0.1063
 4683TIP3    H135464   6.559   6.424  15.460 -0.7125 -2.1984  0.7180
 4683TIP3    H235465   6.618   6.301  15.394  0.5634 -0.3224 -1.7497
 4684TIP3   OH235466   1.120   1.087   3.222  0.3024 -0.2222  0.2724
 4684TIP3    H135467   1.212   1.059   3.218  0.9815  1.7435  1.0922
 4684TIP3    H235468   1.122   1.170   3.269 -1.6836  0.8459 -1.3571
 4685TIP3   OH235469   1.164   4.913   4.379  0.0124 -0.5250 -0.2408
 4685TIP3    H135470   1.081   4.904   4.425  0.4492 -1.4905  0.3737
 4685TIP3    H235471   1.148   4.981   4.314 -0.6058  0.9495  1.3782
 4686TIP3   OH235472   4.324   4.580   6.512 -0.2272  1.1362 -0.0251
 4686TIP3    H135473   4.415   4.582   6.482  0.2892  2.1097  1.4714
 4686TIP3    H235474   4.331   4.590   6.607 -1.7920 -1.2197  0.3980
 4687TIP3   OH235475   4.670   4.425   3.869 -0.0004 -0.4637  0.2951
 4687TIP3    H135476   4.744   4.370   3.893  0.0792 -0.2402  0.5717
 4687TIP3    H235477   4.594   4.367   3.873  0.1351 -0.6463  0.2027
 4688TIP3   OH235478   5.418   6.631  16.816  0.2390  0.0513  0.2212
 4688TIP3    H135479   5.414   6.702  16.879  1.2050 -0.4086  0.8177
 4688TIP3    H235480   5.477   6.567  16.855 -0.9046 -1.2595 -0.1265
 4689TIP3   OH235481   2.155   5.984   1.585 -0.0126 -0.3166 -0.1877
 4689TIP3    H135482   2.250   5.977   1.586  0.0339  0.2557  1.2492
 4689TIP3    H235483   2.136   6.031   1.503  0.8641 -1.0248 -0.8287
 4690TIP3   OH235484   2.757   2.802  12.888  0.6731 -0.0764 -0.0405
 4690TIP3    H135485   2.699   2.878  12.882 -3.7180 -3.0673  0.3165
 4690TIP3    H235486   2.760   2.767  12.799  0.3065 -1.0826  0.3424
 4691TIP3   OH235487   4.838   4.371  14.331 -0.1905  0.3429 -0.3020
 4691TIP3    H135488   4.862   4.461  14.311 -2.0019  1.0408  0.4417
 4691TIP3    H235489   4.874   4.355  14.418 -0.3722  0.5603 -0.1846
 4692TIP3   OH235490   2.808   4.483  11.410 -0.4954  0.3255 -0.2891
 4692TIP3    H135491   2.737   4.452  11.354 -0.5220 -0.4467  0.1488
 4692TIP3    H235492   2.877   4.510  11.350 -1.9391  3.2085 -0.8350
 4693TIP3   OH235493   5.531   6.462  15.453 -0.3945  0.2461 -0.5218
 4693TIP3    H135494   5.527   6.367  15.443 -0.4363  0.1539  0.3263
 4693TIP3    H235495   5.441   6.488  15.472  0.1078  0.0355  2.6183
 4694TIP3   OH235496   3.238   6.360   5.345  0.4342  0.2554  0.0529
 4694TIP3    H135497   3.282   6.342   5.428  1.1990  2.0552  0.0835
 4694TIP3    H235498   3.308   6.359   5.279  0.1924  0.9623 -0.2300
 4695TIP3   OH235499   3.464   3.175   6.017  0.2595 -0.4650  0.1452
 4695TIP3    H135500   3.393   3.236   6.039 -1.5551 -2.5074  0.3348
 4695TIP3    H235501   3.543   3.217   6.051 -0.6101  2.5115 -1.2122
 4696TIP3   OH235502   5.503   6.350   0.838  0.0783  0.0274 -0.1067
 4696TIP3    H135503   5.472   6.263   0.815 -1.3966  0.3717  0.4996
 4696TIP3    H235504   5.573   6.334   0.902  0.8823 -0.7427 -1.1526
 4697TIP3   OH235505   6.505   4.978  16.562  0.1149  0.6573 -0.1902
 4697TIP3    H135506   6.466   5.025  16.488 -0.7152 -0.9319 -0.8141
 4697TIP3    H235507   6.572   4.922  16.523 -0.6187 -0.5135  0.1580
 4698TIP3   OH235508   3.615   0.804  11.290 -0.4618  0.0397 -0.1110
 4698TIP3    H135509   3.657   0.789  11.205 -0.3381 -0.1194 -0.0225
 4698TIP3    H235510   3.686   0.833  11.347 -0.7756  1.3949 -0.3885
 4699TIP3   OH235511   5.278   1.008   6.448  0.0635  0.4431 -0.4221
 4699TIP3    H135512   5.341   0.936   6.446  0.6119  0.9344 -0.9838
 4699TIP3    H235513   5.208   0.981   6.388 -0.2382 -0.0652  0.1412
 4700TIP3   OH235514   3.579   4.035   0.617  0.5691  0.0831  0.2985
 4700TIP3    H135515   3.660   3.985   0.611  1.2695  0.9208  2.0026
 4700TIP3    H235516   3.531   3.996   0.689 -1.0916 -1.0574 -1.3221
 4701TIP3   OH235517   0.078   3.333  13.900 -0.6980  0.0165  0.4187
 4701TIP3    H135518   0.078   3.259  13.962  0.1501  1.0737  1.7263
 4701TIP3    H235519   0.150   3.313  13.840 -1.4376 -0.9464 -0.1928
 4702TIP3   OH235520   0.300   5.682  16.349  0.8658 -0.4324 -0.1013
 4702TIP3    H135521   0.302   5.587  16.365 -0.7854 -0.7254 -1.2374
 4702TIP3    H235522   0.227   5.713  16.403  2.0891  0.4100  1.1069
 4703TIP3   OH235523   0.709   6.697  11.405  0.3390 -0.1060 -0.7163
 4703TIP3    H135524   0.647   6.746  11.350  0.5570  0.3285 -0.5842
 4703TIP3    H235525   0.700   6.736  11.492  0.0790 -0.7168 -0.4629
 4704TIP3   OH235526   2.877   3.608   2.330  0.5366 -0.2957  0.3927
 4704TIP3    H135527   2.814   3.623   2.260  0.8209 -0.1223  0.1737
 4704TIP3    H235528   2.943   3.676   2.319  0.6380 -0.3289  0.7668
 4705TIP3   OH235529   5.671   1.722   5.388 -0.1854  0.0792 -0.0374
 4705TIP3    H135530   5.747   1.759   5.433 -0.9499  0.5196  0.9341
 4705TIP3    H235531   5.640   1.792   5.331 -0.5521  0.3236  0.4506
 4706TIP3   OH235532   5.128   2.378  16.061  0.3444  0.3246  0.3435
 4706TIP3    H135533   5.160   2.404  16.147 -0.5618  1.2615  0.4212
 4706TIP3    H235534   5.202   2.394  16.002  1.0048 -0.4331  0.9551
 4707TIP3   OH235535   0.838   4.895  14.927  0.3473  0.2361 -0.4264
 4707TIP3    H135536   0.765   4.954  14.907  0.3294  0.0753 -0.8543
 4707TIP3    H235537   0.846   4.898  15.022  0.3461  0.9290 -0.4434
 4708TIP3   OH235538   4.454   4.491   4.119 -0.3152  0.0114 -0.1194
 4708TIP3    H135539   4.452   4.421   4.054 -1.2956 -0.1493  0.0591
 4708TIP3    H235540   4.393   4.462   4.187 -0.0500  0.6301  0.3963
 4709TIP3   OH235541   5.219   0.376  12.691  0.3605  0.4929  0.2075
 4709TIP3    H135542   5.290   0.352  12.632  0.1836  0.1407  0.1353
 4709TIP3    H235543   5.237   0.327  12.771 -0.1819 -0.1455 -0.0547
 4710TIP3   OH235544   3.188   1.789   3.596 -0.2805  0.0041  0.5138
 4710TIP3    H135545   3.175   1.883   3.608 -0.2944 -0.1021  1.3995
 4710TIP3    H235546   3.231   1.761   3.677 -1.0445 -0.9043  0.6101
 4711TIP3   OH235547   5.921   6.798   5.370  0.5624  0.6514 -0.2334
 4711TIP3    H135548   5.926   6.790   5.275  1.4058 -1.2732 -0.0541
 4711TIP3    H235549   6.009   6.825   5.396  1.1718 -1.6252  0.2075
 4712TIP3   OH235550   6.209   4.796   3.625  0.0378 -0.0647  0.2160
 4712TIP3    H135551   6.241   4.793   3.535 -0.3613 -2.5912  0.0676
 4712TIP3    H235552   6.287   4.813   3.678  0.3028  1.2591 -0.5640
 4713TIP3   OH235553   1.560   3.584  13.420  0.5094  0.3702 -0.1605
 4713TIP3    H135554   1.602   3.596  13.506 -0.8409 -1.0817  0.7648
 4713TIP3    H235555   1.570   3.491  13.401 -1.2701  0.1893 -0.4143
 4714TIP3   OH235556   1.544   2.162  16.139 -0.2324  0.0608 -0.5610
 4714TIP3    H135557   1.638   2.166  16.123 -0.4162 -0.6944 -1.9984
 4714TIP3    H235558   1.506   2.228  16.081 -0.6930 -0.6986 -1.1509
 4715TIP3   OH235559   4.049   4.460   3.016 -0.2607  0.4023  0.9581
 4715TIP3    H135560   3.983   4.510   2.969 -2.2597 -0.7782  2.3356
 4715TIP3    H235561   4.002   4.423   3.091  1.5206 -1.9912  1.0183
 4716TIP3   OH235562   1.467   4.735  15.885 -0.3438 -0.4155  0.0575
 4716TIP3    H135563   1.502   4.778  15.807  1.5225  1.1063  1.6092
 4716TIP3    H235564   1.518   4.772  15.957 -2.3838 -1.3095  2.0817
 4717TIP3   OH235565   1.408   2.685  12.935 -0.4377  0.4438  0.3472
 4717TIP3    H135566   1.352   2.610  12.918 -0.3742  0.7013 -1.1380
 4717TIP3    H235567   1.490   2.647  12.968  0.1497 -0.3012 -1.8122
 4718TIP3   OH235568   5.149   2.709  11.122  0.1048 -0.4359 -0.1001
 4718TIP3    H135569   5.152   2.641  11.188 -1.4048  0.3866  0.8547
 4718TIP3    H235570   5.150   2.791  11.171 -0.3232  0.2086 -1.1321
 4719TIP3   OH235571   0.826   0.186  13.218  0.5350  0.2159  0.3921
 4719TIP3    H135572   0.888   0.256  13.199 -0.0716  0.4362 -0.8882
 4719TIP3    H235573   0.876   0.105  13.203  0.3904  0.3890 -1.2003
 4720TIP3   OH235574   0.596   1.305  15.438  0.3789  0.1943 -0.0274
 4720TIP3    H135575   0.501   1.292  15.443  0.4446 -0.6878 -0.6853
 4720TIP3    H235576   0.619   1.342  15.522 -0.7076  1.5539 -0.2871
 4721TIP3   OH235577   4.467   4.802   0.953  0.0105  0.0044  0.1501
 4721TIP3    H135578   4.439   4.713   0.976 -0.9422  0.6053  1.4563
 4721TIP3    H235579   4.502   4.837   1.035  1.8882  0.3243 -0.7207
 4722TIP3   OH235580   2.448   3.325  11.070 -0.1141 -0.6009 -0.3984
 4722TIP3    H135581   2.539   3.306  11.045  0.0573 -1.9036  1.0533
 4722TIP3    H235582   2.399   3.248  11.041 -0.5805 -0.3871 -0.1870
 4723TIP3   OH235583   6.384   3.059   0.389  0.0653  0.2058 -0.0503
 4723TIP3    H135584   6.446   3.060   0.316  0.6995  0.4618  0.4785
 4723TIP3    H235585   6.362   2.967   0.400  1.4494 -0.0719  0.6410
 4724TIP3   OH235586   2.176   3.317   1.117 -0.1381 -0.7635 -0.1180
 4724TIP3    H135587   2.226   3.259   1.060  1.3709 -0.0499  0.4305
 4724TIP3    H235588   2.209   3.298   1.205 -1.1011 -0.5175  0.3075
 4725TIP3   OH235589   0.514   0.336  12.306  0.3355  0.0288  0.2388
 4725TIP3    H135590   0.608   0.337  12.326  0.2617  0.0841  0.5994
 4725TIP3    H235591   0.508   0.362  12.214  0.8114 -1.8099 -0.3495
 4726TIP3   OH235592   4.218   2.423   0.326 -0.8748 -0.0320  0.5209
 4726TIP3    H135593   4.192   2.413   0.235  1.3348  0.8666 -0.2641
 4726TIP3    H235594   4.144   2.469   0.367 -0.9583  1.6393 -1.3803
 4727TIP3   OH235595   6.284   4.737  16.402 -0.2763 -0.1958 -0.1472
 4727TIP3    H135596   6.224   4.810  16.389  0.4671  0.5605  0.5792
 4727TIP3    H235597   6.231   4.659  16.387 -1.2001  0.4861 -0.4457
 4728TIP3   OH235598   1.213   0.235  14.984  0.0670 -0.0417 -0.4283
 4728TIP3    H135599   1.265   0.184  14.923 -0.5667 -0.6617 -0.4646
 4728TIP3    H235600   1.241   0.325  14.970  0.5377 -0.2754 -1.0224
 4729TIP3   OH235601   4.136   1.249   0.953  0.3619 -0.6301  0.2023
 4729TIP3    H135602   4.185   1.205   0.883  1.7089 -1.0489  1.3608
 4729TIP3    H235603   4.064   1.293   0.908  1.5136 -0.4164 -1.5253
 4730TIP3   OH235604   6.237   5.367   3.870 -0.4205  0.2832 -0.2312
 4730TIP3    H135605   6.142   5.380   3.871 -0.4070  0.4173 -0.6632
 4730TIP3    H235606   6.253   5.306   3.941 -1.1628 -1.9804 -1.9014
 4731TIP3   OH235607   1.923   2.552  14.609  0.1878  0.0999 -0.2853
 4731TIP3    H135608   1.847   2.608  14.621 -0.4300 -0.6808 -0.4264
 4731TIP3    H235609   1.981   2.574  14.682  0.7463  2.1085 -1.2666
 4732TIP3   OH235610   3.028   4.545  15.560 -0.9187 -0.5387 -0.1461
 4732TIP3    H135611   3.119   4.531  15.586 -1.0714 -0.6935  0.3268
 4732TIP3    H235612   2.982   4.558  15.643 -1.1674  0.5160 -0.4389
 4733TIP3   OH235613   6.796   0.526  11.425 -0.0491 -0.2146  0.0780
 4733TIP3    H135614   6.721   0.517  11.484 -0.0602 -0.5629  0.0094
 4733TIP3    H235615   6.802   0.442  11.379  0.2205 -0.0961 -0.1093
 4734TIP3   OH235616   6.581   6.412   2.129 -0.1805 -0.3636 -0.0350
 4734TIP3    H135617   6.524   6.485   2.107 -0.4866 -0.4052  0.5904
 4734TIP3    H235618   6.643   6.406   2.056 -1.4401 -0.8056 -1.1062
 4735TIP3   OH235619   0.644   5.256  13.857  0.3524 -0.1770  0.1118
 4735TIP3    H135620   0.562   5.305  13.855 -0.1649 -1.0376 -0.2027
 4735TIP3    H235621   0.665   5.242  13.764  0.5856 -0.3966  0.1997
 4736TIP3   OH235622   4.950   4.014  16.053 -0.1381  0.6020  0.2888
 4736TIP3    H135623   5.018   4.081  16.046  0.4356  0.0731  0.7000
 4736TIP3    H235624   4.990   3.943  16.104 -1.1734  0.5001  1.0082
 4737TIP3   OH235625   5.897   3.006  12.675 -0.5062  0.1015  0.2010
 4737TIP3    H135626   5.910   2.915  12.646 -2.1738 -0.7074  1.7762
 4737TIP3    H235627   5.840   2.998  12.752 -1.1404  2.5264  0.0457
 4738TIP3   OH235628   0.033   0.805  13.865  0.7513  0.1298 -0.4594
 4738TIP3    H135629   0.056   0.771  13.779 -0.9610 -0.8459 -0.5865
 4738TIP3    H235630   0.017   0.726  13.918 -0.2253  0.7084  0.1387
 4739TIP3   OH235631   4.090   1.488  15.141 -0.3458 -0.1191  0.2445
 4739TIP3    H135632   4.013   1.495  15.085 -0.1353 -0.3247 -0.0717
 4739TIP3    H235633   4.146   1.425  15.097 -0.2184 -0.3535  0.7306
 4740TIP3   OH235634   0.411   1.948  15.750 -0.2225  0.1216  0.0568
 4740TIP3    H135635   0.350   1.984  15.815  0.2880 -0.6467  0.9897
 4740TIP3    H235636   0.491   2.000  15.761  0.5089 -1.1851  1.3917
 4741TIP3   OH235637   4.706   6.416   6.291  0.2371 -0.2273 -0.1396
 4741TIP3    H135638   4.625   6.406   6.341  1.1336 -0.9838  1.2163
 4741TIP3    H235639   4.692   6.364   6.212 -1.6203  1.8665 -1.2994
 4742TIP3   OH235640   5.628   6.020  14.018 -0.6135 -0.6455 -0.2207
 4742TIP3    H135641   5.705   5.969  14.042 -2.0232 -1.8939  1.9796
 4742TIP3    H235642   5.620   6.006  13.923  1.6730 -0.6569 -0.4809
 4743TIP3   OH235643   5.342   5.876   5.680 -0.6759  0.2146  0.6405
 4743TIP3    H135644   5.275   5.808   5.678  1.1047 -1.6236  0.6736
 4743TIP3    H235645   5.333   5.922   5.596 -2.5152  0.6131  1.0246
 4744TIP3   OH235646   1.932   4.709   2.992  0.7736 -0.3464 -0.3680
 4744TIP3    H135647   1.914   4.777   2.926 -3.1228 -0.1969  0.5961
 4744TIP3    H235648   1.888   4.741   3.071  3.8086 -1.3659  1.8723
 4745TIP3   OH235649   0.250   2.994  16.015 -0.5527 -0.3818 -0.1007
 4745TIP3    H135650   0.188   3.053  16.058  1.6994  2.5532 -0.5886
 4745TIP3    H235651   0.304   3.051  15.961  1.7574 -2.9503 -0.7078
 4746TIP3   OH235652   2.784   6.268  12.875  0.5531  0.0190  0.6241
 4746TIP3    H135653   2.776   6.359  12.905 -0.0524 -0.2190  1.2203
 4746TIP3    H235654   2.801   6.275  12.781 -1.4606  0.7372  0.2553
 4747TIP3   OH235655   1.933   2.263  10.946 -0.1328 -0.1924  0.0762
 4747TIP3    H135656   1.980   2.250  11.029 -2.4165 -1.2254  1.3189
 4747TIP3    H235657   1.899   2.353  10.952 -2.0748 -0.9340  1.3461
 4748TIP3   OH235658   1.136   1.033   5.638  0.0482  0.1044  0.1584
 4748TIP3    H135659   1.228   1.042   5.614  0.2429 -0.5902  0.5935
 4748TIP3    H235660   1.133   1.060   5.730  0.3988 -2.5801  1.0717
 4749TIP3   OH235661   4.545   3.438  14.646  0.0851 -0.5180  0.4532
 4749TIP3    H135662   4.601   3.442  14.723 -0.6346 -0.5399  0.9889
 4749TIP3    H235663   4.460   3.469  14.677 -0.0073  0.2631 -0.5350
 4750TIP3   OH235664   3.671   4.749  16.483  0.5834 -0.4264  0.2259
 4750TIP3    H135665   3.670   4.844  16.491 -1.2157 -0.3383 -0.5220
 4750TIP3    H235666   3.670   4.717  16.573 -4.3652  0.3932  0.7602
 4751TIP3   OH235667   5.547   2.943   2.975  0.1246  0.0253  0.3738
 4751TIP3    H135668   5.470   2.930   3.030 -0.1916  0.1578 -0.0309
 4751TIP3    H235669   5.591   2.858   2.974  0.4981  0.2037  1.3799
 4752TIP3   OH235670   2.409   2.240  11.635 -0.1341 -0.1569  0.0673
 4752TIP3    H135671   2.478   2.299  11.666  0.1246  1.0726 -2.6055
 4752TIP3    H235672   2.328   2.280  11.667  0.0918  1.2977 -1.0681
 4753TIP3   OH235673   2.528   0.991  10.139 -0.0612  0.9189  0.0430
 4753TIP3    H135674   2.592   0.992  10.069  0.7089  0.2890  0.7140
 4753TIP3    H235675   2.562   0.927  10.202  0.2147  2.7369  1.8481
 4754TIP3   OH235676   3.408   5.330   5.889  0.7828  0.0145  0.1277
 4754TIP3    H135677   3.471   5.268   5.926 -0.1403 -0.9364  0.1620
 4754TIP3    H235678   3.364   5.368   5.965  1.5318  0.9515  0.1194
 4755TIP3   OH235679   0.012   5.738  13.418 -0.2530 -0.1126  0.2330
 4755TIP3    H135680   0.032   5.723  13.510 -0.9676 -0.3932  0.3498
 4755TIP3    H235681   0.048   5.824  13.399 -0.0798 -0.0650  0.7722
 4756TIP3   OH235682   1.778   4.025  15.953 -0.6144  0.8684 -0.1724
 4756TIP3    H135683   1.853   4.061  15.999 -0.7021  0.6666  0.1339
 4756TIP3    H235684   1.751   4.095  15.892  1.5605 -0.0765 -2.4040
 4757TIP3   OH235685   3.312   3.478   2.840 -0.1553 -0.7318 -0.2830
 4757TIP3    H135686   3.400   3.481   2.802 -0.9402 -0.4374 -2.2244
 4757TIP3    H235687   3.272   3.561   2.813 -0.6083 -0.2487  1.7412
 4758TIP3   OH235688   0.939   5.347   0.103  0.5407 -0.2088 -0.6708
 4758TIP3    H135689   0.949   5.417   0.040  1.1240 -0.2437 -0.6220
 4758TIP3    H235690   0.914   5.391   0.184  1.3184 -0.0059 -0.5307
 4759TIP3   OH235691   5.518   1.090  10.227  0.2574  0.5056  0.1296
 4759TIP3    H135692   5.605   1.064  10.195 -0.2939 -0.4664 -0.6617
 4759TIP3    H235693   5.472   1.007  10.241 -1.2333  1.0148 -1.4467
 4760TIP3   OH235694   0.264   0.145  10.748  0.3259  0.2269 -0.3340
 4760TIP3    H135695   0.238   0.208  10.680 -1.1337  0.5893  0.5070
 4760TIP3    H235696   0.356   0.164  10.764  1.0215 -0.5511 -2.8987
 4761TIP3   OH235697   0.966   1.674  13.274 -0.4678  0.2798  0.3865
 4761TIP3    H135698   1.033   1.660  13.208 -1.1024  1.7913 -0.6287
 4761TIP3    H235699   1.001   1.744  13.330 -0.8858  0.5789  0.2801
 4762TIP3   OH235700   4.543   4.612  16.015 -0.2700 -0.4314  0.4931
 4762TIP3    H135701   4.563   4.565  16.096 -0.7022  0.6983  1.2975
 4762TIP3    H235702   4.585   4.698  16.027 -2.6216  0.7676  0.7613
 4763TIP3   OH235703   0.729   1.769  14.230  0.4113 -0.0807  0.1182
 4763TIP3    H135704   0.757   1.677  14.236 -0.7292 -0.6933 -2.6189
 4763TIP3    H235705   0.704   1.780  14.139 -0.6815  2.6423  0.6755
 4764TIP3   OH235706   5.637   4.903  12.345  0.6644 -0.6626 -0.0482
 4764TIP3    H135707   5.720   4.911  12.297 -0.4083  1.3402 -1.7051
 4764TIP3    H235708   5.596   4.825  12.309  0.6973 -0.2036 -1.1206
 4765TIP3   OH235709   2.065   0.802  16.740  0.2812  0.0800  1.0482
 4765TIP3    H135710   2.126   0.854  16.688  1.1938 -0.4052  1.6154
 4765TIP3    H235711   2.083   0.828  16.831 -1.7544  1.4164  1.1300
 4766TIP3   OH235712   6.331   5.833  17.015 -0.4317 -0.5350  0.2768
 4766TIP3    H135713   6.309   5.897  17.082 -0.2625 -2.3721  2.1922
 4766TIP3    H235714   6.324   5.748  17.059  1.2373 -1.7486 -1.5841
 4767TIP3   OH235715   2.793   1.160  10.607  0.0504  0.3581  0.0266
 4767TIP3    H135716   2.798   1.076  10.653  0.2787  0.8223  0.8767
 4767TIP3    H235717   2.881   1.197  10.613  0.0670  0.4623 -0.7391
 4768TIP3   OH235718   6.734   3.478   4.203 -0.1234  0.0210  0.9133
 4768TIP3    H135719   6.821   3.451   4.173 -0.1786  0.1521  0.6353
 4768TIP3    H235720   6.719   3.427   4.282 -0.0362 -0.4327  0.6373
 4769TIP3   OH235721   3.043   2.930   1.399  0.3993 -0.1575 -0.0263
 4769TIP3    H135722   3.023   2.977   1.318 -1.0928 -3.5327 -1.8300
 4769TIP3    H235723   3.138   2.922   1.399  0.4677  0.4595 -1.1470
 4770TIP3   OH235724   6.210   4.462  11.013  0.1109 -0.9693 -0.4013
 4770TIP3    H135725   6.216   4.491  10.922  1.9552 -4.7534 -1.6942
 4770TIP3    H235726   6.259   4.528  11.062  1.0262  0.0234 -2.5194
 4771TIP3   OH235727   0.835   0.534  14.599 -0.2144 -0.9341  0.1683
 4771TIP3    H135728   0.761   0.513  14.656 -0.0986  0.5030  0.8843
 4771TIP3    H235729   0.869   0.616  14.633  1.7561 -1.5750 -0.1262
 4772TIP3   OH235730   5.370   1.325  10.107 -0.0484  0.2373  1.1938
 4772TIP3    H135731   5.434   1.372  10.053  0.0792 -0.9400  0.2952
 4772TIP3    H235732   5.412   1.241  10.127 -1.4402 -0.7050  0.2807
 4773TIP3   OH235733   6.024   2.648   5.229 -1.2003 -0.0747 -0.3883
 4773TIP3    H135734   6.081   2.680   5.159 -1.5827  0.0217 -0.6537
 4773TIP3    H235735   6.084   2.604   5.290 -0.9664 -0.9500 -1.2130
 4774TIP3   OH235736   0.470   2.748  14.707  0.6008  0.3675 -0.4244
 4774TIP3    H135737   0.456   2.754  14.612  0.1161  1.7499 -0.2845
 4774TIP3    H235738   0.389   2.709  14.741  1.0080 -0.6946 -0.6146
 4775TIP3   OH235739   6.043   4.057  15.659 -0.5192  0.3576 -0.0172
 4775TIP3    H135740   5.999   4.137  15.689 -1.0562  1.0735 -2.4357
 4775TIP3    H235741   6.123   4.089  15.616 -1.3862 -0.1876 -2.1948
 4776TIP3   OH235742   0.895   1.355   0.299  0.0565 -0.4076 -0.0423
 4776TIP3    H135743   0.930   1.351   0.210  0.1763 -0.6817  0.0178
 4776TIP3    H235744   0.822   1.416   0.293 -0.0857 -0.6111 -0.3810
 4777TIP3   OH235745   3.391   4.315   3.257  0.4859 -0.4690  0.2420
 4777TIP3    H135746   3.349   4.370   3.191  1.4997  1.6331  1.2510
 4777TIP3    H235747   3.440   4.250   3.207 -1.3531 -0.9500 -0.9831
 4778TIP3   OH235748   1.223   3.769  14.266  0.1187 -0.2632  0.0572
 4778TIP3    H135749   1.151   3.775  14.329 -0.4731 -0.7646 -0.5465
 4778TIP3    H235750   1.185   3.723  14.192  1.0130 -0.3398 -0.3645
 4779TIP3   OH235751   5.928   3.695  11.105  0.3740  0.3479 -0.4455
 4779TIP3    H135752   5.936   3.629  11.175  0.3151  0.9706  0.1544
 4779TIP3    H235753   6.007   3.683  11.052  0.2432 -0.3710 -0.4896
 4780TIP3   OH235754   1.371   0.268   9.918 -0.1247 -0.0863 -0.2748
 4780TIP3    H135755   1.284   0.258   9.878 -0.3222 -1.1576  0.3561
 4780TIP3    H235756   1.428   0.214   9.864 -0.5156 -2.0754  1.1587
 4781TIP3   OH235757   0.388   1.709   2.141  0.2649  0.3452 -0.1148
 4781TIP3    H135758   0.323   1.746   2.081 -1.0229  0.4320  1.2578
 4781TIP3    H235759   0.368   1.751   2.225  1.5838 -0.2653  0.5211
 4782TIP3   OH235760   1.858   3.480   3.623 -0.5707 -0.2860 -0.0001
 4782TIP3    H135761   1.809   3.562   3.620  0.6449  0.6499  2.5167
 4782TIP3    H235762   1.949   3.506   3.623 -0.1479 -1.6359  0.6121
 4783TIP3   OH235763   3.527   6.755  12.109  0.0244 -0.0959 -0.3700
 4783TIP3    H135764   3.572   6.745  12.192 -0.7071  2.3105  0.4250
 4783TIP3    H235765   3.596   6.777  12.046  0.2460  1.6300  0.4161
 4784TIP3   OH235766   6.674   6.792   0.620 -0.6017  0.0886 -0.0843
 4784TIP3    H135767   6.699   6.867   0.673 -2.5494 -1.0890  2.7322
 4784TIP3    H235768   6.579   6.799   0.613 -0.5149 -0.1899 -3.0257
 4785TIP3   OH235769   3.413   0.291   4.545  0.0276  0.2894  0.2330
 4785TIP3    H135770   3.436   0.349   4.617 -2.3976  2.4320 -0.5895
 4785TIP3    H235771   3.469   0.214   4.558  0.1272  0.8095  3.9982
 4786TIP3   OH235772   4.539   1.634   3.333 -0.5748 -0.6443 -0.2407
 4786TIP3    H135773   4.498   1.614   3.418 -2.4317  0.8296 -0.7104
 4786TIP3    H235774   4.508   1.722   3.313 -1.4390 -1.5139 -3.1569
 4787TIP3   OH235775   5.518   2.014   3.829  0.1014  0.2370  0.6192
 4787TIP3    H135776   5.480   2.041   3.746 -0.0851  1.0738  0.9661
 4787TIP3    H235777   5.526   1.919   3.822  1.5260  0.4431 -0.9359
 4788TIP3   OH235778   0.305   3.095  14.478 -0.2872  0.3173  0.0743
 4788TIP3    H135779   0.272   3.079  14.389  0.3747 -0.8676  0.0242
 4788TIP3    H235780   0.383   3.148  14.465 -1.0535  1.4892  0.0718
 4789TIP3   OH235781   3.202   5.138   3.351  0.0650 -0.1178 -0.2293
 4789TIP3    H135782   3.219   5.229   3.374 -0.9047 -0.3504  1.5940
 4789TIP3    H235783   3.283   5.092   3.374  0.4965  0.2506 -0.9984
 4790TIP3   OH235784   6.406   3.876  11.706 -0.4701  0.4560  0.3963
 4790TIP3    H135785   6.476   3.819  11.673  0.1764  0.3926  1.7839
 4790TIP3    H235786   6.353   3.897  11.629  0.1365 -0.8210 -0.4072
 4791TIP3   OH235787   6.501   4.628   0.223  0.8193 -0.2022  0.0360
 4791TIP3    H135788   6.550   4.675   0.156  0.3228  0.8922  0.4051
 4791TIP3    H235789   6.563   4.565   0.259  0.9667 -1.1015 -1.7130
 4792TIP3   OH235790   0.210   1.585  10.878 -0.2922 -0.2823 -0.4417
 4792TIP3    H135791   0.260   1.660  10.912  0.8396 -1.3013  0.2283
 4792TIP3    H235792   0.119   1.609  10.892  0.0888  0.0157  1.9596
 4793TIP3   OH235793   5.789   2.595  11.091  0.6609  0.2104  0.7784
 4793TIP3    H135794   5.875   2.560  11.116  0.4487 -0.4092  0.6632
 4793TIP3    H235795   5.751   2.527  11.035 -0.1293  0.2261  1.2706
 4794TIP3   OH235796   1.520   3.129  14.062  0.7887 -0.1972 -0.1307
 4794TIP3    H135797   1.525   3.054  14.002  0.6918 -0.2838 -0.0313
 4794TIP3    H235798   1.474   3.095  14.139  0.6395 -0.0052 -0.1330
 4795TIP3   OH235799   2.425   6.186   3.250 -0.4918  0.3856  0.1533
 4795TIP3    H135800   2.493   6.123   3.226 -1.4109 -0.2556 -0.8723
 4795TIP3    H235801   2.470   6.270   3.254  0.2353  0.0942 -1.2496
 4796TIP3   OH235802   0.795   2.441  16.340 -0.0441  0.3592 -0.5281
 4796TIP3    H135803   0.824   2.522  16.300 -2.2046  0.5358 -1.8978
 4796TIP3    H235804   0.721   2.466  16.395 -0.2642 -0.5830 -0.3703
 4797TIP3   OH235805   0.209   0.304  14.820  0.6147  1.1472  0.5242
 4797TIP3    H135806   0.148   0.255  14.875  2.4647  0.0438  1.6958
 4797TIP3    H235807   0.246   0.239  14.761  0.8995  1.7316  0.0456
 4798TIP3   OH235808   1.295   3.364  11.036  0.1112 -0.2919  0.3907
 4798TIP3    H135809   1.247   3.318  10.968 -0.9946 -1.0655  1.6600
 4798TIP3    H235810   1.281   3.457  11.016 -3.6832 -0.3936  1.8041
 4799TIP3   OH235811   3.365   1.840  11.797 -1.0684  0.2864 -0.3136
 4799TIP3    H135812   3.295   1.790  11.841  0.7988 -2.4242 -0.1522
 4799TIP3    H235813   3.439   1.836  11.858  0.2149  0.2647 -1.8247
 4800TIP3   OH235814   2.391   1.271   4.672  0.0648 -0.1399  0.4275
 4800TIP3    H135815   2.388   1.243   4.580  2.2181 -0.0443  0.2762
 4800TIP3    H235816   2.314   1.231   4.712 -0.1360 -1.3870 -1.0981
 4801TIP3   OH235817   2.105   4.402   2.892 -0.6222  0.0368 -0.0737
 4801TIP3    H135818   2.074   4.491   2.908 -2.0570 -0.3904 -0.3132
 4801TIP3    H235819   2.028   4.355   2.858 -0.4809 -1.7754  1.8399
 4802TIP3   OH235820   5.777   4.230  14.780 -0.0651  0.5852  0.1272
 4802TIP3    H135821   5.803   4.198  14.866  1.3460  2.8200  0.6038
 4802TIP3    H235822   5.844   4.295  14.757 -1.0493  0.8977 -2.1467
 4803TIP3   OH235823   1.521   5.475  14.828  0.4119  0.8885  0.1182
 4803TIP3    H135824   1.435   5.516  14.821 -0.7630 -1.3430  0.3518
 4803TIP3    H235825   1.526   5.417  14.752  0.0805 -1.7391  1.9669
 4804TIP3   OH235826   3.776   0.828   4.385  0.1282 -0.6244  0.2439
 4804TIP3    H135827   3.730   0.755   4.345 -1.1152 -0.5751  1.5383
 4804TIP3    H235828   3.810   0.793   4.467 -1.6189  0.5462  1.5270
 4805TIP3   OH235829   5.692   2.244  15.203 -0.0663  0.1866  0.4595
 4805TIP3    H135830   5.673   2.337  15.189 -0.5381  0.0559  0.2430
 4805TIP3    H235831   5.645   2.199  15.133  1.6097 -0.0917 -0.5433
 4806TIP3   OH235832   6.086   6.421   1.958 -0.0755 -0.1702 -0.0172
 4806TIP3    H135833   6.025   6.494   1.946  1.3157  1.2694  1.1969
 4806TIP3    H235834   6.126   6.438   2.044  1.2810 -1.6113 -0.3341
 4807TIP3   OH235835   2.124   3.593  14.280  0.1253  0.1622 -0.5524
 4807TIP3    H135836   2.078   3.673  14.303  0.0219 -0.3837  1.3143
 4807TIP3    H235837   2.057   3.537  14.241 -0.5361 -0.1381  0.9501
 4808TIP3   OH235838   3.796   5.647  14.888 -0.2933 -0.3758  0.2046
 4808TIP3    H135839   3.832   5.721  14.838 -1.5451  1.1304  1.4042
 4808TIP3    H235840   3.872   5.611  14.934  0.6679 -1.0664 -1.8141
 4809TIP3   OH235841   6.266   3.862   4.711 -0.1765 -0.2285 -0.2864
 4809TIP3    H135842   6.223   3.801   4.771 -2.6235  1.0229 -0.6485
 4809TIP3    H235843   6.310   3.805   4.647 -1.1959 -1.6071  0.1862
 4810TIP3   OH235844   0.892   4.595   5.945  0.2567 -0.0706 -0.2365
 4810TIP3    H135845   0.912   4.521   6.002 -2.1193 -1.2279 -0.7733
 4810TIP3    H235846   0.841   4.654   5.999 -0.1445 -0.1351 -0.5351
 4811TIP3   OH235847   5.887   6.252  13.143 -0.8854  0.6432  0.3121
 4811TIP3    H135848   5.948   6.326  13.142 -0.8023  0.5925  0.9107
 4811TIP3    H235849   5.874   6.230  13.051  0.9251 -0.0876  0.1744
 4812TIP3   OH235850   2.021   1.165   4.402 -0.0521  0.1595 -0.1472
 4812TIP3    H135851   2.066   1.227   4.346  1.1477  0.6955  1.3454
 4812TIP3    H235852   1.958   1.121   4.344  1.8305 -0.0696 -2.1212
 4813TIP3   OH235853   2.637   1.000  14.714 -0.1939 -0.2891 -0.1010
 4813TIP3    H135854   2.663   0.915  14.750  1.4318 -0.2728 -1.1263
 4813TIP3    H235855   2.542   0.997  14.711 -0.3446 -0.8961  2.6838
 4814TIP3   OH235856   4.842   2.852   2.459 -0.6427 -0.6022  1.1654
 4814TIP3    H135857   4.771   2.876   2.518 -1.6173  0.0105 -0.2040
 4814TIP3    H235858   4.854   2.929   2.403  0.8676 -0.8290  1.1272
 4815TIP3   OH235859   0.194   5.635  13.925  0.2310  0.7028 -0.1662
 4815TIP3    H135860   0.145   5.596  13.853  0.7197  0.4658 -0.3751
 4815TIP3    H235861   0.133   5.696  13.965 -0.4229  0.0109 -0.0784
 4816TIP3   OH235862   1.894   0.304   3.456  0.2149  0.1824 -0.5006
 4816TIP3    H135863   1.972   0.248   3.468  1.5328  1.8976 -0.7535
 4816TIP3    H235864   1.833   0.274   3.524  0.7933 -1.6548 -0.7268
 4817TIP3   OH235865   0.316   1.292   5.604  0.3211 -0.1539  0.4400
 4817TIP3    H135866   0.294   1.384   5.596  1.3342  0.1203  0.6582
 4817TIP3    H235867   0.257   1.259   5.672  0.3213  0.4523  0.7346
 4818TIP3   OH235868   2.126   2.058  15.466  0.0533  0.3886  1.0736
 4818TIP3    H135869   2.139   2.135  15.521  0.4662 -1.0019  3.0144
 4818TIP3    H235870   2.030   2.048  15.462 -0.0884  1.8482 -0.5237
 4819TIP3   OH235871   1.011   5.479  12.724 -0.1422  0.2471  0.5954
 4819TIP3    H135872   0.936   5.455  12.778 -0.3659  2.2406  1.2369
 4819TIP3    H235873   1.087   5.468  12.781  0.1490 -1.9937 -0.1230
 4820TIP3   OH235874   1.612   0.092  16.474 -0.2941  0.2863  0.4398
 4820TIP3    H135875   1.676   0.147  16.428 -1.6731  1.4784 -0.1206
 4820TIP3    H235876   1.527   0.133  16.456 -1.0242  0.1494  3.1179
 4821TIP3   OH235877   1.952   6.462  12.066 -0.1212  0.3114 -0.5570
 4821TIP3    H135878   1.986   6.483  11.979  1.3167 -0.5762 -0.2350
 4821TIP3    H235879   2.014   6.503  12.126 -0.3982 -0.1476  0.0531
 4822TIP3   OH235880   4.976   2.056   3.640  0.1829 -0.0624  0.5342
 4822TIP3    H135881   5.064   2.042   3.605 -1.0420 -1.9676 -2.1251
 4822TIP3    H235882   4.953   1.974   3.683 -0.7038  0.0194  0.2360
 4823TIP3   OH235883   3.864   0.070   4.196  0.2939 -0.0876  0.3605
 4823TIP3    H135884   3.919   0.078   4.118 -1.5107  0.0339 -0.9674
 4823TIP3    H235885   3.915   0.015   4.256  1.2970 -1.0732 -1.3236
 4824TIP3   OH235886   2.951   2.246   3.470 -0.4280 -0.5512  0.2569
 4824TIP3    H135887   2.919   2.179   3.408 -2.5496  1.9062 -1.5554
 4824TIP3    H235888   3.028   2.283   3.428  0.1891 -1.1918  0.8056
 4825TIP3   OH235889   5.391   0.003   5.422 -0.1504 -0.3319 -0.2383
 4825TIP3    H135890   5.301   0.019   5.451 -0.7455 -2.7242 -0.5509
 4825TIP3    H235891   5.442   0.002   5.503 -0.5179  0.3833  0.0074
 4826TIP3   OH235892   4.833   6.797  11.469 -0.1279 -0.2990 -0.7013
 4826TIP3    H135893   4.768   6.864  11.490 -0.5531 -1.0081  0.3325
 4826TIP3    H235894   4.901   6.844  11.420 -1.5434  0.3935 -2.0960
 4827TIP3   OH235895   3.907   1.147   2.366 -0.8414 -0.4652 -0.7744
 4827TIP3    H135896   3.951   1.097   2.435 -0.3246  1.6357  0.4910
 4827TIP3    H235897   3.817   1.157   2.398 -1.5544 -2.2998 -2.0237
 4828TIP3   OH235898   4.070   0.226   1.384 -0.1494  0.2179 -0.8457
 4828TIP3    H135899   4.165   0.228   1.375  0.0778  1.7168  1.1852
 4828TIP3    H235900   4.052   0.146   1.433  0.2285  0.6622  0.0345
 4829TIP3   OH235901   6.740   2.939   4.244 -0.5472  0.4237  0.2565
 4829TIP3    H135902   6.718   2.949   4.337  1.1194 -0.0752  0.7401
 4829TIP3    H235903   6.800   3.011   4.226 -0.4723  0.2190 -0.3114
 4830TIP3   OH235904   5.091   6.368   2.484 -0.2473  0.0820  0.5520
 4830TIP3    H135905   5.032   6.358   2.409 -1.1647  0.9899  1.1204
 4830TIP3    H235906   5.119   6.460   2.480 -0.0931  0.0662  1.1623
 4831TIP3   OH235907   5.499   5.462  15.788 -0.8570 -1.0693  0.0853
 4831TIP3    H135908   5.479   5.517  15.864  0.3998 -1.7593  0.9493
 4831TIP3    H235909   5.552   5.390  15.823  1.0902 -0.5884 -1.6545
 4832TIP3   OH235910   6.329   2.784   4.359 -0.1738 -0.0368  0.0030
 4832TIP3    H135911   6.343   2.761   4.451 -0.4132  0.8829  0.2824
 4832TIP3    H235912   6.238   2.758   4.341 -0.0011 -0.5803 -0.0913
 4833TIP3   OH235913   2.000   4.003   4.952 -0.6508 -0.6844 -0.2754
 4833TIP3    H135914   1.904   4.002   4.952 -0.7373  1.1578  1.6842
 4833TIP3    H235915   2.024   4.003   5.045  1.2077  0.0230 -0.7156
 4834TIP3   OH235916   6.190   0.127   2.901  0.2957  0.5155  0.1569
 4834TIP3    H135917   6.185   0.219   2.925  0.4524  0.2123  1.4042
 4834TIP3    H235918   6.263   0.093   2.953  1.4451  0.0798 -1.6383
 4835TIP3   OH235919   3.804   4.387   0.862  0.1974 -0.5693  0.1738
 4835TIP3    H135920   3.891   4.386   0.822 -0.4156  1.6696 -1.3851
 4835TIP3    H235921   3.743   4.379   0.788 -0.9712 -1.0448  1.1384
 4836TIP3   OH235922   2.884   2.673   5.743  0.1418 -0.2871  0.2130
 4836TIP3    H135923   2.879   2.716   5.828 -0.0602  0.7175 -0.3021
 4836TIP3    H235924   2.878   2.579   5.764 -0.0496 -0.0509  1.2855
 4837TIP3   OH235925   4.415   3.492  15.646  0.2205 -0.2260  0.2893
 4837TIP3    H135926   4.325   3.477  15.674  0.3714 -0.5643  0.6030
 4837TIP3    H235927   4.441   3.573  15.691  0.2657 -0.4474  0.6702
 4838TIP3   OH235928   3.879   5.085   1.261  0.2440  0.3141 -0.1814
 4838TIP3    H135929   3.867   4.990   1.265  0.9511  0.2061 -0.4354
 4838TIP3    H235930   3.852   5.117   1.347 -1.5958  0.0892 -0.6343
 4839TIP3   OH235931   1.684   5.865  15.850 -0.0162  0.3627 -0.0651
 4839TIP3    H135932   1.620   5.822  15.907 -0.8519  0.5652 -0.8223
 4839TIP3    H235933   1.676   5.820  15.767 -0.6286  1.6949 -0.7636
 4840TIP3   OH235934   2.268   5.827   4.518  0.0105  0.7798 -1.2818
 4840TIP3    H135935   2.249   5.781   4.436  1.6626 -0.9509 -0.7651
 4840TIP3    H235936   2.358   5.802   4.539 -0.4288  1.0301  1.1426
 4841TIP3   OH235937   3.754   2.115  11.495 -0.4727  0.0875  0.2311
 4841TIP3    H135938   3.749   2.210  11.480 -0.7444 -0.1031 -0.9155
 4841TIP3    H235939   3.667   2.092  11.530 -0.7157  0.1211 -0.3398
 4842TIP3   OH235940   3.343   3.755   1.878 -0.1496 -0.2914 -0.2240
 4842TIP3    H135941   3.356   3.741   1.971 -0.0656 -0.6254 -0.2851
 4842TIP3    H235942   3.427   3.731   1.838 -1.2075 -3.6794 -0.7516
 4843TIP3   OH235943   6.315   6.579  11.838  0.3748  0.1627  0.3397
 4843TIP3    H135944   6.232   6.532  11.838  1.4969 -1.9576 -0.8491
 4843TIP3    H235945   6.375   6.522  11.886  1.2364  1.5180  0.9372
 4844TIP3   OH235946   4.338   2.119  16.412 -0.5962  0.7416 -0.0729
 4844TIP3    H135947   4.246   2.145  16.418 -0.1690  2.4041 -0.1446
 4844TIP3    H235948   4.370   2.160  16.332 -0.1918 -1.2530 -1.0080
 4845TIP3   OH235949   3.902   4.160   2.606 -0.0798 -0.2943  0.9521
 4845TIP3    H135950   3.897   4.065   2.616  0.1186 -0.2595  1.4093
 4845TIP3    H235951   3.880   4.194   2.693  1.7150  0.0241  1.3191
 4846TIP3   OH235952   0.717   0.521   1.973  0.0681 -0.0060 -0.5475
 4846TIP3    H135953   0.626   0.490   1.972 -0.1575  0.6101 -0.0008
 4846TIP3    H235954   0.715   0.599   2.029  0.8165  0.3808 -1.0413
 4847TIP3   OH235955   1.492   1.947   4.076 -0.5229 -0.1794 -0.4842
 4847TIP3    H135956   1.513   2.037   4.053 -0.8236 -0.2096 -0.8877
 4847TIP3    H235957   1.485   1.901   3.992  1.6352 -1.0487 -0.2515
 4848TIP3   OH235958   0.329   5.085   2.373 -0.0777 -0.1696 -0.3371
 4848TIP3    H135959   0.417   5.053   2.354  0.2415  0.3687  0.2077
 4848TIP3    H235960   0.340   5.179   2.387 -0.2675 -0.4784  2.4330
 4849TIP3   OH235961   2.330   1.670   1.427  0.3268  0.0641  0.1588
 4849TIP3    H135962   2.328   1.735   1.497 -1.9212 -1.2661  1.4452
 4849TIP3    H235963   2.322   1.586   1.472  0.1517 -0.9258 -1.6348
 4850TIP3   OH235964   4.332   3.204   2.251  0.4874 -0.8618  0.5233
 4850TIP3    H135965   4.333   3.131   2.312 -2.2537 -0.6858  0.9349
 4850TIP3    H235966   4.261   3.183   2.190  0.8757  0.5913 -0.4782
 4851TIP3   OH235967   3.944   3.321   4.945 -0.7048 -0.0844  0.1070
 4851TIP3    H135968   3.923   3.389   4.881  0.0925 -0.4668 -0.5819
 4851TIP3    H235969   3.861   3.302   4.989 -0.9552  1.2554  0.2411
 4852TIP3   OH235970   6.225   5.601   3.529  0.0849 -0.4122 -0.0484
 4852TIP3    H135971   6.185   5.580   3.444  2.1508  0.8669 -1.4291
 4852TIP3    H235972   6.152   5.607   3.589 -1.4283 -1.7341 -1.6463
 4853TIP3   OH235973   5.399   3.527  11.422  0.5963 -0.3356 -0.1884
 4853TIP3    H135974   5.385   3.557  11.332  1.0042  0.1622 -0.0920
 4853TIP3    H235975   5.412   3.608  11.472 -2.4830 -0.3514  0.8587
 4854TIP3   OH235976   1.384   6.434  12.680  0.3451 -0.4460 -0.5212
 4854TIP3    H135977   1.312   6.496  12.667 -0.2445 -1.2064 -0.9750
 4854TIP3    H235978   1.405   6.441  12.773 -2.9654 -2.9431  0.6437
 4855TIP3   OH235979   5.799   2.008  14.747  0.1269 -0.9254 -0.2841
 4855TIP3    H135980   5.775   1.920  14.720 -1.4344 -0.1928 -1.4313
 4855TIP3    H235981   5.877   2.029  14.696 -0.7179 -0.8922 -1.6029
 4856TIP3   OH235982   3.862   4.237   2.885 -0.0021 -0.0953 -0.1554
 4856TIP3    H135983   3.858   4.156   2.937 -1.0436  0.7360  1.1336
 4856TIP3    H235984   3.939   4.283   2.919  0.0899 -0.1525 -0.2859
 4857TIP3   OH235985   1.242   6.752  13.717 -0.0617  0.2280  0.0078
 4857TIP3    H135986   1.263   6.844  13.703  0.5877  0.1310  0.2758
 4857TIP3    H235987   1.290   6.729  13.797  1.1319 -0.7714 -0.9628
 4858TIP3   OH235988   5.965   3.845   3.768 -0.6282  0.3376 -0.7503
 4858TIP3    H135989   6.051   3.880   3.743 -0.0242 -1.2675 -1.0428
 4858TIP3    H235990   5.963   3.850   3.863 -0.0439  0.0241 -0.7203
 4859TIP3   OH235991   3.091   6.005   5.965 -0.7058  0.5260  0.0264
 4859TIP3    H135992   3.036   5.962   5.899 -1.3368 -0.4374  1.1643
 4859TIP3    H235993   3.178   6.010   5.924 -0.5561 -1.9619 -0.1222
 4860TIP3   OH235994   5.715   5.841   5.561 -0.3950 -0.1855  0.5061
 4860TIP3    H135995   5.631   5.795   5.555 -0.1007 -0.7345  0.5473
 4860TIP3    H235996   5.745   5.849   5.471  0.0370 -0.9878  0.5697
 4861TIP3   OH235997   6.506   0.890   3.221  0.5547  0.1811 -0.2427
 4861TIP3    H135998   6.516   0.795   3.227 -0.4767 -0.0682 -1.8985
 4861TIP3    H235999   6.421   0.907   3.263  0.6258  0.3425 -0.1653
 4862TIP3   OH236000   4.509   2.195   5.627  0.7161 -0.2161 -0.4799
 4862TIP3    H136001   4.529   2.288   5.635 -1.7106  0.2196  1.9289
 4862TIP3    H236002   4.578   2.151   5.677  0.2206  0.5558  0.9127
 4863TIP3   OH236003   2.391   5.897   1.289  0.7877  0.2423  0.5484
 4863TIP3    H136004   2.403   5.939   1.374 -0.9980  1.1234  0.3947
 4863TIP3    H236005   2.391   5.969   1.226  1.1100 -0.3175 -0.1075
 4864TIP3   OH236006   2.842   3.658   6.224 -0.1870  0.5116 -0.3589
 4864TIP3    H136007   2.750   3.668   6.199 -0.7232 -0.5169  1.1048
 4864TIP3    H236008   2.843   3.585   6.285  1.5492  0.7943  0.0048
 4865TIP3   OH236009   3.197   0.395   2.094 -0.1033 -0.1584  0.1147
 4865TIP3    H136010   3.163   0.484   2.100  1.5469  0.4104  3.3669
 4865TIP3    H236011   3.118   0.340   2.095 -1.1159  1.1743 -1.1396
 4866TIP3   OH236012   5.434   1.486   0.738  0.2619  0.2419  0.3445
 4866TIP3    H136013   5.393   1.564   0.701 -2.1581 -2.2067 -2.7811
 4866TIP3    H236014   5.404   1.484   0.829 -1.4395  1.8178 -0.1162
 4867TIP3   OH236015   4.434   0.185   4.856 -0.0152 -0.4482 -0.2289
 4867TIP3    H136016   4.344   0.214   4.870  0.0623 -0.5511  0.5809
 4867TIP3    H236017   4.430   0.089   4.862  0.1288 -0.4593 -0.3016
 4868TIP3   OH236018   1.343   5.131  15.178 -0.2824 -0.0762 -0.0724
 4868TIP3    H136019   1.265   5.128  15.121 -2.2337  2.5666  2.1290
 4868TIP3    H236020   1.393   5.206  15.145 -1.0787  1.0400  1.0973
 4869TIP3   OH236021   4.901   1.252  13.333 -0.4293 -1.0156  0.3210
 4869TIP3    H136022   4.863   1.311  13.399 -0.0903  1.4439 -1.5219
 4869TIP3    H236023   4.935   1.178  13.384 -1.7800 -0.1308  2.6826
 4870TIP3   OH236024   1.103   6.059   0.745  0.1668  0.4566  0.0887
 4870TIP3    H136025   1.044   6.076   0.671 -0.6717  1.0462  0.8702
 4870TIP3    H236026   1.189   6.044   0.704 -0.5586 -0.7416 -1.0947
 4871TIP3   OH236027   1.933   0.133  15.661  0.6280 -0.1274  0.3103
 4871TIP3    H136028   2.000   0.201  15.654  0.5756 -0.0096  0.9613
 4871TIP3    H236029   1.890   0.149  15.744  1.6930 -1.8999  1.2872
 4872TIP3   OH236030   3.691   0.501   3.153 -0.1148 -0.4923 -0.1850
 4872TIP3    H136031   3.697   0.568   3.086 -0.2322  0.0927  0.3829
 4872TIP3    H236032   3.762   0.440   3.132  2.3743  1.6657  1.3057
 4873TIP3   OH236033   3.333   0.016  13.931 -0.1061  0.0928  0.1054
 4873TIP3    H136034   3.320   0.087  13.868  3.1905  1.5232  0.8409
 4873TIP3    H236035   3.259   0.025  13.992  0.3001  3.0978  0.3167
 4874TIP3   OH236036   5.121   3.269  12.630  0.2652  0.1785 -0.5689
 4874TIP3    H136037   5.077   3.354  12.617  1.1090  0.5599 -0.9897
 4874TIP3    H236038   5.210   3.292  12.656  0.1787 -0.5938  0.4559
 4875TIP3   OH236039   1.015   0.338  14.746  0.1960  0.5250  1.2603
 4875TIP3    H136040   0.970   0.341  14.830 -1.9735  0.2641  0.2046
 4875TIP3    H236041   0.985   0.256  14.706 -0.7536  1.7269 -0.6852
 4876TIP3   OH236042   3.976   2.767  12.859 -0.1049 -0.5090 -0.1310
 4876TIP3    H136043   3.939   2.719  12.785  1.7032 -2.1793 -0.0474
 4876TIP3    H236044   4.053   2.716  12.884  0.2512  0.9013  1.8813
 4877TIP3   OH236045   0.395   3.746   3.656  0.3504  0.5653 -0.2757
 4877TIP3    H136046   0.381   3.778   3.745  0.2012  1.5595 -0.6523
 4877TIP3    H236047   0.314   3.700   3.634 -0.7021  2.5752 -0.8477
 4878TIP3   OH236048   1.087   0.302  10.945 -0.5803 -0.0697  0.3023
 4878TIP3    H136049   1.099   0.294  10.851  0.8565 -0.4469  0.4845
 4878TIP3    H236050   1.028   0.376  10.956  2.3866  2.6978 -0.7919
 4879TIP3   OH236051   2.898   6.173   3.676  0.1836  0.1085  0.2049
 4879TIP3    H136052   2.893   6.246   3.614 -1.3126 -0.6053 -0.5842
 4879TIP3    H236053   2.806   6.154   3.697  0.6473  0.5484  2.9529
 4880TIP3   OH236054   2.011   1.550  15.382 -0.5582  0.2482  0.5488
 4880TIP3    H136055   2.086   1.557  15.323 -0.8016 -0.7775  0.0861
 4880TIP3    H236056   1.941   1.599  15.339 -0.4481  0.3435  0.4780
 4881TIP3   OH236057   1.965   5.400  16.361  0.5046  0.3442 -0.7506
 4881TIP3    H136058   1.903   5.348  16.310  0.5309  2.8298 -3.5709
 4881TIP3    H236059   2.036   5.338  16.382  0.3957 -0.9448 -3.6456
 4882TIP3   OH236060   2.433   3.227  12.654 -0.3378 -0.0706  0.3512
 4882TIP3    H136061   2.512   3.279  12.673 -0.8661  1.0534 -0.4441
 4882TIP3    H236062   2.467   3.143  12.625  0.5934  0.4172 -0.0326
 4883TIP3   OH236063   5.232   5.809  15.244 -0.1865  0.9980  0.3525
 4883TIP3    H136064   5.178   5.884  15.222 -0.6021 -0.0080 -2.4808
 4883TIP3    H236065   5.172   5.734  15.241  0.9440  0.0716 -1.1581
 4884TIP3   OH236066   0.648   3.676  15.205 -0.3768  0.0088  0.0553
 4884TIP3    H136067   0.704   3.645  15.135  0.0821  0.7594  0.0850
 4884TIP3    H236068   0.701   3.739  15.253 -1.2327  0.7302  0.0897
 4885TIP3   OH236069   5.013   1.754  10.661 -0.6756 -0.0508  0.6499
 4885TIP3    H136070   4.967   1.771  10.579 -2.3149  0.9816  1.7126
 4885TIP3    H236071   5.090   1.811  10.659 -1.5377  1.1463  0.4727
 4886TIP3   OH236072   0.754   2.723  15.937  0.6215  0.4319 -1.1797
 4886TIP3    H136073   0.707   2.648  15.902  0.6938 -0.5028  0.5699
 4886TIP3    H236074   0.836   2.725  15.888  0.1189  0.0997 -2.0524
 4887TIP3   OH236075   1.992   0.715   3.511  0.6723 -0.6498  0.2902
 4887TIP3    H136076   1.923   0.716   3.577  0.6599 -1.7676  0.3112
 4887TIP3    H236077   2.061   0.770   3.548  0.9587 -1.8246  1.5570
 4888TIP3   OH236078   6.166   3.786   0.652 -0.7731 -0.4084 -0.4911
 4888TIP3    H136079   6.126   3.873   0.643 -0.0630  0.0668  0.6935
 4888TIP3    H236080   6.258   3.800   0.633 -0.3267 -0.5154  1.3965
 4889TIP3   OH236081   0.057   2.470   4.478 -0.2820 -0.0980 -0.7925
 4889TIP3    H136082   0.082   2.528   4.405  0.0102 -0.7705 -1.2368
 4889TIP3    H236083   0.108   2.390   4.463  0.2814 -0.0012  0.5234
 4890TIP3   OH236084   2.588   4.504   3.451 -0.6465  0.1128  0.3520
 4890TIP3    H136085   2.643   4.425   3.449 -1.2676 -0.3476 -1.5158
 4890TIP3    H236086   2.525   4.489   3.380 -2.6949  0.9614  1.9261
 4891TIP3   OH236087   6.215   6.277   2.495  0.2632  0.3313 -0.0783
 4891TIP3    H136088   6.164   6.344   2.542  2.1995  1.8595 -0.0387
 4891TIP3    H236089   6.178   6.194   2.525 -2.2432  1.3311 -0.1277
 4892TIP3   OH236090   1.794   1.395  15.204 -0.2847  0.5264  0.0062
 4892TIP3    H136091   1.804   1.490  15.212 -1.9183  0.8239 -0.9252
 4892TIP3    H236092   1.740   1.370  15.279  0.8459  0.1808  0.7206
 4893TIP3   OH236093   5.076   0.249  12.956  0.0064  0.4341 -0.2101
 4893TIP3    H136094   5.123   0.167  12.974 -0.4819  0.4392  1.1831
 4893TIP3    H236095   5.124   0.316  13.005 -1.6318  0.3705  1.6183
 4894TIP3   OH236096   4.973   3.504   0.428 -0.1659 -0.6199 -0.2190
 4894TIP3    H136097   5.002   3.468   0.344  1.4058 -1.8348  0.7860
 4894TIP3    H236098   4.931   3.587   0.405 -0.6192 -1.3579 -2.2760
 4895TIP3   OH236099   5.393   4.591   0.160 -0.1190 -0.8507  0.6775
 4895TIP3    H136100   5.329   4.528   0.192 -1.8010  0.6456  0.4120
 4895TIP3    H236101   5.361   4.616   0.073  1.0869 -0.3988  0.3398
 4896TIP3   OH236102   3.597   1.785  11.972 -0.2038  0.4726 -0.3908
 4896TIP3    H136103   3.659   1.855  11.992  0.4490  0.1613 -1.2801
 4896TIP3    H236104   3.646   1.723  11.919 -0.7558 -0.7210  0.4547
 4897TIP3   OH236105   6.213   5.252   5.136 -0.4141 -0.3244 -0.0045
 4897TIP3    H136106   6.291   5.306   5.127  0.6587 -1.5657  1.4001
 4897TIP3    H236107   6.152   5.287   5.071  0.4289  2.1879  0.4688
 4898TIP3   OH236108   2.536   6.556  14.477 -0.3187  0.1473  0.0775
 4898TIP3    H136109   2.443   6.536  14.464 -0.4785  0.7202  0.3015
 4898TIP3    H236110   2.557   6.618  14.408 -0.3193  0.6599  0.5317
 4899TIP3   OH236111   1.711   5.764   5.472 -0.3489  0.2659 -0.4705
 4899TIP3    H136112   1.675   5.789   5.557 -1.4115 -0.1865 -0.7694
 4899TIP3    H236113   1.787   5.709   5.494 -1.9447 -1.7958  0.2565
 4900TIP3   OH236114   4.167   3.608   5.563  0.0339  0.3079 -0.0872
 4900TIP3    H136115   4.117   3.673   5.515 -1.9181 -1.9818 -1.3715
 4900TIP3    H236116   4.101   3.550   5.601  1.6587 -1.1416  0.6630
 4901TIP3   OH236117   2.023   3.572  11.743  0.3541  1.0149  0.1595
 4901TIP3    H136118   2.034   3.496  11.686 -0.1742  0.9203  0.1746
 4901TIP3    H236119   1.975   3.635  11.689  0.0012  0.9901  0.4373
 4902TIP3   OH236120   1.289   6.836  15.630  0.6032 -0.1883  0.3277
 4902TIP3    H136121   1.345   6.904  15.592  1.2891 -0.9127  0.0278
 4902TIP3    H236122   1.273   6.775  15.559  0.0026 -0.3610  0.6026
 4903TIP3   OH236123   1.303   4.857   4.603  0.4099 -0.3811  0.0474
 4903TIP3    H136124   1.265   4.882   4.519 -1.7071 -0.8830  0.7847
 4903TIP3    H236125   1.366   4.926   4.623 -0.2884  0.6458 -1.1621
 4904TIP3   OH236126   4.006   3.853  13.803 -0.3473  0.4359  0.4147
 4904TIP3    H136127   4.041   3.770  13.834  2.5039  0.6082 -1.9539
 4904TIP3    H236128   3.915   3.834  13.780  0.4067 -2.2324 -0.6797
 4905TIP3   OH236129   1.128   3.755   0.078 -0.1985 -0.3700  0.2563
 4905TIP3    H136130   1.161   3.816   0.145  1.3525 -0.2272 -0.5883
 4905TIP3    H236131   1.036   3.745   0.099 -0.1184  0.9547  1.4452
 4906TIP3   OH236132   5.430   5.494  11.781  0.4636  0.0858 -0.2337
 4906TIP3    H136133   5.489   5.550  11.731  1.1431 -0.2813  0.1407
 4906TIP3    H236134   5.486   5.423  11.813 -0.2869 -0.5539 -0.3106
 4907TIP3   OH236135   5.913   2.948  13.571 -0.1233  0.2889 -0.6951
 4907TIP3    H136136   5.865   2.963  13.490 -1.3917  0.3587  0.0483
 4907TIP3    H236137   5.846   2.942  13.638  0.6370 -2.7905 -0.0491
 4908TIP3   OH236138   5.640   5.997  12.733  0.4799 -0.1005  0.0554
 4908TIP3    H136139   5.715   5.950  12.697  1.1937  0.7719  0.3626
 4908TIP3    H236140   5.607   6.049  12.660  1.0500  0.5746  0.2570
 4909TIP3   OH236141   1.096   2.223   5.776 -0.2846  0.3459  0.2463
 4909TIP3    H136142   1.018   2.250   5.728 -0.0933 -0.7979 -0.7599
 4909TIP3    H236143   1.157   2.193   5.708  1.5845  2.4410  0.8800
 4910TIP3   OH236144   6.769   5.299   1.684  0.5076 -0.1750  0.0132
 4910TIP3    H136145   6.841   5.236   1.688  0.9671  0.3143 -0.4631
 4910TIP3    H236146   6.747   5.315   1.776  1.1304 -0.1935  0.1710
 4911TIP3   OH236147   4.547   0.701   2.537 -0.1534  0.8746 -0.2485
 4911TIP3    H136148   4.458   0.706   2.571  0.1376  3.3635  0.3255
 4911TIP3    H236149   4.560   0.784   2.491  1.9101  0.6191 -0.2200
 4912TIP3   OH236150   5.860   0.438  16.635  0.0881  0.0027 -0.0407
 4912TIP3    H136151   5.925   0.368  16.644  1.2440  1.1319  0.5827
 4912TIP3    H236152   5.896   0.497  16.569  0.2902  1.2459  1.1437
 4913TIP3   OH236153   3.908   1.910  11.022 -0.5770  0.0225  0.2908
 4913TIP3    H136154   3.960   1.985  10.991  1.6048 -0.4856  2.3828
 4913TIP3    H236155   3.938   1.897  11.112 -2.6034 -1.9396  0.7465
 4914TIP3   OH236156   3.231   0.793  14.481  0.0503  0.4906 -0.3784
 4914TIP3    H136157   3.222   0.831  14.394 -2.4181 -0.2324 -0.5206
 4914TIP3    H236158   3.141   0.786  14.514  0.8291 -0.2197  1.8126
 4915TIP3   OH236159   4.740   4.215   0.033  0.6557  0.2090  0.8561
 4915TIP3    H136160   4.728   4.286   0.097  3.1262  1.0285  0.5318
 4915TIP3    H236161   4.702   4.138   0.076 -1.8075  1.6109  1.3575
 4916TIP3   OH236162   3.917   4.486  14.342  0.5546  0.1573  0.5459
 4916TIP3    H136163   3.897   4.458  14.432  1.3892  1.0404  1.0282
 4916TIP3    H236164   3.916   4.405  14.291  2.8743 -0.8194  1.8919
 4917TIP3   OH236165   4.073   4.877   2.583  0.5245  0.5457  0.2925
 4917TIP3    H136166   4.041   4.925   2.659  0.3944  0.0689  0.5381
 4917TIP3    H236167   4.168   4.877   2.593  0.5827  1.5405 -0.1856
 4918TIP3   OH236168   6.562   5.030   5.735  0.4074 -0.1401 -0.4560
 4918TIP3    H136169   6.609   5.017   5.653  2.2021 -0.2882  0.5376
 4918TIP3    H236170   6.538   5.122   5.735  1.6411  0.1931 -0.5362
 4919TIP3   OH236171   2.024   3.663  14.730  0.0689  0.5445 -0.3513
 4919TIP3    H136172   2.070   3.731  14.681  1.3423  1.1515  1.5701
 4919TIP3    H236173   2.051   3.581  14.688  0.1996  1.0899 -1.3594
 4920TIP3   OH236174   5.782   3.600   1.847  0.6499  0.0616 -0.1863
 4920TIP3    H136175   5.865   3.611   1.802  1.0092  0.4158  0.5540
 4920TIP3    H236176   5.781   3.508   1.874  2.0528  0.6796  2.1949
 4921TIP3   OH236177   3.996   2.581   6.231  0.5885 -0.6485  0.4853
 4921TIP3    H136178   4.046   2.597   6.151  1.0412 -1.4489  0.5941
 4921TIP3    H236179   4.056   2.605   6.302  0.1164  0.2533  0.5899
 4922TIP3   OH236180   1.589   2.572   1.112  0.3153  0.5598 -0.5721
 4922TIP3    H136181   1.519   2.564   1.047  0.4537 -2.4688 -0.4767
 4922TIP3    H236182   1.657   2.624   1.068 -1.1663  1.9686 -1.3218
 4923TIP3   OH236183   1.464   5.990   4.190  0.2524  0.1213  0.2066
 4923TIP3    H136184   1.375   6.026   4.186  0.3740  0.4931  0.7904
 4923TIP3    H236185   1.458   5.918   4.253  0.6787  1.1000  1.4117
 4924TIP3   OH236186   5.085   4.212  16.806  0.5958 -0.1669  0.1082
 4924TIP3    H136187   5.123   4.300  16.803  0.0276  0.0563 -1.4631
 4924TIP3    H236188   5.156   4.156  16.838  2.1319  0.3223 -2.1471
 4925TIP3   OH236189   3.287   4.107   4.786 -0.5063 -0.9374  0.5770
 4925TIP3    H136190   3.364   4.107   4.843  0.7630  0.5914 -1.0295
 4925TIP3    H236191   3.236   4.184   4.815 -0.1718 -0.5191  0.0688
 4926TIP3   OH236192   6.160   2.681   1.878 -0.0833 -0.4336 -0.1277
 4926TIP3    H136193   6.148   2.669   1.972 -1.0523 -1.1143 -0.3259
 4926TIP3    H236194   6.148   2.594   1.841 -0.4460 -0.0406 -0.9577
 4927TIP3   OH236195   0.671   6.812  14.908 -0.0413 -0.0303  0.3555
 4927TIP3    H136196   0.604   6.773  14.853  0.5188  1.2084 -1.3169
 4927TIP3    H236197   0.744   6.750  14.905 -0.2363 -0.2530  0.1897
 4928TIP3   OH236198   3.114   5.459  15.624 -0.4468  0.1203 -0.1493
 4928TIP3    H136199   3.133   5.366  15.635 -0.4965  0.1074 -0.1740
 4928TIP3    H236200   3.018   5.465  15.631 -0.3730  0.3058  0.9013
 4929TIP3   OH236201   1.946   6.836  14.595  0.1769 -0.5250 -0.8529
 4929TIP3    H136202   2.030   6.829  14.549  0.1317 -0.3056 -0.9676
 4929TIP3    H236203   1.905   6.914  14.559  0.3538 -0.0713 -0.1031
 4930TIP3   OH236204   4.673   5.482   5.029 -0.6673  0.3703  0.2592
 4930TIP3    H136205   4.739   5.551   5.030 -0.5491  0.2522  0.6844
 4930TIP3    H236206   4.616   5.501   5.103 -1.5567  0.8912 -0.5318
 4931TIP3   OH236207   0.859   3.644  16.459 -0.1289  0.1025 -0.3517
 4931TIP3    H136208   0.915   3.722  16.462  0.3799 -0.2042 -1.3566
 4931TIP3    H236209   0.775   3.674  16.493  0.1384  1.0293 -0.4676
 4932TIP3   OH236210   6.231   3.748  14.431 -0.4192  0.5798  0.0052
 4932TIP3    H136211   6.243   3.654  14.428  1.0990  0.7586 -2.0891
 4932TIP3    H236212   6.298   3.780  14.491  1.4642  0.5365 -1.9554
 4933TIP3   OH236213   0.655   2.160  13.827  0.2349 -0.4539  0.8186
 4933TIP3    H136214   0.744   2.163  13.794  0.3282 -1.4277  0.9470
 4933TIP3    H236215   0.600   2.153  13.749  0.0106  2.9380  0.5057
 4934TIP3   OH236216   0.488   0.723   0.050  0.1569  0.4274 -0.1366
 4934TIP3    H136217   0.567   0.775   0.063 -0.0738  0.7495 -0.0045
 4934TIP3    H236218   0.501   0.680  -0.034  1.4491 -1.2755  0.8470
 4935TIP3   OH236219   4.655   6.044   2.115 -0.3009  0.1257 -0.0151
 4935TIP3    H136220   4.589   6.112   2.121 -0.3353  0.1388 -0.4887
 4935TIP3    H236221   4.624   5.986   2.045  0.3462  0.3199 -0.4814
 4936TIP3   OH236222   4.536   1.013  14.579 -0.8252 -0.4084 -0.2637
 4936TIP3    H136223   4.455   0.971  14.605 -0.9214 -0.4054 -0.5589
 4936TIP3    H236224   4.509   1.089  14.527 -0.6244 -0.9631 -1.2121
 4937TIP3   OH236225   2.193   5.032   0.333  0.5729 -0.2883 -0.1922
 4937TIP3    H136226   2.208   4.943   0.301  1.1285  0.2655 -1.5482
 4937TIP3    H236227   2.279   5.061   0.364  0.4821 -0.0586 -0.1554
 4938TIP3   OH236228   6.522   4.618   0.506 -0.0832 -0.2571 -0.1461
 4938TIP3    H136229   6.502   4.684   0.573  0.9840  0.1264 -0.1865
 4938TIP3    H236230   6.488   4.655   0.425  2.6425  1.4439 -0.6264
 4939TIP3   OH236231   6.238   0.787   2.680  0.8350  0.4428  0.4280
 4939TIP3    H136232   6.333   0.790   2.668  1.1043 -2.2458  1.0922
 4939TIP3    H236233   6.226   0.797   2.775  1.0415 -4.1654  1.1813
 4940TIP3   OH236234   2.094   4.127  12.738 -0.1563 -0.0011 -0.3176
 4940TIP3    H136235   2.074   4.220  12.750 -0.8131  0.2238 -2.5853
 4940TIP3    H236236   2.188   4.125  12.720 -0.2293  0.3128 -0.7637
 4941TIP3   OH236237   6.213   2.595   2.861 -0.0607  0.0585  0.6996
 4941TIP3    H136238   6.295   2.642   2.845  0.7537 -1.8197 -1.1054
 4941TIP3    H236239   6.154   2.662   2.896  1.4869  2.0355 -0.2234
 4942TIP3   OH236240   1.665   3.242   4.273  0.1335  0.1098 -0.2195
 4942TIP3    H136241   1.638   3.299   4.202 -1.5377 -0.2922  0.0618
 4942TIP3    H236242   1.725   3.296   4.325 -1.3316  1.6054 -0.0101
 4943TIP3   OH236243   0.720   6.651   5.317 -0.0424  0.1260  0.0141
 4943TIP3    H136244   0.705   6.728   5.372 -0.2456 -1.3153  2.0698
 4943TIP3    H236245   0.633   6.612   5.306  0.2967 -0.8676  0.6743
 4944TIP3   OH236246   1.945   0.914  15.727 -0.1174  0.0419 -0.4090
 4944TIP3    H136247   1.896   0.935  15.648  2.2400  1.4120 -1.6149
 4944TIP3    H236248   2.032   0.892  15.697  1.3832  2.3154  1.8505
 4945TIP3   OH236249   3.323   2.652   4.555 -0.4213 -0.0136  0.0736
 4945TIP3    H136250   3.339   2.592   4.482  0.6809 -0.5151  0.6893
 4945TIP3    H236251   3.271   2.601   4.617 -0.2007 -0.0662  0.2211
 4946TIP3   OH236252   0.117   0.302  12.850  0.1354  0.2989 -0.4709
 4946TIP3    H136253   0.106   0.349  12.767 -2.1536 -1.8122 -1.4862
 4946TIP3    H236254   0.030   0.302  12.890  0.3837 -1.7580  0.1789
 4947TIP3   OH236255   1.380   3.478   2.428  0.1438  0.4493  0.0327
 4947TIP3    H136256   1.292   3.483   2.392 -0.0972  0.4142  0.6003
 4947TIP3    H236257   1.369   3.429   2.510  0.7751 -0.0348 -0.1675
 4948TIP3   OH236258   0.965   6.046  13.802  0.3006 -0.4381  0.2986
 4948TIP3    H136259   0.926   5.965  13.836  1.5619 -1.1228  0.1667
 4948TIP3    H236260   1.040   6.017  13.750  0.8903  0.8356  0.3933
 4949TIP3   OH236261   0.571   3.126   0.040 -0.5512  0.5486  0.2818
 4949TIP3    H136262   0.610   3.105   0.125 -1.3712 -1.4170  0.2202
 4949TIP3    H236263   0.645   3.134  -0.019 -0.0851 -1.3155  0.5403
 4950TIP3   OH236264   2.973   6.588  16.251 -0.1577  0.3869 -0.2753
 4950TIP3    H136265   2.993   6.680  16.234 -0.4106  0.6002  0.5243
 4950TIP3    H236266   2.878   6.582  16.246 -0.3737  0.7167  2.0660
 4951TIP3   OH236267   2.783   4.575   1.866 -0.6013  0.1277 -0.3374
 4951TIP3    H136268   2.712   4.616   1.817 -1.0641 -0.7968 -0.4530
 4951TIP3    H236269   2.853   4.563   1.801 -2.3990 -4.2718 -1.8625
 4952TIP3   OH236270   5.556   5.815   0.729  0.1629 -0.5840 -0.1012
 4952TIP3    H136271   5.593   5.738   0.686 -0.9480 -1.6820  0.8330
 4952TIP3    H236272   5.477   5.783   0.772  0.3431  0.8127  1.3711
 4953TIP3   OH236273   2.621   6.127   1.789 -0.2229 -0.3563 -0.6503
 4953TIP3    H136274   2.690   6.152   1.850 -1.2389  0.0751  0.3656
 4953TIP3    H236275   2.643   6.037   1.764  0.0120 -0.6810  0.6615
 4954TIP3   OH236276   5.715   1.354  16.012  0.4000  0.0688  0.5459
 4954TIP3    H136277   5.619   1.357  16.014  0.3416 -0.9364 -0.0993
 4954TIP3    H236278   5.741   1.339  16.103  0.0130  1.4326  0.9088
 4955TIP3   OH236279   3.171   3.776   0.065 -0.5683 -0.3948  0.2469
 4955TIP3    H136280   3.259   3.808   0.083 -0.0352 -1.0559 -1.0931
 4955TIP3    H236281   3.115   3.827   0.124  0.7983 -0.7368  1.9435
 4956TIP3   OH236282   6.425   1.357   5.828 -0.4691 -0.0513 -0.6691
 4956TIP3    H136283   6.371   1.435   5.837 -0.4718 -0.2307  1.4309
 4956TIP3    H236284   6.511   1.383   5.862 -0.5283 -0.9909  0.2654
 4957TIP3   OH236285   4.608   4.690   4.224 -0.0289  0.0581  0.8943
 4957TIP3    H136286   4.553   4.644   4.160  0.8753 -0.3783  0.4065
 4957TIP3    H236287   4.678   4.628   4.245  1.6185  1.3807 -0.2989
 4958TIP3   OH236288   0.217   1.462  13.730  0.1296 -0.2864 -0.2956
 4958TIP3    H136289   0.129   1.440  13.762  0.4223 -0.5930  0.3123
 4958TIP3    H236290   0.206   1.549  13.690 -0.6805 -0.7953 -1.2407
 4959TIP3   OH236291   3.077   6.542   1.959 -0.3094  0.1173  0.1540
 4959TIP3    H136292   3.054   6.635   1.965 -0.6051  0.1367 -1.0185
 4959TIP3    H236293   3.017   6.507   1.893  1.5096 -0.3306 -1.3489
 4960TIP3   OH236294   6.259   0.360   1.823 -0.3993  0.2123  0.2977
 4960TIP3    H136295   6.230   0.291   1.763  1.2049  0.0580 -0.3616
 4960TIP3    H236296   6.216   0.439   1.792 -0.0078  0.0276 -0.7445
 4961TIP3   OH236297   0.033   6.674   4.197  0.2384 -0.0786 -0.4448
 4961TIP3    H136298  -0.025   6.618   4.248 -1.0578  1.0160 -0.6592
 4961TIP3    H236299   0.119   6.633   4.205 -0.3961 -1.2819  0.5782
 4962TIP3   OH236300   5.963   3.835   4.632  0.0049 -0.8302  0.6121
 4962TIP3    H136301   6.049   3.855   4.594 -0.3836 -1.4082 -0.6017
 4962TIP3    H236302   5.965   3.740   4.645  0.6121 -0.5320  3.2979
 4963TIP3   OH236303   4.302   1.655  13.514 -0.4581  0.0615  0.4497
 4963TIP3    H136304   4.389   1.682  13.545 -0.3608 -1.1237  1.2579
 4963TIP3    H236305   4.241   1.704  13.570 -0.3121  0.2359  0.4600
 4964TIP3   OH236306   5.061   5.913   9.768 -0.2902 -0.1901 -0.3766
 4964TIP3    H136307   5.029   5.928   9.857 -1.2937 -0.4504 -0.6819
 4964TIP3    H236308   5.097   5.998   9.741 -0.5351  0.0533  0.0506
 4965TIP3   OH236309   1.443   1.450  16.530  0.0923  0.1643 -0.2741
 4965TIP3    H136310   1.445   1.396  16.451 -2.7249  3.4433 -2.8950
 4965TIP3    H236311   1.362   1.425  16.574 -0.1641  0.7802 -0.3851
 4966TIP3   OH236312   3.510   2.941  15.436  0.4715  0.4104 -0.0444
 4966TIP3    H136313   3.577   2.990  15.484  0.9795  0.7346 -1.0591
 4966TIP3    H236314   3.474   2.880  15.500  1.5306  0.4415  0.5981
 4967TIP3   OH236315   2.123   3.605   5.223 -0.0647  0.1133 -0.1203
 4967TIP3    H136316   2.175   3.535   5.263 -0.5365  0.4012  1.0327
 4967TIP3    H236317   2.036   3.596   5.262  0.0607  1.7927  0.6344
 4968TIP3   OH236318   3.795   3.836  15.840  0.1628  0.4781  0.1773
 4968TIP3    H136319   3.843   3.801  15.766  1.5584  2.7400 -0.0869
 4968TIP3    H236320   3.844   3.808  15.917 -0.0527 -0.0498  0.1248
 4969TIP3   OH236321   3.929   3.555   0.900  0.1231 -0.5542 -0.1641
 4969TIP3    H136322   4.009   3.570   0.950 -0.1640 -1.5483  0.6407
 4969TIP3    H236323   3.946   3.476   0.850 -0.3372 -0.7343 -0.0374
 4970TIP3   OH236324   3.763   4.026  13.456  0.7573  0.1645  0.5004
 4970TIP3    H136325   3.702   4.067  13.517  0.1081  0.3948 -0.2916
 4970TIP3    H236326   3.836   4.088  13.449  0.9511  0.0267  1.2138
 4971TIP3   OH236327   3.084   1.192  13.364 -0.6389 -0.3610 -0.5617
 4971TIP3    H136328   3.029   1.256  13.409  0.6271  1.9621 -2.1019
 4971TIP3    H236329   3.039   1.176  13.281  0.4065  0.7786 -1.3922
 4972TIP3   OH236330   0.808   5.244  12.154  0.2767  0.2504  0.5351
 4972TIP3    H136331   0.736   5.305  12.164 -0.9684 -1.0909  0.1297
 4972TIP3    H236332   0.766   5.159  12.141  1.9048 -0.9124  2.2047
 4973TIP3   OH236333   3.639   0.607   4.281  0.1825 -0.0451  0.3428
 4973TIP3    H136334   3.710   0.548   4.307  0.4996  0.0243 -0.3589
 4973TIP3    H236335   3.576   0.601   4.353  1.2166  0.4286  1.3120
 4974TIP3   OH236336   2.356   5.241   0.089  0.2327  0.2179  0.4249
 4974TIP3    H136337   2.316   5.165   0.047  1.5400 -0.7737  0.8940
 4974TIP3    H236338   2.299   5.314   0.067 -1.3755 -0.9950  0.4388
 4975TIP3   OH236339   1.638   1.812  12.383 -0.4963  0.0087  0.3214
 4975TIP3    H136340   1.579   1.751  12.337  0.1436  0.0843 -0.6164
 4975TIP3    H236341   1.612   1.899  12.351  1.4552 -0.0830 -1.7215
 4976TIP3   OH236342   2.546   2.796  14.619 -0.0402  0.0995 -0.1526
 4976TIP3    H136343   2.639   2.816  14.615  0.0554  1.1852  3.6256
 4976TIP3    H236344   2.503   2.879  14.597  0.0013  0.4032  0.8561
 4977TIP3   OH236345   2.975   2.620  12.003 -0.8452 -0.0572 -0.3454
 4977TIP3    H136346   3.030   2.570  11.942 -1.1143  0.7448 -1.2790
 4977TIP3    H236347   2.994   2.711  11.983 -0.7636  0.2219  0.9663
 4978TIP3   OH236348   3.213   5.656   4.951  0.3902 -0.0764 -0.1265
 4978TIP3    H136349   3.159   5.594   4.999 -0.2089 -0.3762 -1.1455
 4978TIP3    H236350   3.223   5.617   4.864  0.3693  1.0252 -0.6448
 4979TIP3   OH236351   3.309   5.550  14.490 -0.2661 -0.2345 -0.1308
 4979TIP3    H136352   3.312   5.456  14.476  0.0849 -0.6661  2.4259
 4979TIP3    H236353   3.309   5.587  14.401 -0.2469 -2.5949 -1.1997
 4980TIP3   OH236354   2.943   4.669   2.679 -0.5760  0.4104 -0.1966
 4980TIP3    H136355   2.947   4.574   2.693 -3.7044 -0.1714 -2.0500
 4980TIP3    H236356   2.936   4.706   2.767 -1.8920 -1.3532  0.5060
 4981TIP3   OH236357   6.595   2.403   0.228 -0.4177 -0.0787  0.2914
 4981TIP3    H136358   6.595   2.461   0.152 -1.9917 -0.6007 -0.1288
 4981TIP3    H236359   6.686   2.372   0.234  0.3656  1.9875  0.2320
 4982TIP3   OH236360   2.270   2.203  16.245 -0.8888  0.0742  0.6774
 4982TIP3    H136361   2.356   2.203  16.288 -0.6486 -0.0695  0.2030
 4982TIP3    H236362   2.283   2.153  16.165 -1.4148  0.0708  0.5908
 4983TIP3   OH236363   6.082   4.895  14.498 -0.2128 -0.3336 -0.2690
 4983TIP3    H136364   6.064   4.932  14.584 -0.6701 -0.4123 -0.3256
 4983TIP3    H236365   6.030   4.814  14.496  1.2560 -1.3206  0.0935
 4984TIP3   OH236366   0.432   1.756  15.233  0.1186 -0.0669 -0.2815
 4984TIP3    H136367   0.457   1.785  15.321 -1.9726  0.0066  0.3404
 4984TIP3    H236368   0.455   1.663  15.232 -1.0563 -0.3991  0.8625
 4985TIP3   OH236369   0.869   6.400  12.999  0.2531  0.0125  0.5415
 4985TIP3    H136370   0.868   6.455  13.077  0.6799 -1.9210  1.9954
 4985TIP3    H236371   0.957   6.409  12.964 -0.2625  1.7470 -0.4236
 4986TIP3   OH236372   4.903   4.130   1.353 -0.1228 -0.2856 -0.4952
 4986TIP3    H136373   4.941   4.092   1.433  1.1526  0.3421 -0.7766
 4986TIP3    H236374   4.822   4.171   1.382  0.4402  0.1318  0.5316
 4987TIP3   OH236375   0.781   1.089   1.785 -0.2975 -0.9697  0.8891
 4987TIP3    H136376   0.783   1.133   1.699  1.5262  2.5017  2.5001
 4987TIP3    H236377   0.688   1.084   1.807 -0.6944 -0.1805 -0.4785
 4988TIP3   OH236378   5.312   0.395   4.436  0.1177  0.7729 -0.3574
 4988TIP3    H136379   5.404   0.418   4.447 -0.2320  2.9628 -1.5507
 4988TIP3    H236380   5.288   0.356   4.520  2.2924 -0.6279 -0.2950
 4989TIP3   OH236381   5.225   1.410  12.069  0.6631  0.1967  0.4915
 4989TIP3    H136382   5.275   1.422  12.150  0.8178  0.2648  0.3865
 4989TIP3    H236383   5.238   1.491  12.020 -0.2020  0.5338  0.8125
 4990TIP3   OH236384   1.242   6.362   2.137 -0.0296  0.1169 -0.1783
 4990TIP3    H136385   1.252   6.267   2.142  1.1224  0.1764 -0.8160
 4990TIP3    H236386   1.166   6.375   2.081 -2.4024 -0.4027  2.7032
 4991TIP3   OH236387   5.683   2.551  16.481 -0.1092 -0.1935 -0.6390
 4991TIP3    H136388   5.617   2.607  16.521 -0.9577 -1.4488 -0.2502
 4991TIP3    H236389   5.704   2.485  16.547  0.5922 -0.5790 -1.2186
 4992TIP3   OH236390   3.477   6.431   4.158  0.2559  0.0203  0.0375
 4992TIP3    H136391   3.423   6.439   4.236 -0.5498  0.3816 -0.5419
 4992TIP3    H236392   3.528   6.351   4.172 -2.4712 -1.9866 -0.6118
 4993TIP3   OH236393   3.146   3.751   3.784  0.1772 -0.1801  0.1257
 4993TIP3    H136394   3.213   3.699   3.829 -1.1806 -0.8725  1.4456
 4993TIP3    H236395   3.063   3.711   3.811 -0.8086  1.1350 -0.8362
 4994TIP3   OH236396   5.783   3.942  16.240 -0.0531 -0.1721 -0.0848
 4994TIP3    H136397   5.821   4.006  16.180 -1.3810 -0.6441 -1.4854
 4994TIP3    H236398   5.857   3.888  16.268  0.6320  0.1820 -1.1450
 4995TIP3   OH236399   4.553   4.519  12.347  0.3701 -0.4979  0.1705
 4995TIP3    H136400   4.566   4.469  12.427 -1.2302  1.0606  1.4712
 4995TIP3    H236401   4.461   4.545  12.349  0.8509  1.5063 -0.9987
 4996TIP3   OH236402   2.573   5.681  14.058  0.1601  0.1872  0.0548
 4996TIP3    H136403   2.623   5.684  14.139  1.6899  1.5116 -0.8619
 4996TIP3    H236404   2.531   5.767  14.052  0.4421  0.2829 -0.7529
 4997TIP3   OH236405   5.650   1.296  11.063  0.2708  0.0354 -0.2926
 4997TIP3    H136406   5.706   1.256  11.130  0.7266  1.2212  0.0696
 4997TIP3    H236407   5.701   1.371  11.032 -1.2627  1.3827  0.3169
 4998TIP3   OH236408   1.424   2.339   5.267 -0.8079  0.0608 -0.0990
 4998TIP3    H136409   1.429   2.422   5.220  0.3444 -0.0988 -0.2668
 4998TIP3    H236410   1.454   2.359   5.356 -1.5546  0.0435  0.1659
 4999TIP3   OH236411   4.720   3.827   3.692 -0.1497 -0.0358  0.4568
 4999TIP3    H136412   4.762   3.769   3.756 -0.4048 -1.2985 -0.4903
 4999TIP3    H236413   4.791   3.854   3.633 -0.6348 -2.4236 -1.3342
 5000TIP3   OH236414   4.183   1.683  16.257  0.1661  0.4160 -0.5236
 5000TIP3    H136415   4.144   1.770  16.263 -0.3662  0.1791 -0.4866
 5000TIP3    H236416   4.276   1.697  16.273  0.1583  1.0431 -0.9709
 5001TIP3   OH236417   1.847   3.653   5.067 -0.5724  0.3984 -0.3314
 5001TIP3    H136418   1.905   3.718   5.106 -1.4002  1.3445 -0.6449
 5001TIP3    H236419   1.817   3.600   5.141  1.0888 -0.4649 -0.2302
 5002TIP3   OH236420   6.559   1.346  12.829  0.1295 -0.2438  0.3162
 5002TIP3    H136421   6.627   1.321  12.892  1.4288 -0.4104 -1.1032
 5002TIP3    H236422   6.604   1.401  12.766 -1.5356  1.4003  0.4621
 5003TIP3   OH236423   6.567   1.858  16.279  0.5484  0.0639  0.6224
 5003TIP3    H136424   6.581   1.928  16.342 -0.6943  1.5332 -0.6338
 5003TIP3    H236425   6.505   1.799  16.322 -0.4473  1.1536  0.7325
 5004TIP3   OH236426   3.520   5.151  17.022 -0.2374  0.1253  0.0463
 5004TIP3    H136427   3.433   5.182  17.046  0.1472  2.1924 -0.9637
 5004TIP3    H236428   3.558   5.224  16.973  1.5690 -1.2376 -0.6817
 5005TIP3   OH236429   3.040   4.248  12.755 -0.2062  0.0082  0.0254
 5005TIP3    H136430   2.973   4.206  12.701 -1.8431  0.0946  1.8440
 5005TIP3    H236431   3.123   4.227  12.712 -1.1072 -3.0640 -0.4893
 5006TIP3   OH236432   2.515   0.894   3.240  0.1917 -0.3303  0.1713
 5006TIP3    H136433   2.424   0.921   3.233  0.0969 -0.6078  0.2769
 5006TIP3    H236434   2.560   0.970   3.276 -0.2098 -0.5684  1.2167
 5007TIP3   OH236435   1.783   1.270  11.181 -0.1966 -0.6107  0.3945
 5007TIP3    H136436   1.690   1.283  11.162 -0.0309 -1.7431 -1.5517
 5007TIP3    H236437   1.785   1.240  11.272 -1.7093 -0.4416  0.5156
 5008TIP3   OH236438   6.617   3.051  11.874 -0.2966  0.3368  0.0334
 5008TIP3    H136439   6.680   3.036  11.944 -0.4339  0.6437  0.2210
 5008TIP3    H236440   6.546   2.989  11.892 -0.2488  0.2904  0.0625
 5009TIP3   OH236441   1.859   6.043  11.589 -0.6416  0.0248 -0.1639
 5009TIP3    H136442   1.943   6.088  11.583 -0.0398 -0.9543  0.5929
 5009TIP3    H236443   1.811   6.090  11.657  0.6751 -1.4952  1.8991
 5010TIP3   OH236444   2.507   2.737   3.653 -0.6010  0.0759 -0.3578
 5010TIP3    H136445   2.436   2.728   3.589  0.2074  0.7744 -1.3765
 5010TIP3    H236446   2.581   2.690   3.614 -0.3092 -0.1087  0.4023
 5011TIP3   OH236447   3.600   1.434   5.370  0.1378 -0.3154  0.1485
 5011TIP3    H136448   3.696   1.435   5.373  0.1081 -0.6036  2.0532
 5011TIP3    H236449   3.580   1.379   5.294  1.4036  3.1323 -2.9513
 5012TIP3   OH236450   6.112   4.388   1.476 -0.0669 -0.7281  0.1972
 5012TIP3    H136451   6.058   4.432   1.409  1.2180 -0.2014 -0.5191
 5012TIP3    H236452   6.171   4.456   1.508  0.2370 -1.3174  0.9103
 5013TIP3   OH236453   2.227   2.718  16.902  0.0052  0.4416 -0.6255
 5013TIP3    H136454   2.160   2.649  16.900  1.8399 -1.4696 -0.3219
 5013TIP3    H236455   2.289   2.692  16.833  2.1808  0.1989  1.2981
 5014TIP3   OH236456   0.239   0.536  14.678 -0.6039  0.2127  0.5250
 5014TIP3    H136457   0.211   0.487  14.754 -0.0430  1.1434  1.3543
 5014TIP3    H236458   0.238   0.472  14.606 -0.7576 -0.7660  1.3781
 5015TIP3   OH236459   3.406   4.768  12.464  0.1383  0.4715  0.2375
 5015TIP3    H136460   3.420   4.819  12.544  1.8269 -1.8442  1.5107
 5015TIP3    H236461   3.492   4.734  12.442 -0.7239 -0.8576 -1.2567
 5016TIP3   OH236462   5.227   4.619   2.744 -0.5658 -0.6735 -0.1462
 5016TIP3    H136463   5.160   4.677   2.708 -2.1496 -1.5604  1.2106
 5016TIP3    H236464   5.230   4.641   2.837  1.8187  0.0390 -0.3311
 5017TIP3   OH236465   2.046   1.960  10.742 -0.2563  0.1587 -0.1510
 5017TIP3    H136466   2.109   1.940  10.673  0.2359  0.0869  0.3163
 5017TIP3    H236467   1.994   2.032  10.706  1.0110  1.1933  0.0016
 5018TIP3   OH236468   3.480   0.887   4.252 -0.1597  0.0719  0.1744
 5018TIP3    H136469   3.461   0.872   4.345 -1.2941 -0.1523 -0.0737
 5018TIP3    H236470   3.547   0.955   4.252 -0.8860  0.8341  1.1589
 5019TIP3   OH236471   2.174   5.673  15.388  0.2739  0.4990  0.3371
 5019TIP3    H136472   2.202   5.590  15.350 -2.0087 -1.6959  2.9187
 5019TIP3    H236473   2.253   5.710  15.426  1.3536 -0.5102 -0.8218
 5020TIP3   OH236474   4.915   3.809   4.441 -0.0735  0.0097  0.2608
 5020TIP3    H136475   4.929   3.832   4.349 -0.5545 -0.8923 -0.0445
 5020TIP3    H236476   4.973   3.735   4.457 -2.2007 -1.8817 -0.2163
 5021TIP3   OH236477   1.851   3.986  10.548  0.0388 -0.1768 -0.2206
 5021TIP3    H136478   1.933   3.949  10.515  0.0830 -2.0081  1.7370
 5021TIP3    H236479   1.789   3.974  10.476  0.4836 -2.6468 -0.2842
 5022TIP3   OH236480   5.630   5.110  13.574 -0.0777  0.2336 -0.0518
 5022TIP3    H136481   5.636   5.082  13.483  0.8942 -0.1522  0.1287
 5022TIP3    H236482   5.657   5.034  13.625  2.1724  1.2882  0.4565
 5023TIP3   OH236483   6.172   0.908   5.071  0.1654  0.0126 -0.8610
 5023TIP3    H136484   6.130   0.923   5.155 -1.0854 -1.5827 -1.1358
 5023TIP3    H236485   6.218   0.989   5.051  0.5576  0.3925  1.3776
 5024TIP3   OH236486   4.892   5.242   4.556  0.0387  0.0974  0.4536
 5024TIP3    H136487   4.836   5.305   4.602 -0.7816 -0.0184 -0.3370
 5024TIP3    H236488   4.902   5.169   4.617 -2.1454 -0.6657  0.0103
 5025TIP3   OH236489   1.551   2.913  12.050  0.0153 -0.1317  0.2649
 5025TIP3    H136490   1.534   2.836  11.996 -0.2213  0.5869 -0.7126
 5025TIP3    H236491   1.552   2.880  12.140  0.5941 -1.3794 -0.1831
 5026TIP3   OH236492   4.333   2.100   0.952 -0.1783 -0.2310 -0.3331
 5026TIP3    H136493   4.311   2.010   0.978 -0.0585 -0.2817 -0.4081
 5026TIP3    H236494   4.356   2.143   1.034  2.3934 -0.9933 -0.5590
 5027TIP3   OH236495   1.817   4.083  13.020 -0.1919  0.3240  0.2865
 5027TIP3    H136496   1.796   4.043  12.936 -1.9522  0.0008  0.8356
 5027TIP3    H236497   1.732   4.094  13.063  0.4326  2.6734  1.0647
 5028TIP3   OH236498   2.875   0.302  12.490  0.4961 -0.0191 -0.3551
 5028TIP3    H136499   2.963   0.306  12.453 -0.0009 -1.9374 -1.9559
 5028TIP3    H236500   2.819   0.278  12.416 -1.4038  1.1341  0.6181
 5029TIP3   OH236501   5.811   2.063  10.547 -0.0019  0.5849 -0.0109
 5029TIP3    H136502   5.898   2.028  10.528  0.2554  0.5442  1.1443
 5029TIP3    H236503   5.823   2.158  10.550  0.2457  0.5401  1.1350
 5030TIP3   OH236504   0.269   6.711   4.544  0.4292  0.1540  0.5370
 5030TIP3    H136505   0.245   6.673   4.459  0.1953  0.2717  0.5498
 5030TIP3    H236506   0.345   6.660   4.572  0.9492  0.5810 -0.0731
 5031TIP3   OH236507   4.030   2.385  16.685  0.0038 -0.0390 -0.3949
 5031TIP3    H136508   3.955   2.356  16.737 -0.5712  0.8507 -0.6895
 5031TIP3    H236509   4.098   2.403  16.750 -0.8103  1.3689  0.1226
 5032TIP3   OH236510   5.127   3.321   2.665 -0.0853 -0.2590 -0.0510
 5032TIP3    H136511   5.158   3.310   2.575 -0.4537  0.1474 -0.2335
 5032TIP3    H236512   5.167   3.249   2.713 -0.7597 -1.1359 -0.7588
 5033TIP3   OH236513   3.014   2.292   3.737  0.0281 -0.2313  0.5628
 5033TIP3    H136514   2.922   2.285   3.764 -0.4239  1.1027 -0.5455
 5033TIP3    H236515   3.014   2.273   3.643  0.7264  0.7831  0.3386
 5034TIP3   OH236516   5.883   5.854   0.008  0.4913  0.2703  1.1129
 5034TIP3    H136517   5.928   5.787   0.058 -0.2302 -0.6232  0.5853
 5034TIP3    H236518   5.861   5.812  -0.075  1.7698  1.7376 -0.0394
 5035TIP3   OH236519   5.157   5.610   9.704  0.1549 -0.3198  0.1405
 5035TIP3    H136520   5.118   5.693   9.732  0.6798 -0.4271  1.2691
 5035TIP3    H236521   5.123   5.545   9.766  0.3813 -0.8078 -0.2302
 5036TIP3   OH236522   3.753   1.847   3.071  0.7892  0.0705  0.2186
 5036TIP3    H136523   3.784   1.867   3.160  1.7453  0.3803 -0.1700
 5036TIP3    H236524   3.789   1.917   3.017 -0.8614  0.6234 -0.2317
 5037TIP3   OH236525   3.554   5.337  12.910  0.2469  0.1678  0.7758
 5037TIP3    H136526   3.485   5.285  12.868 -1.5975  0.7228  2.9311
 5037TIP3    H236527   3.609   5.273  12.954  0.0014 -0.1530  0.6167
 5038TIP3   OH236528   5.941   4.203  14.349  0.1258 -0.9337  0.7892
 5038TIP3    H136529   5.974   4.141  14.284  0.3404 -1.5899  1.5216
 5038TIP3    H236530   6.017   4.221  14.405 -0.0502 -0.3369  0.8424
 5039TIP3   OH236531   0.562   3.199  16.054  0.8784 -0.3614  0.7114
 5039TIP3    H136532   0.555   3.224  16.147 -0.0706 -1.5629  0.9920
 5039TIP3    H236533   0.636   3.139  16.051  0.2200 -1.2017  0.9141
 5040TIP3   OH236534   2.847   6.190  13.548 -0.0729 -0.0941 -0.1606
 5040TIP3    H136535   2.893   6.129  13.490  0.1016  0.2961 -0.4413
 5040TIP3    H236536   2.819   6.261  13.490  0.7963  0.6950  0.3575
 5041TIP3   OH236537   4.078   0.969   0.161  0.6106  0.0101  0.2818
 5041TIP3    H136538   4.088   1.053   0.118  3.0051 -0.0169  0.6513
 5041TIP3    H236539   4.055   0.990   0.252  0.0137  0.2118  0.0863
 5042TIP3   OH236540   4.074   0.871  15.120 -0.7081 -0.0174 -0.1172
 5042TIP3    H136541   4.117   0.922  15.189 -0.8219  2.3820 -1.7005
 5042TIP3    H236542   4.015   0.812  15.167  0.7829 -0.0117  1.8964
 5043TIP3   OH236543   6.797   4.999   1.941 -0.5196 -0.0950 -0.0385
 5043TIP3    H136544   6.761   4.915   1.912  1.8552 -0.6563 -1.5931
 5043TIP3    H236545   6.833   4.981   2.028  1.7166 -1.2993 -1.1373
 5044TIP3   OH236546   4.262   3.723   3.290  0.4008 -0.3499 -0.3805
 5044TIP3    H136547   4.336   3.696   3.236 -0.2236 -0.7067 -1.0748
 5044TIP3    H236548   4.224   3.642   3.322  0.2074 -0.1784 -0.1710
 5045TIP3   OH236549   4.819   5.155   1.810 -0.6479 -0.1104 -0.0776
 5045TIP3    H136550   4.908   5.127   1.829 -0.3756  1.0638  0.4331
 5045TIP3    H236551   4.802   5.124   1.721  0.6996  0.6942 -0.6297
 5046TIP3   OH236552   2.389   1.302   3.996 -0.2393 -0.6061  0.2308
 5046TIP3    H136553   2.375   1.212   4.026 -0.0706 -0.2071  1.5558
 5046TIP3    H236554   2.433   1.345   4.069  0.5103  0.3202 -0.7428
 5047TIP3   OH236555   0.144   0.269   2.151 -0.2281 -0.4823 -0.3739
 5047TIP3    H136556   0.059   0.273   2.107 -0.6273 -0.5982  0.3741
 5047TIP3    H236557   0.165   0.360   2.170 -0.0768 -0.4357 -0.7638
 5048TIP3   OH236558   4.009   0.615   1.252 -0.8164  0.1042  0.3808
 5048TIP3    H136559   3.977   0.573   1.332 -1.8727  0.9780  0.4365
 5048TIP3    H236560   3.930   0.635   1.202 -0.3258  1.6563  0.1782
 5049TIP3   OH236561   1.633   4.644  12.238 -0.3055 -0.1620  0.3085
 5049TIP3    H136562   1.608   4.736  12.228 -0.4305 -0.2517 -0.2400
 5049TIP3    H236563   1.652   4.634  12.331  1.0962  0.7818  0.1517
 5050TIP3   OH236564   3.986   3.570   5.318  0.2134  0.1599  0.4192
 5050TIP3    H136565   4.027   3.494   5.276 -0.2846  1.5436 -2.9034
 5050TIP3    H236566   3.937   3.533   5.392 -1.0706 -3.0151 -1.7687
 5051TIP3   OH236567   5.906   1.216  11.570 -0.2524  0.3532  0.2445
 5051TIP3    H136568   5.820   1.185  11.598  0.5006 -2.6841 -0.4189
 5051TIP3    H236569   5.954   1.232  11.651 -0.3353 -1.4725  0.6970
 5052TIP3   OH236570   4.811   2.776  10.366  0.2244  0.2181  0.4648
 5052TIP3    H136571   4.723   2.755  10.333  1.1352 -0.2945 -1.7842
 5052TIP3    H236572   4.797   2.849  10.426 -1.7876 -0.1303  0.4915
 5053TIP3   OH236573   4.548   0.038  13.625 -0.3187 -0.0478  0.2727
 5053TIP3    H136574   4.557  -0.050  13.589 -1.4306 -0.3893  0.8060
 5053TIP3    H236575   4.489   0.028  13.700 -2.8711  1.5778 -1.3748
 5054TIP3   OH236576   4.335   4.016   1.950  0.1414  0.2989 -0.1433
 5054TIP3    H136577   4.291   4.017   1.866  0.7271 -1.7819 -0.5507
 5054TIP3    H236578   4.426   4.039   1.930  0.1710  0.2957 -0.0166
 5055TIP3   OH236579   2.217   6.530   3.192 -0.1384 -0.1046  0.5641
 5055TIP3    H136580   2.285   6.547   3.257 -0.3260 -0.2589  0.8041
 5055TIP3    H236581   2.147   6.592   3.213  0.5591  1.1481 -0.6564
 5056TIP3   OH236582   5.285   6.464   0.477 -0.0443  0.6853 -0.1133
 5056TIP3    H136583   5.266   6.375   0.445 -0.5177  1.4370 -2.0834
 5056TIP3    H236584   5.378   6.476   0.460  0.0183  0.5895  0.1469
 5057TIP3   OH236585   6.746   6.154  16.270 -0.2156 -0.2210 -0.2328
 5057TIP3    H136586   6.818   6.209  16.302  0.1190 -0.6409 -0.2645
 5057TIP3    H236587   6.756   6.072  16.318 -0.7473 -0.2404 -0.1488
 5058TIP3   OH236588   3.240   2.120  11.566  0.2634  0.1492  0.0929
 5058TIP3    H136589   3.192   2.089  11.489 -2.4528  2.8150  0.5642
 5058TIP3    H236590   3.315   2.167  11.530 -0.2495  0.2541 -0.8501
 5059TIP3   OH236591   1.778   3.754  16.841  0.3706 -0.0917 -0.4226
 5059TIP3    H136592   1.852   3.798  16.799  0.7170  1.3258  1.4938
 5059TIP3    H236593   1.709   3.820  16.842  0.0327 -0.4488  0.2785
 5060TIP3   OH236594   0.877   4.663  15.761 -0.0578 -0.1313  0.1590
 5060TIP3    H136595   0.919   4.638  15.679 -0.8617  0.0770 -0.3145
 5060TIP3    H236596   0.942   4.639  15.828  0.1433 -1.3590 -0.4373
 5061TIP3   OH236597   0.414   4.188   5.202  0.0746  0.2614  0.1042
 5061TIP3    H136598   0.355   4.224   5.268  0.0058 -0.2047  0.2968
 5061TIP3    H236599   0.463   4.264   5.170 -0.3891  0.5960  0.1843
 5062TIP3   OH236600   6.463   0.732   1.107  0.1965 -0.1028 -0.5673
 5062TIP3    H136601   6.545   0.764   1.069 -0.1429 -0.8588 -1.9959
 5062TIP3    H236602   6.402   0.805   1.096  0.4971  0.2343 -0.0614
 5063TIP3   OH236603   1.727   5.686  11.058 -0.1954  0.2422  0.1041
 5063TIP3    H136604   1.760   5.748  10.994 -1.3066 -1.1838 -1.9405
 5063TIP3    H236605   1.755   5.601  11.027  0.5015 -0.4288  2.3520
 5064TIP3   OH236606   6.490   0.160  12.481  0.4008  0.3739 -0.1945
 5064TIP3    H136607   6.580   0.189  12.496  1.0805 -1.2028 -0.9830
 5064TIP3    H236608   6.477   0.175  12.387  0.4154 -0.8586 -0.4026
 5065TIP3   OH236609   5.978   4.321  15.282  0.4636 -0.5551 -0.4394
 5065TIP3    H136610   5.890   4.289  15.265  1.0993 -2.6533 -0.0097
 5065TIP3    H236611   5.966   4.396  15.341 -0.9800 -1.2529  0.1836
 5066TIP3   OH236612   3.522   4.558  12.998 -0.3117 -0.5773 -0.2634
 5066TIP3    H136613   3.606   4.516  13.018 -0.5661 -0.6399  0.7418
 5066TIP3    H236614   3.491   4.589  13.083 -0.5681  0.8400 -0.8494
 5067TIP3   OH236615   1.082   5.498   6.189  0.3972  0.4129  0.3006
 5067TIP3    H136616   1.160   5.476   6.137  1.2278  1.7211  0.9436
 5067TIP3    H236617   1.010   5.493   6.127  1.2042  0.6867 -0.6951
 5068TIP3   OH236618   0.744   5.394   4.143 -0.6427  0.1822 -0.4859
 5068TIP3    H136619   0.768   5.320   4.088 -0.8639  0.9654 -1.6807
 5068TIP3    H236620   0.826   5.422   4.183 -0.6202 -0.9195  0.2742
 5069TIP3   OH236621   0.314   1.299  11.598  0.1867  0.5784 -0.6977
 5069TIP3    H136622   0.331   1.333  11.510 -1.0521 -1.0379 -1.6184
 5069TIP3    H236623   0.373   1.223  11.605 -0.6553 -0.0769 -0.6524
 5070TIP3   OH236624   6.320   3.486   2.252 -0.4089  0.9711 -0.2581
 5070TIP3    H136625   6.339   3.564   2.305  1.3530  2.6576 -3.1390
 5070TIP3    H236626   6.266   3.519   2.180 -0.8445 -0.7970 -0.7772
 5071TIP3   OH236627   4.945   4.680   2.238 -0.1214 -0.5340 -0.3602
 5071TIP3    H136628   4.954   4.760   2.290 -0.2085  0.9608 -2.4794
 5071TIP3    H236629   4.884   4.626   2.288 -1.5755  1.5551  0.2944
 5072TIP3   OH236630   5.340   4.723  13.845 -0.5643 -0.5669 -0.1207
 5072TIP3    H136631   5.339   4.628  13.833 -0.7362 -0.2683 -3.0949
 5072TIP3    H236632   5.309   4.759  13.762 -0.1030  2.1341  0.7580
 5073TIP3   OH236633   5.877   3.191   3.339 -0.3127  0.0135 -0.1114
 5073TIP3    H136634   5.825   3.150   3.408  1.4564 -1.0699  0.6457
 5073TIP3    H236635   5.894   3.121   3.276  2.1230 -0.3470  0.8249
 5074TIP3   OH236636   5.955   3.526   4.667  0.1467 -0.2043  0.5698
 5074TIP3    H136637   6.040   3.487   4.689  0.3346  1.0674  2.3200
 5074TIP3    H236638   5.951   3.523   4.572  2.0543 -0.5181  0.4660
 5075TIP3   OH236639   4.960   1.532   2.830 -0.1556  0.1548  0.2406
 5075TIP3    H136640   4.937   1.516   2.738  0.3683 -2.0971  0.4212
 5075TIP3    H236641   4.970   1.444   2.867  3.6187  0.9075  1.4305
 5076TIP3   OH236642   5.558   1.892   2.693 -0.2034  0.2607  0.2562
 5076TIP3    H136643   5.465   1.900   2.674 -0.3186  1.9228  1.3458
 5076TIP3    H236644   5.562   1.851   2.780  0.1988 -2.2222 -0.8327
 5077TIP3   OH236645   6.616   5.596   0.616 -0.1256  0.2748  0.2400
 5077TIP3    H136646   6.535   5.647   0.620  0.9579  2.1310 -0.2347
 5077TIP3    H236647   6.662   5.618   0.698 -0.2358 -1.0520  0.6806
 5078TIP3   OH236648   5.360   5.667   0.443 -0.4398 -0.1231 -0.0987
 5078TIP3    H136649   5.308   5.674   0.524  0.3623 -1.2479  0.5396
 5078TIP3    H236650   5.303   5.705   0.376 -0.4342  2.5396  1.2472
 5079TIP3   OH236651   1.247   6.308  13.494 -0.4326  0.0331 -0.3268
 5079TIP3    H136652   1.331   6.266  13.512  0.1059  1.6021  1.1875
 5079TIP3    H236653   1.268   6.377  13.431 -0.9162 -0.5890 -1.1929
 5080TIP3   OH236654   4.061   1.945  16.320  0.1077  0.0623 -0.1304
 5080TIP3    H136655   4.072   2.012  16.252 -0.8364  0.0511 -0.3048
 5080TIP3    H236656   4.011   1.988  16.389 -3.6826 -1.3445 -1.7256
 5081TIP3   OH236657   3.116   3.850   4.486 -0.1838  0.4016  0.1393
 5081TIP3    H136658   3.034   3.881   4.447 -0.4302  0.1849  0.4731
 5081TIP3    H236659   3.102   3.858   4.580  0.7661  1.8471  0.1916
 5082TIP3   OH236660   6.145   0.542   5.340  0.4428 -0.0684  0.1804
 5082TIP3    H136661   6.108   0.624   5.372 -1.5015 -0.6580 -0.4363
 5082TIP3    H236662   6.201   0.511   5.412  0.6091  1.3879  0.7112
 5083TIP3   OH236663   6.704   1.768  12.736 -0.5273  0.0997 -0.1159
 5083TIP3    H136664   6.799   1.773  12.725 -0.3113 -0.1271  1.4265
 5083TIP3    H236665   6.692   1.712  12.812 -1.9279 -0.2080 -0.5338
 5084TIP3   OH236666   4.133   6.436  12.992 -0.0855  0.0821 -0.7055
 5084TIP3    H136667   4.109   6.461  12.903  0.1502  0.8157 -0.5729
 5084TIP3    H236668   4.208   6.378  12.981 -0.9024 -0.9349 -1.0402
 5085TIP3   OH236669   0.691   3.934   3.206  0.0889  0.2163 -0.3790
 5085TIP3    H136670   0.663   3.850   3.243  2.4169 -0.1411  0.7283
 5085TIP3    H236671   0.660   3.932   3.116  2.4249 -3.1117 -1.3057
 5086TIP3   OH236672   0.749   2.427   3.718 -0.1631  0.0142  0.3560
 5086TIP3    H136673   0.831   2.475   3.725 -0.0063 -0.4359  2.0860
 5086TIP3    H236674   0.684   2.483   3.761 -0.3984 -0.3853  0.5340
 5087TIP3   OH236675   0.547   5.037   0.141 -0.6854 -0.0808 -0.0757
 5087TIP3    H136676   0.453   5.025   0.155 -0.6617 -1.1341 -0.6457
 5087TIP3    H236677   0.558   5.030   0.046  0.1621 -1.7374  0.1041
 5088TIP3   OH236678   6.077   4.258  16.261 -0.0561  0.5396  0.2560
 5088TIP3    H136679   6.061   4.342  16.217  1.2169  0.8875  0.4325
 5088TIP3    H236680   6.049   4.193  16.197  1.0707  1.0621 -0.8220
 5089TIP3   OH236681   2.024   5.429   0.259 -0.1645 -0.2744 -0.4819
 5089TIP3    H136682   2.108   5.438   0.214 -0.1248 -2.3276 -0.8953
 5089TIP3    H236683   1.995   5.340   0.240 -2.1120  0.1417  0.2396
 5090TIP3   OH236684   2.173   2.090  14.897  0.0812 -0.4277  0.1141
 5090TIP3    H136685   2.231   2.053  14.964  0.3800  0.0309  0.1105
 5090TIP3    H236686   2.146   2.175  14.931  0.0131 -0.3106 -0.2242
 5091TIP3   OH236687   0.816   0.751  15.776  0.9240 -0.3776  0.0294
 5091TIP3    H136688   0.830   0.670  15.727  0.0179 -0.6555  0.2154
 5091TIP3    H236689   0.893   0.758  15.832  1.1645 -0.9428 -0.2183
 5092TIP3   OH236690   5.443   1.139   3.205 -0.2985  0.1234 -0.1341
 5092TIP3    H136691   5.514   1.202   3.216  2.0408 -2.6420  2.0652
 5092TIP3    H236692   5.364   1.193   3.201  1.4257  3.1954  2.3895
 5093TIP3   OH236693   0.366   2.167  13.959  0.1329  0.2426  0.5557
 5093TIP3    H136694   0.405   2.079  13.965 -1.7615 -0.8118 -1.3042
 5093TIP3    H236695   0.415   2.211  13.890  1.4904  0.9566  1.9007
 5094TIP3   OH236696   5.595   2.340  16.099  0.1974  0.2733  0.0042
 5094TIP3    H136697   5.680   2.306  16.128 -0.5529 -0.9505  0.8158
 5094TIP3    H236698   5.539   2.335  16.176 -1.6098 -2.2972 -1.3649
 5095TIP3   OH236699   6.693   6.762   4.584  0.2674  0.6870  0.4429
 5095TIP3    H136700   6.613   6.798   4.623 -1.4250 -0.6799 -1.5129
 5095TIP3    H236701   6.689   6.790   4.492  0.4475 -1.8100 -0.4069
 5096TIP3   OH236702   1.731   3.978   1.755  0.0438 -0.0061  0.0525
 5096TIP3    H136703   1.787   3.901   1.770  2.2483  1.4853 -0.0417
 5096TIP3    H236704   1.793   4.051   1.747 -1.9397  1.6972 -0.4785
 5097TIP3   OH236705   5.009   5.458  13.075 -0.0583 -0.0171  0.1239
 5097TIP3    H136706   4.994   5.372  13.114 -0.5708 -0.3176 -0.7381
 5097TIP3    H236707   4.926   5.504  13.084 -0.1222 -0.0189 -0.4530
 5098TIP3   OH236708   5.368   2.522  11.158  0.0107 -0.5006 -0.5250
 5098TIP3    H136709   5.319   2.581  11.101 -0.2281 -0.5234 -0.3465
 5098TIP3    H236710   5.396   2.451  11.100 -1.2223 -1.1166 -0.3915
 5099TIP3   OH236711   4.100   4.287   1.496 -0.5450  0.0809 -0.3691
 5099TIP3    H136712   4.182   4.276   1.449 -0.7949 -1.2222 -0.5432
 5099TIP3    H236713   4.125   4.287   1.589 -0.3683 -0.6767 -0.4093
 5100TIP3   OH236714   2.389   2.009  16.586 -0.1521  0.0805 -0.0361
 5100TIP3    H136715   2.354   1.959  16.512 -1.1929 -0.0475  0.5275
 5100TIP3    H236716   2.457   1.953  16.623 -0.3486 -0.3052 -0.2542
 5101TIP3   OH236717   2.153   1.421   4.015 -0.1865  0.0566 -0.1184
 5101TIP3    H136718   2.238   1.384   3.989 -0.4254 -0.9901  0.5294
 5101TIP3    H236719   2.168   1.516   4.017  0.8919 -0.0918 -0.2643
 5102TIP3   OH236720   2.422   1.191   0.307  0.2641  0.0986 -0.4283
 5102TIP3    H136721   2.517   1.194   0.313  0.2368 -1.2853  2.0519
 5102TIP3    H236722   2.405   1.172   0.215  2.3749  0.4702 -0.9504
 5103TIP3   OH236723   1.545   3.133  16.507  0.2198  0.1749  0.4688
 5103TIP3    H136724   1.514   3.098  16.591 -1.0635  1.2475  0.4756
 5103TIP3    H236725   1.610   3.198  16.531  1.1158 -0.7106  0.5345
 5104TIP3   OH236726   4.381   3.054  13.118 -0.7888 -0.1816  0.3460
 5104TIP3    H136727   4.395   3.024  13.028  0.1383  0.7867  0.1513
 5104TIP3    H236728   4.347   3.143  13.109 -1.2060 -0.2704  0.9532
 5105TIP3   OH236729   3.621   6.765   0.289  0.0478  0.1876  0.0690
 5105TIP3    H136730   3.564   6.818   0.233  0.5597  0.5761 -0.0955
 5105TIP3    H236731   3.634   6.818   0.368  0.9890  0.5579 -0.3174
 5106TIP3   OH236732   1.387   2.910   3.811 -0.1641  0.1602 -0.3543
 5106TIP3    H136733   1.457   2.903   3.876  0.3607 -1.5317 -1.0477
 5106TIP3    H236734   1.417   2.978   3.750 -0.5014  1.5064  0.9254
 5107TIP3   OH236735   1.757   0.952  11.884 -0.0017 -0.0543 -0.0826
 5107TIP3    H136736   1.698   1.008  11.835 -0.5343  1.8626  2.5448
 5107TIP3    H236737   1.845   0.983  11.861 -0.1201 -0.6184 -1.3753
 5108TIP3   OH236738   2.187   2.048  11.330  0.2340 -0.3028  0.9065
 5108TIP3    H136739   2.179   2.063  11.424  2.0842  1.2589  0.8695
 5108TIP3    H236740   2.202   1.954  11.321 -2.2406 -0.8742  1.9450
 5109TIP3   OH236741   3.742   0.257  11.295  0.3346  0.0149  0.3854
 5109TIP3    H136742   3.671   0.305  11.254 -0.1717 -0.5783  0.5633
 5109TIP3    H236743   3.702   0.176  11.326  1.8573 -2.3843 -3.2490
 5110TIP3   OH236744   5.197   5.441   3.973  0.1470 -0.0842  0.1969
 5110TIP3    H136745   5.280   5.394   3.982  0.9486  1.4921  1.5774
 5110TIP3    H236746   5.190   5.493   4.053 -1.3428  1.1424 -0.6695
 5111TIP3   OH236747   1.266   2.713  13.963 -0.1614  0.0705 -0.4291
 5111TIP3    H136748   1.281   2.801  13.927  0.4844  0.3240  0.4412
 5111TIP3    H236749   1.328   2.705  14.035 -1.0601 -0.6395  0.2945
 5112TIP3   OH236750   6.786   1.649   2.145 -0.1367  0.2720  0.3249
 5112TIP3    H136751   6.707   1.599   2.165 -0.6502  0.0134 -2.0340
 5112TIP3    H236752   6.753   1.732   2.110  0.6982  1.3275  1.9255
 5113TIP3   OH236753   0.258   0.125  12.122 -0.2149 -0.0877 -0.1903
 5113TIP3    H136754   0.329   0.066  12.144 -0.1656 -0.1692 -0.5641
 5113TIP3    H236755   0.272   0.202  12.178 -0.0026 -0.2250 -0.0552
 5114TIP3   OH236756   2.097   5.912  16.929 -0.1343 -0.1160 -0.5608
 5114TIP3    H136757   2.032   5.873  16.988  1.2648  0.3742  1.4129
 5114TIP3    H236758   2.054   5.991  16.896 -1.1202 -0.6399 -0.5661
 5115TIP3   OH236759   3.304   1.049   0.218 -0.1104 -0.6250 -0.1514
 5115TIP3    H136760   3.254   1.004   0.287  0.7248 -0.0354  0.8668
 5115TIP3    H236761   3.370   0.985   0.192  1.2682  0.0500  1.5078
 5116TIP3   OH236762   2.593   0.551  11.760  0.4918  0.1428 -0.4647
 5116TIP3    H136763   2.629   0.526  11.674 -0.2552  0.5025 -0.8942
 5116TIP3    H236764   2.646   0.625  11.788  0.4016  0.3632 -0.8683
 5117TIP3   OH236765   3.695   3.246  15.376 -0.1612  0.0197 -0.0072
 5117TIP3    H136766   3.654   3.331  15.392  0.0959  0.0144  0.7294
 5117TIP3    H236767   3.776   3.266  15.330  0.4036  0.2708  1.0641
 5118TIP3   OH236768   0.678   6.287  16.773  0.0783 -0.1101  0.4757
 5118TIP3    H136769   0.722   6.293  16.858 -0.3033  1.1593  0.6087
 5118TIP3    H236770   0.593   6.247  16.793 -0.5059  1.2582  0.9381
 5119TIP3   OH236771   0.493   6.257   2.136 -0.7362  1.2736 -0.2036
 5119TIP3    H136772   0.400   6.271   2.155 -0.9752  0.5265 -0.7708
 5119TIP3    H236773   0.497   6.168   2.101  0.0304  1.7208 -1.2825
 5120TIP3   OH236774   6.164   4.446  11.897 -0.2656  0.0428 -0.5411
 5120TIP3    H136775   6.097   4.503  11.861 -0.6259 -0.0148  0.0168
 5120TIP3    H236776   6.199   4.398  11.822 -0.7073  0.2168 -0.8607
 5121TIP3   OH236777   1.563   5.006  10.123 -0.2801  0.6320  0.1669
 5121TIP3    H136778   1.646   5.012  10.169 -1.2897  0.5869  2.0835
 5121TIP3    H236779   1.574   4.933  10.062  0.9876  0.4637  0.5802
 5122TIP3   OH236780   1.415   4.871  15.189 -0.2227  0.2482  0.2214
 5122TIP3    H136781   1.382   4.960  15.202 -0.8130  0.2610 -1.2037
 5122TIP3    H236782   1.337   4.817  15.180  0.1217 -0.5010  1.3826
 5123TIP3   OH236783   1.418   2.480   1.571  0.5658  0.5073 -0.4305
 5123TIP3    H136784   1.372   2.398   1.558  1.5398 -0.1547  0.1837
 5123TIP3    H236785   1.355   2.537   1.615 -0.1748  0.1739 -1.0425
 5124TIP3   OH236786   5.070   2.672  16.357 -0.1996 -0.6405  0.0713
 5124TIP3    H136787   5.117   2.599  16.399  2.4485 -0.8330 -2.8456
 5124TIP3    H236788   5.000   2.629  16.308 -1.7583 -0.6277  2.1243
 5125TIP3   OH236789   6.609   0.509  13.812 -0.8115  0.0158  0.0405
 5125TIP3    H136790   6.703   0.500  13.799 -0.9666  0.0271 -1.1609
 5125TIP3    H236791   6.570   0.489  13.727 -1.8863  0.1864  0.4690
 5126TIP3   OH236792   4.405   4.585  13.479 -0.1609 -0.2967 -0.1733
 5126TIP3    H136793   4.392   4.492  13.457  0.1602 -0.0979 -1.2514
 5126TIP3    H236794   4.485   4.585  13.532 -0.5877 -0.7154  0.4852
 5127TIP3   OH236795   6.666   5.102   2.396  0.4565 -0.1066  0.1573
 5127TIP3    H136796   6.584   5.139   2.429  1.3451  0.4795  1.8837
 5127TIP3    H236797   6.645   5.012   2.373 -0.8432  0.2753 -0.2384
 5128TIP3   OH236798   3.399   0.295   0.538  0.1745  0.4144  0.1226
 5128TIP3    H136799   3.382   0.295   0.443  1.4052  2.3600 -0.1523
 5128TIP3    H236800   3.316   0.325   0.576 -0.9377 -2.0529 -0.1106
 5129TIP3   OH236801   6.119   1.474   4.837 -0.7161  0.3505  0.0438
 5129TIP3    H136802   6.122   1.453   4.930 -1.2789  0.2206  0.0374
 5129TIP3    H236803   6.169   1.404   4.795  1.4181  1.5604  0.4101
 5130TIP3   OH236804   2.996   6.796   2.014  0.0878 -0.4607  0.3227
 5130TIP3    H136805   3.028   6.877   2.054  0.2888 -0.7084  0.6664
 5130TIP3    H236806   2.921   6.823   1.962 -1.8162 -0.4485  2.8489
 5131TIP3   OH236807   4.578   3.378  16.701 -0.2449  0.8162 -0.5217
 5131TIP3    H136808   4.663   3.334  16.709  1.5706  3.9486 -0.8706
 5131TIP3    H236809   4.516   3.308  16.682  1.8787 -1.8897  1.7113
 5132TIP3   OH236810   3.341   3.589  13.079 -0.0243 -0.1384  0.8736
 5132TIP3    H136811   3.338   3.504  13.124 -2.3502 -1.4036 -1.3907
 5132TIP3    H236812   3.274   3.641  13.123  1.1763  0.4651  2.0489
 5133TIP3   OH236813   0.085   2.165  11.453 -0.5206  0.1578 -0.3801
 5133TIP3    H136814   0.025   2.238  11.442 -0.4959  0.4021  0.9441
 5133TIP3    H236815   0.113   2.143  11.364 -1.3926  1.0158 -0.8841
 5134TIP3   OH236816   4.027   0.339   3.815  0.9033 -0.8184 -0.3715
 5134TIP3    H136817   4.069   0.259   3.783 -0.8495 -1.6213 -0.7639
 5134TIP3    H236818   3.935   0.315   3.827  0.7834  0.4698  1.8343
 5135TIP3   OH236819   2.438   6.245  16.047  0.2582 -0.0453  0.6773
 5135TIP3    H136820   2.462   6.257  16.139 -1.4775 -1.7494  1.4233
 5135TIP3    H236821   2.511   6.197  16.009  1.2074  1.0798  1.0175
 5136TIP3   OH236822   5.440   4.478   2.288 -0.0201  0.2041 -0.3390
 5136TIP3    H136823   5.387   4.444   2.360  1.0165 -2.1839 -0.6280
 5136TIP3    H236824   5.376   4.520   2.230 -0.8423  2.4346  2.0066
 5137TIP3   OH236825   5.633   5.371  13.708 -0.3210 -0.5838  0.3186
 5137TIP3    H136826   5.625   5.289  13.659  0.0924 -0.9821  0.9087
 5137TIP3    H236827   5.679   5.431  13.648 -0.5108 -0.8157 -0.0645
 5138TIP3   OH236828   0.506   0.186   4.626  0.3547 -0.5118  0.5406
 5138TIP3    H136829   0.537   0.125   4.692 -0.1903 -0.8280  0.5175
 5138TIP3    H236830   0.419   0.152   4.602  0.4283 -0.2431 -0.1257
 5139TIP3   OH236831   0.861   2.992   4.470  0.6969 -0.0655  0.1562
 5139TIP3    H136832   0.878   2.953   4.556  2.3003 -0.0388 -0.1147
 5139TIP3    H236833   0.845   2.917   4.413 -1.2460 -0.0494  0.6112
 5140TIP3   OH236834   3.348   3.904  11.069  0.6071  0.3204  0.1333
 5140TIP3    H136835   3.294   3.938  10.998  0.2800  0.7343  0.5730
 5140TIP3    H236836   3.353   3.810  11.053  1.7997  0.5934 -1.2804
 5141TIP3   OH236837   1.804   0.514  14.514 -0.2037  0.4346 -0.5896
 5141TIP3    H136838   1.833   0.601  14.541  0.1933  0.1651 -0.1298
 5141TIP3    H236839   1.712   0.510  14.542  0.1427  0.2306  0.5877
 5142TIP3   OH236840   5.916   3.409  14.006 -0.1888 -0.2789  0.1917
 5142TIP3    H136841   6.006   3.428  14.035  1.8721 -2.9762 -3.6326
 5142TIP3    H236842   5.897   3.477  13.942 -1.0328  0.3641  1.0898
 5143TIP3   OH236843   1.635   2.215  11.632 -0.4727 -0.5069 -0.4973
 5143TIP3    H136844   1.702   2.248  11.690 -0.4760  1.1591 -1.3708
 5143TIP3    H236845   1.676   2.141  11.587 -0.3992 -1.6688  1.3813
 5144TIP3   OH236846   1.090   6.107   3.662 -0.3762 -0.4409  0.8107
 5144TIP3    H136847   1.178   6.138   3.681 -0.3472  0.5688 -0.7742
 5144TIP3    H236848   1.039   6.186   3.646 -1.3597 -1.0475  0.8698
 5145TIP3   OH236849   1.030   6.366   0.715 -0.3003 -0.0707 -0.1994
 5145TIP3    H136850   1.013   6.317   0.794  1.5530 -0.1145  0.2303
 5145TIP3    H236851   1.126   6.375   0.712 -0.4840  2.7939 -0.6678
 5146TIP3   OH236852   0.586   3.169   2.643 -0.0069  0.5926 -0.8853
 5146TIP3    H136853   0.574   3.183   2.550  2.2642 -1.8989 -1.6896
 5146TIP3    H236854   0.673   3.205   2.662 -0.3829  0.9579  0.2781
 5147TIP3   OH236855   2.193   2.902  14.578 -0.3416  0.0040 -0.0654
 5147TIP3    H136856   2.280   2.935  14.554  1.0453 -3.6034 -0.6696
 5147TIP3    H236857   2.139   2.919  14.501 -0.2013  2.1836  0.2677
 5148TIP3   OH236858   1.588   2.424  14.170 -0.3935  0.4426 -0.1067
 5148TIP3    H136859   1.617   2.448  14.082  0.2556 -1.4546 -0.4513
 5148TIP3    H236860   1.507   2.376  14.157 -1.1192  1.4665  0.4831
 5149TIP3   OH236861   5.391   2.137  12.398  0.8557  0.4436 -0.1450
 5149TIP3    H136862   5.309   2.096  12.373  1.2660  0.7421 -2.1639
 5149TIP3    H236863   5.416   2.094  12.480 -1.0862  0.0917  0.3060
 5150TIP3   OH236864   2.501   6.789  15.792 -0.1403 -0.4425  0.0959
 5150TIP3    H136865   2.532   6.760  15.706  1.3181 -0.7450  0.7055
 5150TIP3    H236866   2.521   6.883  15.795 -2.2787  0.1102 -0.7523
 5151TIP3   OH236867   0.477   3.766  14.244  0.3867  0.5844 -0.0159
 5151TIP3    H136868   0.532   3.705  14.294 -0.4638  0.6992  1.1102
 5151TIP3    H236869   0.488   3.739  14.153  0.5289 -0.8563  0.3986
 5152TIP3   OH236870   4.672   2.996   4.696 -0.0599 -0.3185 -0.2163
 5152TIP3    H136871   4.655   3.079   4.742 -1.1070 -1.5548  1.7729
 5152TIP3    H236872   4.602   2.989   4.632 -0.5895 -0.1723  0.3424
 5153TIP3   OH236873   2.103   5.716   9.927 -0.2412  0.0053  0.8951
 5153TIP3    H136874   2.074   5.653   9.993  0.1072  0.3588  1.3977
 5153TIP3    H236875   2.197   5.728   9.944  0.3664 -1.5343 -1.0517
 5154TIP3   OH236876   4.483   1.794   1.106  0.4009  0.3374 -0.0986
 5154TIP3    H136877   4.515   1.730   1.043  0.3037 -0.9414  1.1183
 5154TIP3    H236878   4.390   1.773   1.116  0.4260  0.5018  0.4995
 5155TIP3   OH236879   1.120   5.506  13.477 -0.0211 -0.0082 -0.0094
 5155TIP3    H136880   1.039   5.462  13.452  0.0030 -0.2961  0.4126
 5155TIP3    H236881   1.162   5.528  13.393  0.8524 -2.3931 -0.2759
 5156TIP3   OH236882   5.646   4.785   4.912 -0.3778 -0.0077 -0.8765
 5156TIP3    H136883   5.667   4.702   4.869 -2.0619 -0.6439 -0.5356
 5156TIP3    H236884   5.574   4.821   4.861  0.0201  1.0357 -0.7278
 5157TIP3   OH236885   0.064   3.581   6.289 -0.5450  0.6339 -0.6617
 5157TIP3    H136886  -0.004   3.545   6.345 -0.2515  0.8331 -0.1699
 5157TIP3    H236887   0.125   3.509   6.276  0.8955  1.3256  1.6465
 5158TIP3   OH236888   2.734   0.097   3.879 -0.1660 -0.2229 -1.1950
 5158TIP3    H136889   2.668   0.131   3.939  0.3520 -1.3041  0.0329
 5158TIP3    H236890   2.703   0.010   3.854  0.1408 -0.2026 -1.6742
 5159TIP3   OH236891   2.652   5.194   0.541 -0.1851 -0.0208  0.0448
 5159TIP3    H136892   2.652   5.289   0.529  1.4860  0.0551  0.3961
 5159TIP3    H236893   2.730   5.164   0.494 -1.8589 -1.5098 -1.9702
 5160TIP3   OH236894   4.366   6.556  10.768 -0.0167 -0.3051  0.3772
 5160TIP3    H136895   4.322   6.627  10.723  0.3337  0.3615  1.0622
 5160TIP3    H236896   4.448   6.594  10.800 -0.9939 -0.2386  3.0431
 5161TIP3   OH236897   4.657   3.504   5.813  0.2959 -0.0395 -0.4880
 5161TIP3    H136898   4.651   3.599   5.813 -0.8395 -0.0608  1.5091
 5161TIP3    H236899   4.616   3.478   5.730 -0.3979  1.1688 -0.5515
 5162TIP3   OH236900   5.696   4.409   3.361 -0.3655  0.3608  0.3437
 5162TIP3    H136901   5.646   4.491   3.367  0.5488  0.9586  0.0995
 5162TIP3    H236902   5.778   4.434   3.317 -0.7349 -1.0098 -1.2272
 5163TIP3   OH236903   1.948   2.230  10.362  0.3382 -0.3570  0.3948
 5163TIP3    H136904   1.960   2.324  10.367  1.7048 -0.5743  1.9328
 5163TIP3    H236905   2.030   2.193  10.395 -0.6623 -2.0763  1.1162
 5164TIP3   OH236906   1.427   5.366  16.062 -0.1180  0.3195  0.2987
 5164TIP3    H136907   1.482   5.441  16.082 -1.3387  1.3925 -0.2408
 5164TIP3    H236908   1.356   5.401  16.008 -0.5418 -1.2819 -0.2510
 5165TIP3   OH236909   3.098   2.587  13.119  0.2428 -0.2329  0.4197
 5165TIP3    H136910   3.092   2.570  13.025  0.8744 -0.8321  0.4724
 5165TIP3    H236911   3.036   2.657  13.136  1.8521  1.5945 -0.8530
 5166TIP3   OH236912   1.240   1.768   4.838 -0.1462 -0.1367  0.1779
 5166TIP3    H136913   1.224   1.840   4.899 -0.7722  0.5345 -0.7587
 5166TIP3    H236914   1.283   1.808   4.763 -1.5289 -0.5083 -0.8494
 5167TIP3   OH236915   1.223   2.128   5.215  0.1132  0.5946 -0.4183
 5167TIP3    H136916   1.176   2.110   5.297  1.3760 -2.0550 -0.1633
 5167TIP3    H236917   1.293   2.188   5.241 -0.0501  0.5025  0.2753
 5168TIP3   OH236918   0.992   0.017  15.923  0.5816 -0.0179 -0.5609
 5168TIP3    H136919   1.001  -0.071  15.961 -0.9243 -0.1610 -0.5054
 5168TIP3    H236920   0.900   0.023  15.898  0.6143  1.6526 -0.3368
 5169TIP3   OH236921   3.353   5.341   5.636  0.2879  0.0568  0.0577
 5169TIP3    H136922   3.372   5.347   5.730 -0.1458  0.2464  0.1342
 5169TIP3    H236923   3.290   5.270   5.628  1.3274 -0.8593 -0.2483
 5170TIP3   OH236924   5.268   5.271  16.083 -0.2519  0.8108 -0.4919
 5170TIP3    H136925   5.339   5.309  16.134 -0.3241  0.0283  0.2203
 5170TIP3    H236926   5.310   5.234  16.006  0.2117 -0.1748  0.2160
 5171TIP3   OH236927   4.373   1.300   1.719 -0.2371  0.0870  0.8247
 5171TIP3    H136928   4.283   1.316   1.745 -1.0722 -1.4681 -0.8808
 5171TIP3    H236929   4.397   1.220   1.766 -0.3078 -0.3906  0.0530
 5172TIP3   OH236930   0.509   6.106  10.463  0.2923 -0.3589  0.1849
 5172TIP3    H136931   0.462   6.184  10.492  1.8290 -0.0826  2.1533
 5172TIP3    H236932   0.566   6.137  10.393 -0.1813 -0.0485 -0.0667
 5173TIP3   OH236933   1.147   3.609   4.124  0.9603 -0.2464 -0.0095
 5173TIP3    H136934   1.200   3.568   4.056  0.4184 -0.6328 -0.2139
 5173TIP3    H236935   1.190   3.692   4.142  1.3088 -0.2977 -0.5793
 5174TIP3   OH236936   1.322   4.245  16.154 -0.2802 -0.0266 -0.3140
 5174TIP3    H136937   1.366   4.317  16.109  1.8844  0.2077  1.9463
 5174TIP3    H236938   1.374   4.232  16.234 -1.8281 -2.7286  0.3621
 5175TIP3   OH236939   1.748   0.388   5.371 -0.1735  0.2344 -0.2122
 5175TIP3    H136940   1.734   0.299   5.404  1.4134 -0.0672 -0.2821
 5175TIP3    H236941   1.724   0.445   5.444  1.1564 -0.3532  0.7176
 5176TIP3   OH236942   3.804   2.304   0.112  0.2686  0.3645  0.0615
 5176TIP3    H136943   3.833   2.235   0.171  0.2727 -0.2571 -0.6565
 5176TIP3    H236944   3.818   2.268   0.025 -3.9569 -0.6196 -0.4108
 5177TIP3   OH236945   1.638   4.762   4.946  0.5843 -0.6819  0.0596
 5177TIP3    H136946   1.666   4.672   4.928 -0.1266 -1.0328  0.6527
 5177TIP3    H236947   1.598   4.758   5.033  0.5413  0.2119  0.0944
 5178TIP3   OH236948   4.245   4.661  14.660 -0.5356  0.2374  0.5521
 5178TIP3    H136949   4.340   4.658  14.673 -0.3450 -0.5266 -0.8733
 5178TIP3    H236950   4.211   4.698  14.742  1.2784  4.1069 -0.1793
 5179TIP3   OH236951   5.313   6.533   3.171 -0.0732 -0.5533 -0.2822
 5179TIP3    H136952   5.344   6.478   3.098  1.6844 -2.0420  1.4540
 5179TIP3    H236953   5.392   6.576   3.203 -1.2518  2.2421 -0.8787
 5180TIP3   OH236954   3.609   5.296   6.250 -0.0668  0.3900  0.6979
 5180TIP3    H136955   3.684   5.261   6.299 -0.7665  1.2074  2.4387
 5180TIP3    H236956   3.544   5.226   6.252  0.0287  0.2980  0.6307
 5181TIP3   OH236957   2.469   3.420   0.016  0.2020  0.0543  0.3659
 5181TIP3    H136958   2.545   3.386  -0.032 -0.5900  1.2785 -1.8965
 5181TIP3    H236959   2.468   3.514  -0.002 -0.7736  0.3991  1.9533
 5182TIP3   OH236960   2.183   6.374  16.137 -0.4424 -0.7294 -0.2746
 5182TIP3    H136961   2.196   6.454  16.188 -2.8056 -0.5792  0.1732
 5182TIP3    H236962   2.266   6.362  16.091  1.0065  0.3390  1.8848
 5183TIP3   OH236963   2.868   2.733   2.342  0.4965 -0.0780  0.0406
 5183TIP3    H136964   2.792   2.675   2.350  1.2472 -1.0552  0.4091
 5183TIP3    H236965   2.939   2.684   2.383  1.4629  0.5533 -0.8220
 5184TIP3   OH236966   2.246   1.387   1.326 -0.0404 -0.2113  0.6236
 5184TIP3    H136967   2.196   1.371   1.406 -0.6817 -0.7187  0.1364
 5184TIP3    H236968   2.294   1.305   1.311 -2.2188 -1.2980 -1.0936
 5185TIP3   OH236969   1.190   4.163   3.923  0.0297  0.5467 -0.2018
 5185TIP3    H136970   1.186   4.223   3.849 -0.5347 -0.6091 -1.1418
 5185TIP3    H236971   1.108   4.113   3.918  0.4804 -0.3048  0.5346
 5186TIP3   OH236972   2.249   4.515  16.072  0.1427 -0.2434 -0.9358
 5186TIP3    H136973   2.226   4.603  16.042  0.3938 -0.4828 -1.8829
 5186TIP3    H236974   2.344   4.512  16.071  0.1522 -1.0866 -2.7607
 5187TIP3   OH236975   0.635   6.420  14.393  0.3102 -0.4753  0.2180
 5187TIP3    H136976   0.555   6.450  14.436  2.1296  0.4355  3.3582
 5187TIP3    H236977   0.674   6.500  14.356 -1.0676 -1.2019 -3.1483
 5188TIP3   OH236978   0.262   6.227  11.849 -0.1807 -0.1155  0.2630
 5188TIP3    H136979   0.320   6.267  11.784 -2.6909  1.5188 -1.1393
 5188TIP3    H236980   0.296   6.258  11.933 -0.5129  3.0457 -0.6485
 5189TIP3   OH236981   4.331   0.231   1.242  0.1462 -0.0375  0.1378
 5189TIP3    H136982   4.297   0.158   1.189  1.8692  1.1203 -2.8004
 5189TIP3    H236983   4.288   0.308   1.207  2.9260  1.0220 -1.1761
 5190TIP3   OH236984   0.102   1.733  12.915  0.5220  0.3968 -0.3566
 5190TIP3    H136985   0.092   1.639  12.931 -0.4370  0.3288 -1.2207
 5190TIP3    H236986   0.188   1.743  12.874  0.3177 -0.2085 -0.9465
 5191TIP3   OH236987   2.728   2.453  13.776  0.2950 -0.7949  0.1146
 5191TIP3    H136988   2.791   2.455  13.847  0.9039 -0.1913 -0.4298
 5191TIP3    H236989   2.781   2.461  13.696 -0.5493  1.6695 -0.2927
 5192TIP3   OH236990   6.432   3.088  10.188  0.5451  0.1020 -0.2304
 5192TIP3    H136991   6.494   3.136  10.132  1.3158 -0.4147  0.1526
 5192TIP3    H236992   6.370   3.049  10.127 -0.2293  1.7482 -0.5351
 5193TIP3   OH236993   3.655   6.019   4.563  0.2061  0.8029 -1.3962
 5193TIP3    H136994   3.590   6.074   4.606  0.3026  0.4225 -0.7416
 5193TIP3    H236995   3.620   6.004   4.475 -0.2357  1.1970 -1.2901
 5194TIP3   OH236996   5.594   4.226   0.535 -0.2259 -0.1955 -0.0702
 5194TIP3    H136997   5.641   4.145   0.556  0.2472  0.4880  1.6455
 5194TIP3    H236998   5.521   4.198   0.480  1.8715 -1.3625 -2.4979
 5195TIP3   OH236999   2.723   3.845  12.364  0.2769  0.2322  0.0020
 5195TIP3    H137000   2.799   3.895  12.335  0.0784  0.1270 -0.7372
 5195TIP3    H237001   2.687   3.808  12.283 -0.2791 -0.1117  0.3990
 5196TIP3   OH237002   4.483   6.412  16.041  0.4979 -0.2015  0.5338
 5196TIP3    H137003   4.561   6.406  16.095  0.3706 -1.2085  0.6252
 5196TIP3    H237004   4.419   6.356  16.085  0.5109 -1.3450 -0.8159
 5197TIP3   OH237005   4.571   5.012   5.302  0.0999 -0.2626 -0.1546
 5197TIP3    H137006   4.574   4.991   5.396  0.6082  1.4980  0.2648
 5197TIP3    H237007   4.499   4.960   5.268 -0.6806 -0.2540  1.4083
 5198TIP3   OH237008   0.638   0.718   1.713  0.5323 -0.2075  0.4387
 5198TIP3    H137009   0.715   0.736   1.767  1.6212 -1.4181 -0.6466
 5198TIP3    H237010   0.623   0.799   1.664  0.0057  0.6363  1.9262
 5199TIP3   OH237011   4.212   2.940   2.067 -0.6309 -0.0302  0.0139
 5199TIP3    H137012   4.296   2.906   2.099 -0.2335  0.1399 -0.8109
 5199TIP3    H237013   4.207   2.909   1.976 -0.2527  2.0567 -0.7774
 5200TIP3   OH237014   2.385   1.053   1.612 -0.4093 -0.3096  0.0766
 5200TIP3    H137015   2.356   1.144   1.627 -1.7604 -0.6260 -0.4621
 5200TIP3    H237016   2.457   1.041   1.674 -0.0860  1.1801  0.0451
 5201TIP3   OH237017   6.477   6.282  12.831  0.2757  0.1086  0.2026
 5201TIP3    H137018   6.435   6.196  12.821  0.0705  0.4247 -1.9275
 5201TIP3    H237019   6.451   6.331  12.754  2.4246  1.2485  0.1349
 5202TIP3   OH237020   3.269   5.506   4.722 -0.3474 -0.2789  0.5586
 5202TIP3    H137021   3.336   5.502   4.654  0.0252 -0.7806  0.9478
 5202TIP3    H237022   3.236   5.417   4.729  0.5813 -0.5529  1.9771
 5203TIP3   OH237023   3.071   2.621  12.856 -0.1667  0.1834 -0.0283
 5203TIP3    H137024   3.060   2.609  12.762  0.8441 -0.4847 -0.0703
 5203TIP3    H237025   3.085   2.716  12.866  3.6986 -0.1434 -1.0309
 5204TIP3   OH237026   4.484   1.799  14.401 -0.0500 -0.1918  0.2033
 5204TIP3    H137027   4.512   1.729  14.342  0.4218  0.8461 -0.8199
 5204TIP3    H237028   4.520   1.879  14.363 -1.8147  0.8041  0.5416
 5205TIP3   OH237029   6.816   4.492  15.751  0.0816 -0.0374 -0.0655
 5205TIP3    H137030   6.823   4.569  15.695 -0.8344 -2.0318 -3.2190
 5205TIP3    H237031   6.722   4.476  15.757  0.2806 -1.4148 -0.3051
 5206TIP3   OH237032   6.706   5.270   5.235  0.5707 -0.1741 -0.1494
 5206TIP3    H137033   6.611   5.278   5.247  0.4569 -2.5149  1.1471
 5206TIP3    H237034   6.717   5.205   5.166  1.2802  1.0256 -1.2110
 5207TIP3   OH237035   1.370   3.816   5.243  0.0350  0.1394 -0.4433
 5207TIP3    H137036   1.352   3.802   5.336 -2.4761  0.1547 -0.8377
 5207TIP3    H237037   1.329   3.741   5.199  0.9786  0.2511 -1.5535
 5208TIP3   OH237038   3.849   2.545  15.804 -0.0769 -0.1129 -0.5641
 5208TIP3    H137039   3.876   2.621  15.856 -0.2089  0.6638 -1.5927
 5208TIP3    H237040   3.854   2.575  15.713 -0.4464 -1.2415 -0.9774
 5209TIP3   OH237041   3.796   4.585   2.340 -0.4695  0.4135 -0.1321
 5209TIP3    H137042   3.802   4.547   2.252 -0.1060 -0.9763  0.4727
 5209TIP3    H237043   3.878   4.560   2.383 -1.2718 -0.2238  1.0907
 5210TIP3   OH237044   5.145   2.899  15.680  0.1481  0.5112  0.2334
 5210TIP3    H137045   5.229   2.942  15.701 -0.1836  0.7619  1.1070
 5210TIP3    H237046   5.115   2.865  15.764 -1.0295  1.1473  0.0908
 5211TIP3   OH237047   4.121   6.171   5.956  0.5020 -0.3898 -0.0074
 5211TIP3    H137048   4.119   6.084   5.997  1.1397  0.6038  2.3003
 5211TIP3    H237049   4.034   6.180   5.916 -0.4205 -1.2350  1.6782
 5212TIP3   OH237050   6.598   1.654  11.783  0.4992 -0.2262  0.7198
 5212TIP3    H137051   6.526   1.671  11.722 -0.5716  1.1564  2.2772
 5212TIP3    H237052   6.590   1.561  11.804  0.5316 -0.5896 -0.7640
 5213TIP3   OH237053   3.537   0.004   5.873  0.6859  0.2544 -0.3737
 5213TIP3    H137054   3.573  -0.085   5.865 -0.5082 -0.4081  1.0493
 5213TIP3    H237055   3.562   0.032   5.960 -2.9750 -0.6954  1.1910
 5214TIP3   OH237056   0.013   2.250   2.488 -0.3511  0.4213 -0.5353
 5214TIP3    H137057   0.066   2.179   2.451  0.7365  1.3263 -0.7385
 5214TIP3    H237058   0.053   2.330   2.456  1.4833  1.3579  3.5037
 5215TIP3   OH237059   6.428   2.652   4.596  0.1726  0.1684  0.4370
 5215TIP3    H137060   6.497   2.586   4.597  0.0910  0.0693 -0.0900
 5215TIP3    H237061   6.446   2.707   4.672  0.7542  0.0655  0.3768
 5216TIP3   OH237062   1.227   4.313  15.324  0.1696  0.4863  0.4031
 5216TIP3    H137063   1.230   4.293  15.230 -1.0969  0.6364  0.3163
 5216TIP3    H237064   1.319   4.328  15.347  0.5748 -0.1643 -0.6683
 5217TIP3   OH237065   6.279   6.534   4.592  0.6138 -0.8174 -0.1078
 5217TIP3    H137066   6.261   6.440   4.600 -0.9832 -0.7116 -1.7843
 5217TIP3    H237067   6.280   6.550   4.497 -0.2242  1.0397  0.1533
 5218TIP3   OH237068   3.018   4.020  15.808  0.4092 -0.3464 -0.1039
 5218TIP3    H137069   3.082   3.949  15.797  2.1945  1.0044  0.9930
 5218TIP3    H237070   2.951   4.003  15.741  1.0388 -2.7478 -0.1994
 5219TIP3   OH237071   3.739   3.611   4.375  0.0438  0.2702 -0.5075
 5219TIP3    H137072   3.690   3.540   4.335 -1.8050  1.8153 -1.1483
 5219TIP3    H237073   3.701   3.620   4.463  0.9717 -0.1836 -0.0526
 5220TIP3   OH237074   2.160   1.603  13.866 -0.3321 -0.1686 -0.5213
 5220TIP3    H137075   2.067   1.618  13.884 -0.7825 -1.4871 -1.5453
 5220TIP3    H237076   2.201   1.596  13.952 -1.5511 -1.5188 -0.0109
 5221TIP3   OH237077   3.401   4.559   5.498  0.2140 -0.2768  0.8272
 5221TIP3    H137078   3.412   4.647   5.534 -0.7689  1.4688 -2.6756
 5221TIP3    H237079   3.307   4.542   5.504  0.0525 -0.0022 -0.6807
 5222TIP3   OH237080   4.053   2.589  11.357 -0.3378  0.3542  0.2561
 5222TIP3    H137081   4.053   2.544  11.441 -2.6366 -0.0927  0.0897
 5222TIP3    H237082   4.047   2.682  11.380 -1.0371  0.2290  0.5970
 5223TIP3   OH237083   5.095   2.744  12.761  0.4681  0.1428  0.0965
 5223TIP3    H137084   5.127   2.760  12.850  1.2626 -1.0398  0.0469
 5223TIP3    H237085   5.048   2.660  12.767  0.5252  0.0555 -0.5902
 5224TIP3   OH237086   5.118   0.046   5.913 -0.2955 -0.3108 -0.1227
 5224TIP3    H137087   5.209   0.074   5.906 -0.1392  0.2728  3.0268
 5224TIP3    H237088   5.069   0.111   5.864  0.8198  0.5457 -0.1311
 5225TIP3   OH237089   1.368   3.314   5.242 -0.1872  0.1430  0.5127
 5225TIP3    H137090   1.405   3.318   5.154 -2.9504 -0.9710 -0.8465
 5225TIP3    H237091   1.411   3.239   5.283  0.2928 -0.0583 -0.3457
 5226TIP3   OH237092   0.794   4.154  12.475 -0.3205  0.2800 -0.3514
 5226TIP3    H137093   0.813   4.232  12.528 -0.7774  0.4066 -0.3722
 5226TIP3    H237094   0.818   4.179  12.386  2.1793 -0.5203  0.0053
 5227TIP3   OH237095   1.578   4.738   5.219  0.0129  0.0339  0.2264
 5227TIP3    H137096   1.497   4.732   5.268 -0.8386  0.2071 -1.1181
 5227TIP3    H237097   1.643   4.765   5.284 -0.9368 -0.3509  1.3723
 5228TIP3   OH237098   2.514   1.886   4.308  0.0192  0.2981  0.0906
 5228TIP3    H137099   2.532   1.807   4.360 -0.1713  1.1157  1.4287
 5228TIP3    H237100   2.491   1.852   4.221  1.4112 -1.0570  0.2047
 5229TIP3   OH237101   6.453   3.213  12.115 -0.1919  0.1180 -0.1589
 5229TIP3    H137102   6.444   3.307  12.096  1.3699 -0.4040 -4.4049
 5229TIP3    H237103   6.364   3.179  12.104 -0.8377  1.0059  1.7083
 5230TIP3   OH237104   3.733   1.964   3.903 -0.5968  0.2455 -0.4859
 5230TIP3    H137105   3.705   1.961   3.995 -0.6431  2.3146 -0.3732
 5230TIP3    H237106   3.691   2.043   3.868  2.4109  1.6834 -1.2020
 5231TIP3   OH237107   4.965   6.542  10.787  0.0869 -0.3652  0.3938
 5231TIP3    H137108   5.020   6.501  10.720 -2.7175 -0.7593 -1.8806
 5231TIP3    H237109   4.976   6.636  10.773 -0.3919 -0.4408 -0.6348
 5232TIP3   OH237110   4.622   6.652  10.862 -0.8066  0.5118  0.3941
 5232TIP3    H137111   4.693   6.661  10.926 -0.7588 -0.3446  0.4723
 5232TIP3    H237112   4.646   6.712  10.791 -0.3777  0.7665  0.7480
 5233TIP3   OH237113   1.118   0.900  13.881 -0.1523  0.4183 -0.1376
 5233TIP3    H137114   1.159   0.932  13.961 -0.8769 -0.7006  0.7220
 5233TIP3    H237115   1.040   0.955  13.871  0.3574  1.0851 -0.5373
 5234TIP3   OH237116   5.930   5.710  14.736 -0.5688  0.2085  0.1008
 5234TIP3    H137117   5.932   5.615  14.747 -0.8191 -0.0882 -1.9177
 5234TIP3    H237118   6.012   5.741  14.773  0.3521 -1.0349 -0.8158
 5235TIP3   OH237119   1.070   3.526   2.629 -0.0992  0.3135  0.1518
 5235TIP3    H137120   1.063   3.492   2.540 -0.0186 -0.3147  0.3801
 5235TIP3    H237121   1.154   3.492   2.661 -0.3147  0.2040  0.6018
 5236TIP3   OH237122   5.647   1.065  16.561 -0.8124 -0.0226 -0.4033
 5236TIP3    H137123   5.707   1.088  16.632 -0.4592 -0.2726 -0.6197
 5236TIP3    H237124   5.587   1.001  16.600 -1.0194  0.3178 -0.1545
 5237TIP3   OH237125   5.812   1.020  12.054 -0.3023 -0.3862  0.6952
 5237TIP3    H137126   5.814   1.101  12.003 -1.0801 -0.5014  0.4618
 5237TIP3    H237127   5.814   1.048  12.145 -1.2222 -0.0678  0.6253
 5238TIP3   OH237128   3.267   5.862  17.022  0.7150 -0.0733  0.2476
 5238TIP3    H137129   3.264   5.941  17.076 -0.4901 -0.2509  0.4544
 5238TIP3    H237130   3.291   5.893  16.935 -0.7551  0.6734  0.0871
 5239TIP3   OH237131   4.800   5.624   3.216  0.2909  0.9695  0.3153
 5239TIP3    H137132   4.709   5.597   3.203  0.9373 -0.7685 -0.9509
 5239TIP3    H237133   4.812   5.624   3.311 -0.5278 -0.5990  0.4395
 5240TIP3   OH237134   6.797   6.807   2.519 -0.4722 -0.2855 -0.2350
 5240TIP3    H137135   6.705   6.780   2.516 -0.5914  0.0936 -0.0391
 5240TIP3    H237136   6.834   6.759   2.593 -0.7586  0.3135  0.3027
 5241TIP3   OH237137   4.750   1.097   1.757  0.3867 -0.1769  0.3022
 5241TIP3    H137138   4.659   1.077   1.779  0.2967  0.6239  0.6691
 5241TIP3    H237139   4.745   1.164   1.689  0.7027  0.6221  1.0489
 5242TIP3   OH237140   6.729   5.837   3.723  0.4941  0.1149  0.1428
 5242TIP3    H137141   6.771   5.865   3.804  0.3366 -1.2753  0.7171
 5242TIP3    H237142   6.730   5.916   3.668  0.3519  1.1613  1.5813
 5243TIP3   OH237143   5.563   6.296   1.216 -0.3355  0.1430  0.2685
 5243TIP3    H137144   5.468   6.305   1.208 -0.5290 -1.2168  0.7355
 5243TIP3    H237145   5.575   6.212   1.260  1.1156 -0.4670 -1.1774
 5244TIP3   OH237146   3.546   6.256  10.212 -0.2330 -0.4780  0.1052
 5244TIP3    H137147   3.548   6.269  10.117  2.2692  2.0470  0.3779
 5244TIP3    H237148   3.551   6.345  10.248 -0.5534 -1.4030  2.6297
 5245TIP3   OH237149   0.562   3.436  11.491  0.3184 -0.1725 -0.4729
 5245TIP3    H137150   0.649   3.410  11.460  0.5702 -0.2460  0.2838
 5245TIP3    H237151   0.550   3.387  11.572  0.2211  1.0201  0.2540
 5246TIP3   OH237152   4.961   3.476   2.393  0.4073 -0.1892 -0.5118
 5246TIP3    H137153   4.914   3.429   2.324  1.1443 -0.5901 -0.7562
 5246TIP3    H237154   5.025   3.412   2.426  1.0743  0.4772 -0.4879
 5247TIP3   OH237155   4.892   6.652  14.948  0.7040  0.3292 -0.6242
 5247TIP3    H137156   4.821   6.711  14.972  1.2933  1.1417 -0.8215
 5247TIP3    H237157   4.911   6.673  14.857  1.9276  0.9262 -0.2573
 5248TIP3   OH237158   3.676   3.684   4.632  0.3132  0.4618  0.4629
 5248TIP3    H137159   3.740   3.614   4.626  1.1186  1.3255 -2.1808
 5248TIP3    H237160   3.685   3.717   4.722  2.3420 -0.5599  0.6770
 5249TIP3   OH237161   6.175   6.450  14.664  0.4469  0.3371 -0.0641
 5249TIP3    H137162   6.164   6.356  14.681  0.1784  0.2247 -0.8365
 5249TIP3    H237163   6.125   6.493  14.734  0.0370 -0.1021 -0.0871
 5250TIP3   OH237164   6.696   6.433  10.667  0.1874  0.5075 -0.1323
 5250TIP3    H137165   6.747   6.353  10.677 -1.7913 -1.1989 -2.3569
 5250TIP3    H237166   6.645   6.440  10.748  1.5858  0.4662  0.7673
 5251TIP3   OH237167   5.536   2.289  11.856  0.0481 -0.1765  0.1324
 5251TIP3    H137168   5.463   2.246  11.901 -0.2266 -0.5067 -0.6084
 5251TIP3    H237169   5.586   2.217  11.817  0.9125  0.0333  0.8306
 5252TIP3   OH237170   1.340   5.850   3.449 -0.4129 -0.3934 -0.5106
 5252TIP3    H137171   1.327   5.757   3.435  0.0485 -0.7599  1.2453
 5252TIP3    H237172   1.302   5.892   3.372 -0.6458 -2.0170 -1.3138
 5253TIP3   OH237173   2.580   3.216   4.366  0.4576 -0.3286  0.3815
 5253TIP3    H137174   2.639   3.219   4.442 -0.9009  0.2541  1.4676
 5253TIP3    H237175   2.552   3.124   4.362 -2.4536  0.2802  3.0836
 5254TIP3   OH237176   3.786   2.059   1.741  0.1489 -0.2883 -0.0879
 5254TIP3    H137177   3.833   2.111   1.806 -0.5062  0.9084 -0.5325
 5254TIP3    H237178   3.703   2.038   1.782 -0.5924  1.1447 -0.7876
 5255TIP3   OH237179   4.316   4.094  13.120 -0.1809  0.3031 -0.1878
 5255TIP3    H137180   4.402   4.132  13.102  0.2064  0.0053  0.9659
 5255TIP3    H237181   4.328   4.042  13.199 -1.5292  0.6519  0.2839
 5256TIP3   OH237182   3.547   0.567   0.668 -0.4389  0.3269 -0.6584
 5256TIP3    H137183   3.531   0.609   0.583  0.6273  1.6798 -0.2148
 5256TIP3    H237184   3.604   0.493   0.647  1.1826  1.6084 -0.9743
 5257TIP3   OH237185   5.726   5.111  14.221  0.1881 -0.2078 -0.5905
 5257TIP3    H137186   5.732   5.140  14.313  0.0225  0.8426 -0.8920
 5257TIP3    H237187   5.781   5.173  14.174 -3.0735  2.0470 -1.7863
 5258TIP3   OH237188   1.782   0.013   3.641 -0.4772 -0.4426 -0.0997
 5258TIP3    H137189   1.818   0.017   3.552  0.2549  1.9861  0.2382
 5258TIP3    H237190   1.690  -0.010   3.629 -0.1755 -1.0455 -1.4100
 5259TIP3   OH237191   0.175   4.944   2.605 -0.6398 -0.4759  0.2910
 5259TIP3    H137192   0.252   4.958   2.660  1.2290 -4.0445 -1.1220
 5259TIP3    H237193   0.200   4.975   2.519 -1.4837 -0.1012  0.1624
 5260TIP3   OH237194   3.368   0.827  14.989  0.1160  0.3411 -0.4594
 5260TIP3    H137195   3.379   0.921  14.972 -2.0761  0.9170  0.8614
 5260TIP3    H237196   3.372   0.819  15.084 -0.4600 -0.7856 -0.5183
 5261TIP3   OH237197   4.716   1.343   4.979  0.3709 -0.3820 -0.3832
 5261TIP3    H137198   4.789   1.403   4.963  0.2116 -0.4024 -1.2228
 5261TIP3    H237199   4.640   1.400   4.987  0.6160 -0.2748  1.5765
 5262TIP3   OH237200   1.335   4.147   1.238 -0.4758 -0.2255 -0.2047
 5262TIP3    H137201   1.311   4.117   1.150  0.3215  0.9070 -0.8231
 5262TIP3    H237202   1.421   4.189   1.227 -0.9296  1.0479  0.8795
 5263TIP3   OH237203   5.146   0.059   2.282  0.2461  0.7538  1.1037
 5263TIP3    H137204   5.147   0.047   2.187  1.5915 -0.8763  1.2661
 5263TIP3    H237205   5.118   0.150   2.294  0.7630  1.2420 -0.8842
 5264TIP3   OH237206   6.459   6.387  15.690  0.2342  0.2620  0.0435
 5264TIP3    H137207   6.451   6.433  15.773 -0.4584  0.5457 -0.1731
 5264TIP3    H237208   6.370   6.357  15.670  0.7778 -1.9148  0.5894
 5265TIP3   OH237209   5.656   5.026   1.342 -0.5917  0.6789 -0.2434
 5265TIP3    H137210   5.729   5.036   1.402  0.0595 -0.5301 -0.7911
 5265TIP3    H237211   5.619   5.114   1.334 -0.7389  0.8714  1.9459
 5266TIP3   OH237212   6.131   5.500   4.639  0.2110 -0.6322  0.0156
 5266TIP3    H137213   6.222   5.529   4.645  0.1939 -0.5748  0.0005
 5266TIP3    H237214   6.120   5.475   4.547  0.3374 -1.0632  0.1194
 5267TIP3   OH237215   5.546   1.783  14.989  0.0032 -0.1655 -0.1974
 5267TIP3    H137216   5.606   1.857  14.988  0.1392 -0.2291  1.5383
 5267TIP3    H237217   5.461   1.821  14.970  0.1923  0.3061 -0.1131
 5268TIP3   OH237218   0.826   1.840  12.517 -0.9932  0.7073 -0.2491
 5268TIP3    H137219   0.751   1.880  12.473 -0.0596  0.2460 -2.3953
 5268TIP3    H237220   0.817   1.746  12.500 -1.5400  0.2627  2.1451
 5269TIP3   OH237221   5.407   3.639  15.590  0.1982 -0.0492  0.2420
 5269TIP3    H137222   5.493   3.679  15.574  0.0579  0.6375  1.1533
 5269TIP3    H237223   5.388   3.592  15.509  1.3967 -0.1450 -0.0155
 5270TIP3   OH237224   2.914   5.902  15.972  0.2605  0.5609  0.1297
 5270TIP3    H137225   2.890   5.961  16.044  0.9781  0.1766  0.6944
 5270TIP3    H237226   2.955   5.958  15.907 -1.3424  1.0961 -0.4803
 5271TIP3   OH237227   2.812   4.550   5.156  0.0900  0.4856 -0.4867
 5271TIP3    H137228   2.793   4.540   5.063  1.1112  1.6380 -0.8444
 5271TIP3    H237229   2.906   4.535   5.163  0.0655  0.6679  0.3176
 5272TIP3   OH237230   5.024   3.235   1.736  0.4944  0.0869 -0.6310
 5272TIP3    H137231   5.050   3.154   1.779  0.6106  0.6664  0.4237
 5272TIP3    H237232   5.004   3.209   1.646 -3.7402 -1.9659  0.6282
 5273TIP3   OH237233   6.035   1.039  15.070  1.2547  0.6186 -0.5157
 5273TIP3    H137234   6.068   1.091  15.144  2.0269 -1.0826  0.4008
 5273TIP3    H237235   6.017   0.953  15.108 -2.6802  0.9079 -1.3531
 5274TIP3   OH237236   0.669   5.327  14.876  0.0417 -0.0794  0.0296
 5274TIP3    H137237   0.760   5.304  14.897 -0.6648 -1.9572  1.4123
 5274TIP3    H237238   0.652   5.406  14.926  0.1708 -1.2374  2.0392
 5275TIP3   OH237239   2.576   4.244  14.457  0.0816  0.2335  0.2994
 5275TIP3    H137240   2.485   4.230  14.481  0.2725  0.4849  1.2163
 5275TIP3    H237241   2.573   4.297  14.378 -0.5962 -1.5789 -0.9671
 5276TIP3   OH237242   0.082   1.015   5.455 -0.4907  0.4917 -0.0774
 5276TIP3    H137243   0.124   0.929   5.453 -0.0240  0.6277 -4.0521
 5276TIP3    H237244   0.145   1.072   5.499  0.0454 -0.7811  0.8572
 5277TIP3   OH237245   6.311   0.526   3.773 -0.1361  0.1337 -1.0880
 5277TIP3    H137246   6.289   0.474   3.850  1.1864  0.7928 -0.2397
 5277TIP3    H237247   6.336   0.462   3.707  1.1846 -0.3494 -0.1541
 5278TIP3   OH237248   4.232   2.481  14.708  0.1614  0.2392 -0.3596
 5278TIP3    H137249   4.158   2.422  14.697 -0.5559  1.0880 -0.2143
 5278TIP3    H237250   4.252   2.477  14.802  1.7798 -1.6960 -0.7302
 5279TIP3   OH237251   3.294   2.035  12.218  0.5199 -0.2471 -0.1883
 5279TIP3    H137252   3.364   1.975  12.193  0.2906  0.1773 -1.9717
 5279TIP3    H237253   3.216   1.998  12.178 -0.8097 -1.8852  3.5055
 5280TIP3   OH237254   3.311   3.466   5.760 -0.0061  0.2421 -0.3147
 5280TIP3    H137255   3.343   3.553   5.738 -0.3942  0.4474 -0.0636
 5280TIP3    H237256   3.218   3.478   5.779 -0.1556 -0.2936 -0.6819
 5281TIP3   OH237257   3.173   5.121   1.051 -0.4498 -0.0850  0.1370
 5281TIP3    H137258   3.209   5.033   1.046 -0.1458 -0.3355  4.1452
 5281TIP3    H237259   3.078   5.108   1.055 -0.3987 -0.2575  0.8480
 5282TIP3   OH237260   3.036   2.162  10.324  0.2686 -0.2982 -0.4682
 5282TIP3    H137261   3.051   2.079  10.370  0.4073 -1.0256 -1.7995
 5282TIP3    H237262   3.124   2.193  10.300  0.2813  0.6393  0.6583
 5283TIP3   OH237263   3.996   3.740  16.046  0.0789  0.0216  0.0962
 5283TIP3    H137264   4.008   3.725  16.139 -0.1964 -0.0254  0.1259
 5283TIP3    H237265   3.972   3.654  16.011  1.0496 -0.1487 -0.1653
 5284TIP3   OH237266   2.227   4.056  13.642  0.5533 -0.4273  0.5931
 5284TIP3    H137267   2.158   4.111  13.605  0.9483  0.2245  0.8200
 5284TIP3    H237268   2.262   4.009  13.566  2.0546  1.6629 -0.0966
 5285TIP3   OH237269   4.340   3.050  14.127 -0.6868 -0.4130 -0.1574
 5285TIP3    H137270   4.278   3.106  14.173 -0.5832  0.0563 -0.5718
 5285TIP3    H237271   4.424   3.066  14.169 -0.3326  1.0300 -1.3325
 5286TIP3   OH237272   2.351   0.546   3.950 -0.3011 -0.5336  0.0337
 5286TIP3    H137273   2.327   0.485   4.020 -1.5023  0.8965  0.9445
 5286TIP3    H237274   2.430   0.509   3.911 -0.1281 -1.8568  1.5464
 5287TIP3   OH237275   3.173   4.296   3.841  0.0932  0.5241  0.4016
 5287TIP3    H137276   3.123   4.214   3.839 -1.0758  1.1401  2.0266
 5287TIP3    H237277   3.205   4.307   3.751 -3.4429  0.4899 -1.0298
 5288TIP3   OH237278   3.323   2.927   5.801 -0.3459 -0.5343  0.2243
 5288TIP3    H137279   3.321   3.021   5.784  0.1581 -0.5635 -0.0096
 5288TIP3    H237280   3.321   2.920   5.897  1.6854 -0.2172  0.3185
 5289TIP3   OH237281   3.681   3.028   5.610 -0.0191  0.8310 -0.0448
 5289TIP3    H137282   3.727   3.108   5.635  2.0245 -0.9448  2.3900
 5289TIP3    H237283   3.743   2.958   5.628 -1.7860 -1.3609 -1.9052
 5290TIP3   OH237284   1.761   4.236  14.534 -0.1364 -0.1318 -0.3035
 5290TIP3    H137285   1.717   4.268  14.612  1.1379 -0.9339  0.7894
 5290TIP3    H237286   1.847   4.206  14.565 -0.2747 -2.1529 -1.6825
 5291TIP3   OH237287   2.568   6.022   1.055 -0.1294  0.1000  0.3304
 5291TIP3    H137288   2.592   6.111   1.032 -1.2486  0.4489  0.4604
 5291TIP3    H237289   2.623   5.967   1.000 -0.6183  0.8885 -0.9847
 5292TIP3   OH237290   4.283   0.801  12.010 -0.2139  0.5484 -0.9233
 5292TIP3    H137291   4.187   0.805  12.009 -0.2561  0.3385  0.4060
 5292TIP3    H237292   4.307   0.849  12.089  0.9499  3.1911 -2.7209
 5293TIP3   OH237293   3.955   5.574  12.947 -0.5558 -0.1191 -0.1456
 5293TIP3    H137294   3.980   5.483  12.935 -1.4277 -0.2951 -0.7506
 5293TIP3    H237295   4.028   5.613  12.995  0.3274 -0.8591 -0.8589
 5294TIP3   OH237296   2.398   2.650  13.131  0.3973 -0.1669  0.3432
 5294TIP3    H137297   2.387   2.561  13.098  0.5796 -0.2640  0.5431
 5294TIP3    H237298   2.342   2.704  13.075 -0.7875 -0.5999  1.0828
 5295TIP3   OH237299   6.120   6.414   2.241 -0.1262 -0.2604  0.0559
 5295TIP3    H137300   6.025   6.419   2.228 -0.1537 -0.4077  0.1980
 5295TIP3    H237301   6.131   6.355   2.316  0.0366  0.5708  0.6911
 5296TIP3   OH237302   4.076   1.536   1.131  0.5765  0.5896  0.1551
 5296TIP3    H137303   4.153   1.479   1.123  1.8037  2.2192 -0.3718
 5296TIP3    H237304   4.074   1.561   1.224  2.7816  3.1466 -0.3450
 5297TIP3   OH237305   2.372   5.631  12.319  0.6725 -0.2008  0.6154
 5297TIP3    H137306   2.361   5.609  12.412  2.2576 -0.5471  0.7600
 5297TIP3    H237307   2.385   5.726  12.319 -2.5233  0.3506  0.3645
 5298TIP3   OH237308   1.358   5.182   1.340  0.0294  0.1082 -0.5127
 5298TIP3    H137309   1.282   5.147   1.386 -0.3100 -1.0440 -1.8683
 5298TIP3    H237310   1.413   5.105   1.322  0.4674  0.6133 -1.4004
 5299TIP3   OH237311   4.421   6.373  15.218  0.7555  0.5117 -0.6390
 5299TIP3    H137312   4.381   6.351  15.302  0.9206  0.4155 -0.5844
 5299TIP3    H237313   4.511   6.341  15.226  0.9227  0.9830 -0.6548
 5300TIP3   OH237314   1.342   1.040   3.764 -0.2825  0.3882  0.2172
 5300TIP3    H137315   1.311   1.022   3.675  1.4088 -0.0447 -0.3181
 5300TIP3    H237316   1.354   1.135   3.766 -3.1228  0.8251  0.9897
 5301TIP3   OH237317   4.020   4.926   5.260 -0.5178  0.0433 -0.6563
 5301TIP3    H137318   4.011   4.915   5.165 -2.8419  0.8765 -0.5884
 5301TIP3    H237319   3.969   4.854   5.297 -1.0264  0.6996 -0.0633
 5302TIP3   OH237320   5.645   3.057  14.354  0.3603 -0.3969  0.1732
 5302TIP3    H137321   5.679   3.138  14.392  1.1736 -0.8189  0.3742
 5302TIP3    H237322   5.572   3.085  14.298  0.8850  0.5106 -0.0789
 5303TIP3   OH237323   1.618   5.183   3.539  0.8690  0.1882  0.5746
 5303TIP3    H137324   1.660   5.201   3.623  0.3583  0.6333  0.7483
 5303TIP3    H237325   1.670   5.113   3.500  0.0007 -1.4065  2.1242
 5304TIP3   OH237326   0.989   5.092  16.032  0.2616  0.0343 -0.0808
 5304TIP3    H137327   0.977   5.039  16.110 -2.1023  0.4839 -0.0626
 5304TIP3    H237328   1.083   5.088  16.014  0.8002 -0.4094  2.5148
 5305TIP3   OH237329   1.866   4.434  14.796 -0.4764 -0.0196  0.2335
 5305TIP3    H137330   1.948   4.397  14.763 -0.1584  0.7832  0.0946
 5305TIP3    H237331   1.811   4.358  14.816 -0.1579 -0.5537 -0.8316
 5306TIP3   OH237332   5.909   0.119  11.997 -0.4394  0.2647  0.1190
 5306TIP3    H137333   5.950   0.043  12.038  0.2527  0.6686  0.1798
 5306TIP3    H237334   5.865   0.084  11.920 -0.4315 -0.2542  0.3450
 5307TIP3   OH237335   4.577   1.034  16.450 -0.3600 -0.0889 -0.0498
 5307TIP3    H137336   4.493   1.078  16.439 -0.1907  0.1908 -0.2354
 5307TIP3    H237337   4.577   0.966  16.383 -0.1247  0.3942 -0.5448
 5308TIP3   OH237338   6.137   2.911   0.893 -0.7320 -0.2810  0.4652
 5308TIP3    H137339   6.197   2.927   0.819 -0.9968 -2.4214 -0.2648
 5308TIP3    H237340   6.062   2.867   0.854 -1.2541 -0.7016  1.8910
 5309TIP3   OH237341   5.829   6.643  12.182  0.2217 -0.1227 -0.3237
 5309TIP3    H137342   5.865   6.565  12.224 -0.1815 -0.3291 -0.3601
 5309TIP3    H237343   5.904   6.702  12.174  0.4023 -0.2682  0.2446
 5310TIP3   OH237344   5.507   4.122  15.866  0.1668  0.2836 -0.0341
 5310TIP3    H137345   5.501   4.026  15.860  0.2676  0.3591 -1.5707
 5310TIP3    H237346   5.438   4.154  15.809  0.9361  1.1244 -0.5121
 5311TIP3   OH237347   4.997   1.124   5.006  0.3369 -0.6558  0.1119
 5311TIP3    H137348   5.027   1.204   5.049 -0.5146  0.3511 -1.0776
 5311TIP3    H237349   5.077   1.079   4.980  0.9044  1.3065 -1.8382
 5312TIP3   OH237350   4.430   6.038  13.614  0.1373 -0.5948 -0.2848
 5312TIP3    H137351   4.372   6.113  13.598 -0.9824 -1.9114 -3.2636
 5312TIP3    H237352   4.480   6.029  13.533 -0.0906 -3.2820 -0.2134
 5313TIP3   OH237353   6.133   5.572   3.264 -0.5487  0.0870 -0.0534
 5313TIP3    H137354   6.166   5.571   3.174  1.9432 -2.3355  0.7592
 5313TIP3    H237355   6.050   5.525   3.259  0.2054 -1.2229 -0.9310
 5314TIP3   OH237356   6.731   2.873  14.749 -0.0699  0.1432 -0.7562
 5314TIP3    H137357   6.698   2.784  14.736 -0.7863  0.4005 -0.7215
 5314TIP3    H237358   6.680   2.907  14.822 -0.6118  0.9860 -1.5087
 5315TIP3   OH237359   0.664   6.143   6.292  0.3061  0.2097 -0.2954
 5315TIP3    H137360   0.733   6.077   6.285  0.8978  0.9059 -1.1856
 5315TIP3    H237361   0.677   6.200   6.216 -1.1858  0.4150 -0.4170
 5316TIP3   OH237362   4.075   6.062  12.973  0.2282  0.0130 -0.1001
 5316TIP3    H137363   4.153   6.118  12.978  0.6359 -0.6028  0.5811
 5316TIP3    H237364   4.056   6.040  13.064 -0.7669  0.1794 -0.2588
 5317TIP3   OH237365   0.529   3.741  10.748  0.9242 -0.0829  0.2341
 5317TIP3    H137366   0.509   3.816  10.692  2.1072 -0.8670 -1.3056
 5317TIP3    H237367   0.530   3.777  10.837  0.9903  1.6163 -0.4200
 5318TIP3   OH237368   5.872   3.590  13.786 -0.1192  0.5040 -0.4191
 5318TIP3    H137369   5.829   3.579  13.701  0.7666 -2.1812 -0.6227
 5318TIP3    H237370   5.945   3.649  13.769  1.5601 -1.9157 -2.2188
 5319TIP3   OH237371   0.778   2.310  10.605 -0.1455  0.5969 -0.2678
 5319TIP3    H137372   0.703   2.350  10.562  1.1088  1.9789 -1.2456
 5319TIP3    H237373   0.843   2.380  10.611  0.7745 -0.3329  1.3269
 5320TIP3   OH237374   6.306   4.381   0.156 -0.1233  0.8663  0.5994
 5320TIP3    H137375   6.374   4.324   0.191 -1.0942 -0.3980  0.5067
 5320TIP3    H237376   6.334   4.469   0.180  0.8495  0.2753  1.7377
 5321TIP3   OH237377   1.225   6.620   0.998 -0.0638  0.4576 -0.0601
 5321TIP3    H137378   1.290   6.551   1.011  0.3273  0.8596  0.1151
 5321TIP3    H237379   1.159   6.603   1.066 -0.9463 -0.8585 -1.1823
 5322TIP3   OH237380   2.697   4.450  14.611 -0.3482 -0.0292 -0.1037
 5322TIP3    H137381   2.775   4.438  14.557 -0.2315  0.0840  0.0358
 5322TIP3    H237382   2.643   4.374  14.593 -0.0642 -0.2667  0.0322
 5323TIP3   OH237383   2.787   3.924   3.245 -0.0133  0.2909 -0.4387
 5323TIP3    H137384   2.778   4.006   3.197  1.5543  1.1126  0.6203
 5323TIP3    H237385   2.794   3.949   3.337 -1.2151 -1.1517  0.0984
 5324TIP3   OH237386   2.818   2.246  12.767  0.3062  0.0850 -0.5265
 5324TIP3    H137387   2.774   2.171  12.727 -0.0572  0.1892 -0.3229
 5324TIP3    H237388   2.748   2.298  12.806  0.7939 -1.3328  2.5480
 5325TIP3   OH237389   4.686   3.193   2.439  0.1128  0.1630  0.2280
 5325TIP3    H137390   4.609   3.197   2.496 -0.1856 -2.2739  0.1149
 5325TIP3    H237391   4.746   3.135   2.485  0.0881 -1.4199 -1.6091
 5326TIP3   OH237392   1.708   2.153   2.769  0.1765  0.4354  0.1636
 5326TIP3    H137393   1.757   2.203   2.834  0.1824  0.0151  0.4820
 5326TIP3    H237394   1.775   2.116   2.711  0.3377 -1.2587  1.3904
 5327TIP3   OH237395   1.522   1.577   2.810  0.1422  0.2098  0.0975
 5327TIP3    H137396   1.429   1.580   2.786  0.3260 -0.2713 -0.7044
 5327TIP3    H237397   1.559   1.659   2.776  0.7051 -1.0907 -2.6624
 5328TIP3   OH237398   0.645   4.125  13.940  0.0246  0.1135  0.6803
 5328TIP3    H137399   0.579   4.086  13.883  0.6989  0.8495 -0.6364
 5328TIP3    H237400   0.679   4.051  13.991 -0.1502 -0.6747 -0.3185
 5329TIP3   OH237401   2.043   0.529  16.303  0.0649 -0.6642  0.0893
 5329TIP3    H137402   2.135   0.539  16.328  0.2799 -0.7264 -0.6675
 5329TIP3    H237403   2.021   0.610  16.259 -0.0830 -0.8714 -0.2188
 5330TIP3   OH237404   4.788   2.804  16.345  0.6612 -0.3890 -0.6002
 5330TIP3    H137405   4.699   2.773  16.364  1.1056 -1.3443  0.0112
 5330TIP3    H237406   4.832   2.727  16.307  2.7112 -1.6706  3.7175
 5331TIP3   OH237407   2.196   3.450  13.960  0.4996  0.6730  0.8088
 5331TIP3    H137408   2.264   3.389  13.934 -0.2025  0.4529 -0.6195
 5331TIP3    H237409   2.117   3.396  13.969 -0.5774  1.5222 -2.3062
 5332TIP3   OH237410   3.329   4.376  14.121 -0.2638  0.3931 -0.1260
 5332TIP3    H137411   3.254   4.432  14.101 -1.1323 -0.7971 -0.3377
 5332TIP3    H237412   3.366   4.413  14.201 -0.2111  1.8262 -0.7683
 5333TIP3   OH237413   2.827   3.006   3.696 -0.4092 -0.1747  0.0140
 5333TIP3    H137414   2.855   3.081   3.749  0.3944 -1.4139  1.4313
 5333TIP3    H237415   2.732   3.014   3.691 -0.3308  0.9819  0.0471
 5334TIP3   OH237416   5.331   0.890  15.194 -0.6083  0.0373 -0.0223
 5334TIP3    H137417   5.375   0.907  15.277 -1.2328  1.3626  0.0764
 5334TIP3    H237418   5.301   0.799  15.200  0.7891 -0.4058  0.5019
 5335TIP3   OH237419   4.534   3.852   4.573 -0.0762  0.2201 -0.1491
 5335TIP3    H137420   4.561   3.901   4.495 -1.8109  0.8582 -0.4052
 5335TIP3    H237421   4.543   3.916   4.645  2.5847 -0.6865  0.4470
 5336TIP3   OH237422   4.421   5.112  11.825 -0.7107  0.0832 -0.1839
 5336TIP3    H137423   4.491   5.072  11.774 -1.1459 -0.3775 -0.4354
 5336TIP3    H237424   4.342   5.066  11.796 -0.9699 -0.1531  0.8865
 5337TIP3   OH237425   5.564   5.597   4.283  0.4975  0.1477  0.0349
 5337TIP3    H137426   5.607   5.512   4.291 -0.8940 -0.3623  3.5983
 5337TIP3    H237427   5.549   5.607   4.188  2.2054 -2.7365 -0.6529
 5338TIP3   OH237428   1.863   4.745   4.343 -0.1119 -0.7751 -0.1917
 5338TIP3    H137429   1.905   4.819   4.300  2.0690 -1.7623  0.1480
 5338TIP3    H237430   1.904   4.740   4.429 -0.4257 -2.1992 -0.0984
 5339TIP3   OH237431   4.146   2.994  14.518  0.5720  0.0356 -0.2093
 5339TIP3    H137432   4.170   2.907  14.485  1.0566  0.2461 -0.4148
 5339TIP3    H237433   4.177   3.055  14.452 -0.1679  0.3479 -0.2794
 5340TIP3   OH237434   5.942   2.217  16.844  0.1938 -0.4752  0.2753
 5340TIP3    H137435   5.876   2.226  16.776 -0.2053 -0.6506  0.6389
 5340TIP3    H237436   5.999   2.146  16.813 -1.6018 -2.5122  1.4209
 5341TIP3   OH237437   5.367   0.253   0.229  0.5080 -0.4483 -0.2373
 5341TIP3    H137438   5.433   0.316   0.257  1.9294 -1.9346 -0.0582
 5341TIP3    H237439   5.367   0.259   0.134  0.6135 -0.1551 -0.2195
 5342TIP3   OH237440   4.837   2.908   5.871 -0.3913 -0.6833 -0.0548
 5342TIP3    H137441   4.899   2.939   5.937 -3.4099 -0.0758  2.8089
 5342TIP3    H237442   4.795   2.987   5.839 -1.2036 -1.1850 -0.2574
 5343TIP3   OH237443   1.355   3.381   0.937 -0.2362 -0.1685 -0.1150
 5343TIP3    H137444   1.401   3.387   0.854 -0.0460  0.6681  0.0406
 5343TIP3    H237445   1.292   3.310   0.925  1.9146 -2.2194  0.0706
 5344TIP3   OH237446   2.117   4.017  16.415  0.4945 -0.3841 -0.1774
 5344TIP3    H137447   2.101   3.958  16.341 -0.8981  0.4061 -0.5584
 5344TIP3    H237448   2.205   3.996  16.444  0.8647 -1.1087 -1.7054
 5345TIP3   OH237449   6.529   4.170  12.895 -0.0991 -0.1762  0.2932
 5345TIP3    H137450   6.572   4.116  12.828  0.1312 -0.9574  1.0457
 5345TIP3    H237451   6.435   4.160  12.877 -0.0467  2.4710 -2.0768
 5346TIP3   OH237452   2.294   1.413  12.969  0.1376  0.0519 -0.2290
 5346TIP3    H137453   2.284   1.402  12.874 -1.1392  1.4285 -0.2860
 5346TIP3    H237454   2.242   1.341  13.006 -0.1214  0.0536 -0.5737
 5347TIP3   OH237455   6.803   1.960   4.905 -0.6760 -0.4213 -0.0446
 5347TIP3    H137456   6.806   2.054   4.924 -0.1113 -0.1732 -1.2353
 5347TIP3    H237457   6.711   1.941   4.891 -0.5600  0.7480 -3.2008
 5348TIP3   OH237458   1.024   0.784  10.482 -0.3857  0.0405  0.0695
 5348TIP3    H137459   1.086   0.768  10.410 -0.9209  1.5514 -0.7835
 5348TIP3    H237460   0.958   0.715  10.472 -0.7182  0.5081 -1.2253
 5349TIP3   OH237461   0.422   4.634   1.708 -0.0857 -0.6197  0.0534
 5349TIP3    H137462   0.444   4.541   1.717 -0.2453 -0.8413 -1.5432
 5349TIP3    H237463   0.386   4.642   1.620  1.5575  1.2628 -0.5267
 5350TIP3   OH237464   1.436   0.944   1.098 -0.3476  0.0799 -0.8114
 5350TIP3    H137465   1.499   0.945   1.170 -0.3568  1.2329 -0.8077
 5350TIP3    H237466   1.421   0.851   1.080  2.9645 -0.3041 -2.2527
 5351TIP3   OH237467   0.535   5.531   3.247 -0.1847  0.6622  0.6136
 5351TIP3    H137468   0.522   5.553   3.155  2.2343  0.3011  0.1180
 5351TIP3    H237469   0.560   5.439   3.246 -2.9434 -0.2046  1.9679
 5352TIP3   OH237470   5.274   1.486  16.092  0.0270  0.2943  0.2473
 5352TIP3    H137471   5.180   1.467  16.099  0.2827 -1.4778 -0.6591
 5352TIP3    H237472   5.307   1.475  16.181 -0.4681  0.0671  0.4095
 5353TIP3   OH237473   1.269   5.077  14.285 -0.1154  0.0590  0.2995
 5353TIP3    H137474   1.236   5.109  14.201  0.6230  0.7730  0.2651
 5353TIP3    H237475   1.360   5.055  14.268 -0.1099 -0.3022  0.7862
 5354TIP3   OH237476   5.894   5.464   0.032  0.2941  0.1233 -0.1138
 5354TIP3    H137477   5.985   5.455   0.004 -0.0930 -2.0897 -0.8233
 5354TIP3    H237478   5.846   5.398  -0.019 -1.5829  0.6720  0.8382
 5355TIP3   OH237479   3.229   1.288   2.183  0.0567  0.5834  0.7935
 5355TIP3    H137480   3.257   1.362   2.129 -0.7401  0.5549  0.3157
 5355TIP3    H237481   3.185   1.229   2.122  1.6278 -0.8393  0.9551
 5356TIP3   OH237482   4.371   6.039   2.273  0.2011  0.4124  0.8218
 5356TIP3    H137483   4.388   6.125   2.311 -0.1428 -0.7272  3.8348
 5356TIP3    H237484   4.327   5.990   2.342  2.6155 -3.0069  0.1997
 5357TIP3   OH237485   3.420   5.677   2.434  0.0968  0.3632  0.0188
 5357TIP3    H137486   3.445   5.591   2.468  0.0824  0.1631 -0.4592
 5357TIP3    H237487   3.498   5.707   2.386  0.2863  0.8561  0.6362
 5358TIP3   OH237488   6.504   3.277   2.094 -0.2129 -0.1982  0.1991
 5358TIP3    H137489   6.520   3.191   2.133  2.3723 -0.5593 -1.4371
 5358TIP3    H237490   6.532   3.339   2.162  1.6097 -0.7654  0.0228
 5359TIP3   OH237491   2.090   1.718   2.245  0.4299  0.1447  0.0653
 5359TIP3    H137492   2.154   1.789   2.240 -1.4560  2.0057  0.7581
 5359TIP3    H237493   2.142   1.638   2.240  2.5762  1.5489 -1.7355
 5360TIP3   OH237494   4.671   5.422   2.370 -0.4072 -0.0073  0.0273
 5360TIP3    H137495   4.583   5.449   2.398  0.9551  2.2394  2.5845
 5360TIP3    H237496   4.699   5.492   2.311  0.0343 -0.1596  0.0547
 5361TIP3   OH237497   1.983   4.488   0.413  0.0502 -0.3573  0.2873
 5361TIP3    H137498   1.932   4.416   0.376  0.1810 -0.3161  0.0221
 5361TIP3    H237499   1.924   4.530   0.475 -0.3004 -0.1940 -0.1526
 5362TIP3   OH237500   5.848   4.215   6.166 -0.1579 -0.5358  0.4963
 5362TIP3    H137501   5.843   4.311   6.176  1.3793 -0.0957 -2.0845
 5362TIP3    H237502   5.758   4.189   6.145 -0.3503  0.5508 -0.1097
 5363TIP3   OH237503   0.821   5.934   6.226  0.1651  0.4018  0.1010
 5363TIP3    H137504   0.804   5.875   6.152 -1.1490  0.6980  0.1523
 5363TIP3    H237505   0.851   5.875   6.296  2.4819  0.2303 -0.9352
 5364TIP3   OH237506   4.039   0.250  14.616  0.1230  0.0818 -0.1404
 5364TIP3    H137507   4.064   0.337  14.647 -0.4045  0.9241 -1.9237
 5364TIP3    H237508   4.029   0.260  14.522  0.8137 -2.1296 -0.5125
 5365TIP3   OH237509   0.525   2.009  14.105  0.3119  0.1695  0.0568
 5365TIP3    H137510   0.596   1.974  14.051  0.5731  2.7162 -1.4294
 5365TIP3    H237511   0.569   2.045  14.182  0.3471 -0.3382  0.2766
 5366TIP3   OH237512   5.083   5.225   4.332 -0.0885 -0.5957 -0.2041
 5366TIP3    H137513   5.023   5.232   4.258  0.3029 -0.4628 -0.5143
 5366TIP3    H237514   5.040   5.272   4.404  0.7276  1.6627 -1.1057
 5367TIP3   OH237515   6.585   1.723   5.678  0.4939 -0.2419  0.1454
 5367TIP3    H137516   6.635   1.650   5.714 -0.3641 -0.6839  0.4517
 5367TIP3    H237517   6.529   1.683   5.611 -0.2034  0.0852  0.5272
 5368TIP3   OH237518   5.992   3.440   2.085 -0.3825  0.4547  0.0280
 5368TIP3    H137519   6.027   3.523   2.118  0.8649  0.1255 -0.3993
 5368TIP3    H237520   6.066   3.400   2.040 -0.8176 -1.1378  0.6787
 5369TIP3   OH237521   5.596   2.204   4.248  0.3028 -0.1415 -0.2228
 5369TIP3    H137522   5.596   2.288   4.294  0.0830  0.2036 -0.8373
 5369TIP3    H237523   5.616   2.227   4.157 -1.4125 -0.5425 -0.7415
 5370TIP3   OH237524   5.252   3.861   3.706 -0.3828 -0.1460  0.3370
 5370TIP3    H137525   5.236   3.865   3.612  0.4526 -1.1369  0.1280
 5370TIP3    H237526   5.304   3.781   3.718 -2.2488 -1.2274  1.8885
 5371TIP3   OH237527   4.895   5.857  11.178 -0.6616  0.0135 -0.2643
 5371TIP3    H137528   4.917   5.766  11.196  1.1924  0.4999  0.2277
 5371TIP3    H237529   4.880   5.896  11.264 -1.2354  0.2160 -0.4557
 5372TIP3   OH237530   3.224   6.268  12.354  0.1954 -0.8689 -0.1038
 5372TIP3    H137531   3.174   6.189  12.375 -0.5116 -1.0135 -2.0341
 5372TIP3    H237532   3.158   6.337  12.350  0.7014 -0.3185  0.8441
 5373TIP3   OH237533   0.649   3.373   4.393  0.2302  0.1925  0.5929
 5373TIP3    H137534   0.563   3.415   4.387 -0.2866 -0.9683 -0.5488
 5373TIP3    H237535   0.645   3.323   4.474 -0.2917 -0.0947  0.3953
 5374TIP3   OH237536   2.216   4.180  13.885  0.2543 -0.2421 -0.1881
 5374TIP3    H137537   2.140   4.129  13.912  0.0966  0.6833  1.2307
 5374TIP3    H237538   2.237   4.147  13.797 -3.2427  1.0858 -1.7117
 5375TIP3   OH237539   3.425   3.257  11.766  0.1463 -0.0611 -0.1720
 5375TIP3    H137540   3.357   3.294  11.711 -0.8603 -1.6170 -0.0259
 5375TIP3    H237541   3.485   3.330  11.783 -0.7795  1.0079 -1.3672
 5376TIP3   OH237542   3.928   0.268  12.001  0.1600  0.3226 -0.8501
 5376TIP3    H137543   3.872   0.331  11.956 -2.3181 -0.6914  0.5628
 5376TIP3    H237544   3.919   0.290  12.094  1.4099 -0.4604 -0.5202
 5377TIP3   OH237545   6.550   0.572  15.642  0.0719 -0.1427  0.7593
 5377TIP3    H137546   6.516   0.576  15.553 -1.6818 -1.3557  1.3176
 5377TIP3    H237547   6.531   0.658  15.680 -0.9774 -0.2741  0.5565
 5378TIP3   OH237548   4.840   0.302   5.944  1.0997 -0.2431  0.1459
 5378TIP3    H137549   4.901   0.278   6.013  0.4788  1.3026  1.2673
 5378TIP3    H237550   4.883   0.274   5.863  2.7280 -0.2744  0.9985
 5379TIP3   OH237551   0.835   1.855  10.164 -0.3237 -0.1974  0.0201
 5379TIP3    H137552   0.895   1.901  10.223  0.4864  0.7115 -1.4718
 5379TIP3    H237553   0.789   1.924  10.117 -1.6418 -0.9027  0.2171
 5380TIP3   OH237554   0.842   0.906  15.121 -0.4122  0.1585 -0.2541
 5380TIP3    H137555   0.792   0.953  15.188 -0.9920 -0.9030  0.0775
 5380TIP3    H237556   0.837   0.814  15.147  2.0393  0.0386 -0.0076
 5381TIP3   OH237557   1.623   6.654  16.207 -0.2052 -0.0842  0.8374
 5381TIP3    H137558   1.646   6.582  16.147  0.4680  0.4793  0.4096
 5381TIP3    H237559   1.528   6.665  16.195 -0.1273 -0.1593  0.0679
 5382TIP3   OH237560   2.436   0.536  11.010  0.0886 -0.0335 -0.1432
 5382TIP3    H137561   2.415   0.538  10.917  0.4569  0.2641 -0.2200
 5382TIP3    H237562   2.355   0.505  11.052  0.2604 -1.2692 -0.6624
 5383TIP3   OH237563   2.540   2.839  11.577  0.0127 -0.4640 -0.4822
 5383TIP3    H137564   2.464   2.879  11.535  0.7001  1.6021  0.1357
 5383TIP3    H237565   2.570   2.774  11.514  0.1992  1.5670 -2.6392
 5384TIP3   OH237566   0.752   3.234   3.058 -0.0942 -0.4889  0.0590
 5384TIP3    H137567   0.786   3.173   3.123  1.1935  2.3657  2.2666
 5384TIP3    H237568   0.830   3.265   3.012 -0.4730  0.9048  0.3185
 5385TIP3   OH237569   3.562   6.137   2.925  0.6136  0.3025  0.2080
 5385TIP3    H137570   3.524   6.223   2.912  0.0419  0.2095  1.1652
 5385TIP3    H237571   3.536   6.087   2.848 -1.3522  0.1956  0.9042
 5386TIP3   OH237572   5.464   3.473   1.105  0.2056  0.0337 -0.2940
 5386TIP3    H137573   5.439   3.436   1.020 -2.4887 -0.3395  0.5649
 5386TIP3    H237574   5.381   3.481   1.153  1.5072  1.2410  1.9206
 5387TIP3   OH237575   2.850   5.031   3.327 -0.1522  0.5873 -0.3029
 5387TIP3    H137576   2.887   4.997   3.409 -2.0464  0.5377  0.6017
 5387TIP3    H237577   2.815   4.953   3.283  0.0215  0.7405 -0.7187
 5388TIP3   OH237578   1.063   1.722  12.251  0.5427 -0.8323  0.3310
 5388TIP3    H137579   0.985   1.696  12.201  2.2137 -0.5462 -2.6999
 5388TIP3    H237580   1.044   1.812  12.279 -0.4456 -0.9738  0.1726
 5389TIP3   OH237581   0.843   0.262  11.373  0.0442  0.0902  0.1884
 5389TIP3    H137582   0.767   0.319  11.361 -0.4345 -0.0476  2.1819
 5389TIP3    H237583   0.918   0.316  11.350 -0.5863  0.5523 -0.8322
 5390TIP3   OH237584   1.353   6.175  15.312 -0.4804  0.5667 -0.2393
 5390TIP3    H137585   1.393   6.214  15.389 -0.5582 -1.0869  0.6997
 5390TIP3    H237586   1.331   6.249  15.255  1.4144  1.7005  0.4085
 5391TIP3   OH237587   5.606   4.299  10.973  0.3261 -0.2097  0.2291
 5391TIP3    H137588   5.682   4.262  11.018 -0.2065 -1.2959  0.2627
 5391TIP3    H237589   5.641   4.372  10.922  1.1469  0.2318  1.3830
 5392TIP3   OH237590   3.372   1.500   3.454  0.6195 -1.0760 -0.4609
 5392TIP3    H137591   3.401   1.424   3.506  0.5486 -0.5419  0.3752
 5392TIP3    H237592   3.453   1.548   3.436  0.8833 -2.0860 -2.2596
 5393TIP3   OH237593   4.835   1.386   5.620 -0.0306 -0.3462 -0.5158
 5393TIP3    H137594   4.818   1.478   5.637 -1.0726 -0.9270  2.1615
 5393TIP3    H237595   4.748   1.346   5.617  0.3429 -1.1005 -2.9369
 5394TIP3   OH237596   3.459   6.693  16.993  0.9789 -0.2146 -0.8948
 5394TIP3    H137597   3.552   6.697  16.974  1.5711  0.3145  1.6612
 5394TIP3    H237598   3.446   6.608  17.036  0.4171 -0.0249 -0.6734
 5395TIP3   OH237599   2.945   4.968  11.989  0.8236 -0.7336  0.2023
 5395TIP3    H137600   3.010   4.922  11.936  0.1560 -1.3378 -0.1192
 5395TIP3    H237601   2.915   4.903  12.052  0.9486 -0.2878  0.7248
 5396TIP3   OH237602   6.202   3.410   4.730  0.4134 -0.3915  0.0517
 5396TIP3    H137603   6.267   3.351   4.769  0.8447  0.2466  0.3176
 5396TIP3    H237604   6.217   3.403   4.636  0.1254 -1.0839  0.0541
 5397TIP3   OH237605   5.980   2.266   4.075  0.0556 -0.3016  0.1085
 5397TIP3    H137606   5.971   2.181   4.033 -1.4142 -0.2933  0.3684
 5397TIP3    H237607   6.073   2.271   4.099  0.3456 -1.4390 -0.6967
 5398TIP3   OH237608   2.456   5.404  14.645 -0.0001 -0.5160 -0.2107
 5398TIP3    H137609   2.453   5.460  14.567 -0.3483 -1.1815 -0.6832
 5398TIP3    H237610   2.525   5.442  14.699  1.6176 -1.1939 -1.7186
 5399TIP3   OH237611   3.369   1.595   2.543  0.2926  0.2811 -0.0573
 5399TIP3    H137612   3.301   1.626   2.603  0.2388  0.2631 -0.1092
 5399TIP3    H237613   3.442   1.574   2.600 -0.4737 -1.7672  0.2347
 5400TIP3   OH237614   2.898   6.531  14.288 -0.8226 -0.3758  0.7050
 5400TIP3    H137615   2.854   6.451  14.315 -1.2763 -0.7562 -1.0486
 5400TIP3    H237616   2.835   6.575  14.231 -0.8743  1.6253  2.1942
 5401TIP3   OH237617   5.586   6.032   1.532  0.5737  0.1661 -0.1587
 5401TIP3    H137618   5.559   6.045   1.623  2.8401 -0.4601  0.6715
 5401TIP3    H237619   5.565   5.941   1.513  0.1015  0.2968 -0.2674
 5402TIP3   OH237620   2.537   0.439  12.434 -0.7001  0.2051 -0.0305
 5402TIP3    H137621   2.458   0.388  12.448  0.8321 -2.0752  0.8462
 5402TIP3    H237622   2.585   0.391  12.367  0.1281  1.3689 -0.3080
 5403TIP3   OH237623   4.905   4.932   4.461  0.5104 -0.6057  0.8045
 5403TIP3    H137624   4.901   5.024   4.484  2.7506  0.0379 -0.9558
 5403TIP3    H237625   4.913   4.886   4.544 -0.1713  0.8152  1.6856
 5404TIP3   OH237626   4.703   1.848  16.344 -0.5566  0.1124 -0.1327
 5404TIP3    H137627   4.735   1.887  16.426  3.0915  2.0461 -2.2302
 5404TIP3    H237628   4.723   1.755  16.351 -1.2883  0.0451  1.5182
 5405TIP3   OH237629   1.926   5.841   4.485  0.3968  0.1122  0.0055
 5405TIP3    H137630   1.958   5.751   4.485 -1.6234 -0.6631  0.5077
 5405TIP3    H237631   1.953   5.877   4.569 -0.1555 -0.5703  0.4835
 5406TIP3   OH237632   3.090   1.678   0.437 -0.3994  0.1762 -0.0683
 5406TIP3    H137633   3.027   1.716   0.375  0.1737  1.1236 -0.0909
 5406TIP3    H237634   3.135   1.610   0.387 -1.4775 -0.6082 -0.0142
 5407TIP3   OH237635   1.435   5.887  11.036 -0.1759 -0.2321 -0.1183
 5407TIP3    H137636   1.400   5.801  11.012  1.6034 -0.9485 -0.2821
 5407TIP3    H237637   1.472   5.920  10.954  2.1316 -0.8190  0.6209
 5408TIP3   OH237638   3.017   4.661  11.124 -0.2591 -0.1567  0.5249
 5408TIP3    H137639   3.110   4.669  11.103 -0.3913 -2.7348 -1.5872
 5408TIP3    H237640   3.010   4.579  11.173 -1.4511 -0.1777  0.3540
 5409TIP3   OH237641   6.088   3.301  12.993 -0.1580  0.2812 -0.2748
 5409TIP3    H137642   6.064   3.311  12.901  1.4228 -0.8453 -0.8531
 5409TIP3    H237643   6.160   3.363  13.006 -2.2148  2.5805  1.0484
 5410TIP3   OH237644   5.282   6.161  10.593  0.5252  0.6265  0.6559
 5410TIP3    H137645   5.304   6.103  10.665  0.1928 -1.4675 -0.8505
 5410TIP3    H237646   5.346   6.140  10.524 -0.4147  1.1097 -0.4036
 5411TIP3   OH237647   6.032   0.653   2.942  0.5964  0.0939 -0.6988
 5411TIP3    H137648   6.081   0.735   2.940 -0.5050  0.7893 -0.0618
 5411TIP3    H237649   5.989   0.653   3.027  0.0854 -0.8524 -0.9462
 5412TIP3   OH237650   1.043   4.747   5.244 -0.2103 -0.4267 -0.4196
 5412TIP3    H137651   1.040   4.836   5.207  0.9889  0.1024  0.6851
 5412TIP3    H237652   1.032   4.690   5.168  0.2281  0.6580 -1.3300
 5413TIP3   OH237653   3.479   4.832   0.772  0.5444 -0.1090 -0.2202
 5413TIP3    H137654   3.496   4.744   0.740  1.1438  0.2102 -0.7961
 5413TIP3    H237655   3.397   4.824   0.821 -0.4681 -0.6110 -1.9063
 5414TIP3   OH237656   5.822   6.313  14.118  0.0832  0.1543  0.4518
 5414TIP3    H137657   5.850   6.235  14.166  2.5126  1.2232  0.9165
 5414TIP3    H237658   5.886   6.322  14.047 -1.1897  0.7677 -0.6763
 5415TIP3   OH237659   4.787   4.323  10.306  0.7543  0.2279  0.2704
 5415TIP3    H137660   4.860   4.294  10.361  1.1866  1.7287  0.5369
 5415TIP3    H237661   4.825   4.334  10.219  0.6371  0.1613  0.2104
 5416TIP3   OH237662   0.666   0.274  15.330  0.0395 -0.2087 -0.0626
 5416TIP3    H137663   0.671   0.183  15.359 -1.1505  0.3210  1.9474
 5416TIP3    H237664   0.588   0.277  15.275 -0.2897 -0.2757  0.3971
 5417TIP3   OH237665   2.176   6.578  13.463  0.2398  0.3105  0.4118
 5417TIP3    H137666   2.191   6.666  13.499  1.3031 -0.0597  0.9004
 5417TIP3    H237667   2.261   6.551  13.430  0.4367 -1.3538  2.1055
 5418TIP3   OH237668   5.835   2.909   2.693 -0.1389  0.1402  1.0290
 5418TIP3    H137669   5.832   2.814   2.701 -0.8813  0.1931  1.5837
 5418TIP3    H237670   5.917   2.928   2.648 -0.0520 -0.7687  0.7955
 5419TIP3   OH237671   0.417   1.021  10.724  0.7189 -0.3794 -0.9187
 5419TIP3    H137672   0.396   1.083  10.794  0.1112 -1.7107  0.1281
 5419TIP3    H237673   0.502   1.051  10.691  1.4633 -0.1881  0.9976
 5420TIP3   OH237674   5.086   6.049  14.937 -0.2853  0.3811  0.0664
 5420TIP3    H137675   5.136   6.107  14.994  0.2111  1.3061 -1.2923
 5420TIP3    H237676   5.138   5.968  14.933  1.5159  1.5504 -1.8530
 5421TIP3   OH237677   6.145   2.578   4.590 -0.0282 -0.3267 -0.4707
 5421TIP3    H137678   6.231   2.620   4.599 -0.3901  0.2884  0.2097
 5421TIP3    H237679   6.108   2.616   4.510 -1.1274  2.1327  1.0923
 5422TIP3   OH237680   6.420   5.803   0.597  0.1926  0.4295  0.0318
 5422TIP3    H137681   6.441   5.832   0.508 -1.2719  0.4251 -0.3418
 5422TIP3    H237682   6.434   5.881   0.651 -1.8467  1.3736 -0.6841
 5423TIP3   OH237683   4.528   5.375  12.629 -0.0220 -0.4356 -0.3560
 5423TIP3    H137684   4.519   5.330  12.713 -0.2803 -1.1179 -0.7354
 5423TIP3    H237685   4.599   5.329  12.584  0.6776  0.4632 -0.1783
 5424TIP3   OH237686   4.296   3.975   4.915  0.1648 -0.2164  0.0204
 5424TIP3    H137687   4.375   3.921   4.924  0.2229 -0.1754 -0.2438
 5424TIP3    H237688   4.310   4.024   4.834 -0.6289 -1.0523 -0.6358
 5425TIP3   OH237689   1.359   4.256   5.006 -0.4662 -0.1486  0.5735
 5425TIP3    H137690   1.358   4.333   4.948  0.7261 -0.2931  0.3359
 5425TIP3    H237691   1.406   4.285   5.084 -0.9839 -0.3277  0.9630
 5426TIP3   OH237692   1.897   0.913  12.954 -0.2424 -0.2298  0.3494
 5426TIP3    H137693   1.941   0.973  13.013 -0.4346 -0.7984  1.0867
 5426TIP3    H237694   1.939   0.828  12.969 -0.7955 -0.5363  0.2204
 5427TIP3   OH237695   6.713   4.294   2.404 -0.7621  0.3404 -0.2707
 5427TIP3    H137696   6.730   4.275   2.496  1.7602 -0.3924 -0.7926
 5427TIP3    H237697   6.705   4.208   2.363  2.0021  0.4564 -1.2741
 5428TIP3   OH237698   0.307   4.834  13.150 -0.5126 -1.0017  0.0275
 5428TIP3    H137699   0.245   4.906  13.158  0.4769  0.0178 -1.1958
 5428TIP3    H237700   0.389   4.869  13.184  0.0920 -1.4046 -0.9963
 5429TIP3   OH237701   3.860   5.198  10.405  0.3957 -0.4173  0.6549
 5429TIP3    H137702   3.886   5.273  10.350  1.2409  0.5428  2.2931
 5429TIP3    H237703   3.767   5.212  10.422  0.1108 -0.7525 -0.5414
 5430TIP3   OH237704   1.948   3.385   5.793  0.0856  0.3243  0.2855
 5430TIP3    H137705   1.941   3.479   5.811  1.1749  0.4693  0.0077
 5430TIP3    H237706   1.991   3.349   5.870 -1.7528 -0.2400  1.1202
 5431TIP3   OH237707   4.335   3.825  14.040  0.1956 -1.0951  0.5923
 5431TIP3    H137708   4.282   3.889  14.088  2.3288  1.2040  0.0875
 5431TIP3    H237709   4.349   3.754  14.102 -0.8959 -0.3211  1.7754
 5432TIP3   OH237710   5.672   6.639  11.217 -0.0178  0.3910 -0.7605
 5432TIP3    H137711   5.607   6.597  11.275 -2.0696  3.5642 -0.4931
 5432TIP3    H237712   5.630   6.639  11.131 -0.0817  1.7611 -0.7506
 5433TIP3   OH237713   6.281   6.137   4.865  0.2916  0.1100 -0.2571
 5433TIP3    H137714   6.222   6.111   4.936 -0.7227  0.2444 -1.0229
 5433TIP3    H237715   6.368   6.138   4.905 -0.4801  2.3718  1.5883
 5434TIP3   OH237716   2.318   4.721   1.669 -0.0665  0.1758 -0.2088
 5434TIP3    H137717   2.231   4.752   1.696 -0.3635 -0.3047 -0.6117
 5434TIP3    H237718   2.312   4.712   1.574  0.5314  0.4545 -0.2760
 5435TIP3   OH237719   6.472   4.372  16.053  0.2754 -0.2707  0.0067
 5435TIP3    H137720   6.555   4.366  16.007  0.7165  0.4544  0.6760
 5435TIP3    H237721   6.491   4.341  16.141 -0.6381 -1.9639 -0.3577
 5436TIP3   OH237722   4.176   0.175  11.105  0.3327 -0.0585  0.6251
 5436TIP3    H137723   4.239   0.239  11.139 -1.9261  2.2555  0.7896
 5436TIP3    H237724   4.203   0.160  11.014  1.9472 -0.3084  1.1162
 5437TIP3   OH237725   3.585   3.566  12.950  0.4015 -0.1615  0.2263
 5437TIP3    H137726   3.506   3.570  13.004  0.5217  0.4372  0.3658
 5437TIP3    H237727   3.576   3.484  12.901 -0.6628  0.2494 -0.3068
 5438TIP3   OH237728   1.056   2.545  15.820 -0.0349 -0.3641 -0.0070
 5438TIP3    H137729   0.998   2.469  15.815 -2.3564  1.1890  1.5376
 5438TIP3    H237730   1.105   2.532  15.900 -0.9876  0.0853  0.6691
 5439TIP3   OH237731   1.858   3.959  11.389  0.1953  0.1056 -0.4966
 5439TIP3    H137732   1.876   4.047  11.423  2.1900 -0.4016 -0.0425
 5439TIP3    H237733   1.775   3.934  11.429 -0.2862  1.6797 -0.4452
 5440TIP3   OH237734   1.012   4.593   3.239  0.5000 -0.0833 -0.2173
 5440TIP3    H137735   1.059   4.669   3.274  2.1445 -1.1842  0.0341
 5440TIP3    H237736   0.920   4.617   3.249  0.9597  1.7853  0.0671
 5441TIP3   OH237737   3.144   0.600   3.200 -0.1417  0.1830 -0.4757
 5441TIP3    H137738   3.159   0.693   3.179 -0.4172  0.8152  1.7799
 5441TIP3    H237739   3.222   0.575   3.250 -1.3048  0.1025  1.4065
 5442TIP3   OH237740   6.632   1.778   6.258  0.5813  0.4044 -0.1935
 5442TIP3    H137741   6.564   1.844   6.269  0.2133 -0.1958  1.4541
 5442TIP3    H237742   6.630   1.757   6.165 -2.4548 -0.5656 -0.0213
 5443TIP3   OH237743   6.628   1.553   3.591 -0.4571 -0.2999 -0.1527
 5443TIP3    H137744   6.683   1.587   3.661  1.3184 -0.7240 -1.2711
 5443TIP3    H237745   6.632   1.458   3.601 -0.6473 -0.3455 -0.5003
 5444TIP3   OH237746   3.748   1.202   1.975 -0.2669  0.5214  0.5382
 5444TIP3    H137747   3.785   1.155   2.050 -1.6635  0.2396  1.0808
 5444TIP3    H237748   3.717   1.133   1.917  0.3239  0.7526 -0.0698
 5445TIP3   OH237749   0.625   2.483   5.007 -0.5697 -0.0095  0.4130
 5445TIP3    H137750   0.540   2.465   4.967 -0.6807 -0.0839  0.6823
 5445TIP3    H237751   0.604   2.521   5.093 -0.3653 -2.8286  1.8139
 5446TIP3   OH237752   1.513   3.081   2.698 -0.9863  0.0903  0.0572
 5446TIP3    H137753   1.496   3.062   2.605 -0.2910 -0.2676 -0.0043
 5446TIP3    H237754   1.601   3.046   2.713 -0.9774  0.4226  0.7764
 5447TIP3   OH237755   3.390   6.536  12.252 -0.2338  0.2783 -0.1686
 5447TIP3    H137756   3.461   6.476  12.279  0.1968  0.3157 -1.1835
 5447TIP3    H237757   3.435   6.616  12.227 -0.8430  1.2193  1.5940
 5448TIP3   OH237758   3.909   0.436  12.241  0.0027  0.0194  0.0871
 5448TIP3    H137759   3.909   0.388  12.324 -0.5979 -1.0107 -0.4925
 5448TIP3    H237760   3.998   0.471  12.233  0.0288  0.2542  1.2236
 5449TIP3   OH237761   5.956   4.587   3.625  0.0304  0.3494 -0.3166
 5449TIP3    H137762   5.970   4.643   3.548  0.8939 -0.5475 -0.8362
 5449TIP3    H237763   6.016   4.514   3.612 -0.2784 -0.1390  0.9076
 5450TIP3   OH237764   3.764   6.602   2.702 -0.4733 -0.1280 -0.2270
 5450TIP3    H137765   3.716   6.640   2.776 -0.8795 -0.0092 -0.5471
 5450TIP3    H237766   3.752   6.666   2.632  1.5744  0.7547  0.1629
 5451TIP3   OH237767   4.588   0.304   6.027  0.2511  0.3558  0.0314
 5451TIP3    H137768   4.540   0.382   6.000  1.3408  1.6453  1.5871
 5451TIP3    H237769   4.677   0.317   5.993 -0.1392 -1.4903 -1.9062
 5452TIP3   OH237770   3.497   4.613  13.289  0.4363  0.3291 -0.2840
 5452TIP3    H137771   3.480   4.525  13.322  1.4231  0.4704  0.6547
 5452TIP3    H237772   3.409   4.650  13.275  0.0112 -0.9086 -1.0517
 5453TIP3   OH237773   1.173   2.924  13.028 -0.3838  0.6874 -0.1654
 5453TIP3    H137774   1.181   2.877  12.945 -1.5170  0.6580 -0.2746
 5453TIP3    H237775   1.202   3.013  13.008 -2.0644  1.0995 -1.0199
 5454TIP3   OH237776   1.774   6.726  15.769 -0.3741 -0.3891 -0.1979
 5454TIP3    H137777   1.839   6.708  15.701  0.1855  0.0045  0.2141
 5454TIP3    H237778   1.789   6.659  15.836  0.7071  0.6335  0.6404
 5455TIP3   OH237779   6.074   4.078   0.651 -0.6092 -0.1024  0.4108
 5455TIP3    H137780   6.086   4.128   0.570  0.4572 -1.2106 -0.1528
 5455TIP3    H237781   6.100   4.138   0.721  2.4411 -0.3730 -0.3737
 5456TIP3   OH237782   5.552   6.672  10.982 -0.0196 -0.4091  0.0027
 5456TIP3    H137783   5.612   6.729  10.935 -0.3307 -0.3398 -0.3175
 5456TIP3    H237784   5.482   6.654  10.919  0.2216 -1.3827 -0.0013
 5457TIP3   OH237785   4.956   3.184  10.992  0.1945 -0.2745 -0.2572
 5457TIP3    H137786   4.862   3.183  10.975 -0.0643  1.2306  0.9118
 5457TIP3    H237787   4.996   3.207  10.907 -0.2315 -3.3822 -1.4432
 5458TIP3   OH237788   3.873   4.929   1.973 -0.5794  0.4614 -0.4328
 5458TIP3    H137789   3.879   5.017   2.011 -0.4482 -0.4369  1.7448
 5458TIP3    H237790   3.780   4.909   1.972 -0.4929 -0.2180  1.2547
 5459TIP3   OH237791   0.581   0.658  13.758  0.4393 -0.0419 -0.0125
 5459TIP3    H137792   0.540   0.691  13.678  1.1950  0.5430 -0.1724
 5459TIP3    H237793   0.566   0.728  13.822 -0.9583 -0.8861  0.6431
 5460TIP3   OH237794   1.166   4.534  16.155 -0.5960 -0.0290  0.8750
 5460TIP3    H137795   1.175   4.498  16.067 -0.8001 -0.3252  0.9781
 5460TIP3    H237796   1.092   4.595  16.149 -2.1520 -1.8032  1.4115
 5461TIP3   OH237797   1.129   1.214   0.383  0.8167 -0.6087 -0.1329
 5461TIP3    H137798   1.035   1.235   0.385  0.7932 -0.6526  1.8271
 5461TIP3    H237799   1.132   1.119   0.393  1.0758 -0.5717  0.1383
 5462TIP3   OH237800   6.506   4.778  15.257  0.4322  0.5998  0.8388
 5462TIP3    H137801   6.494   4.870  15.235  0.1800  0.6122  1.0289
 5462TIP3    H237802   6.599   4.761  15.239  0.2040  0.5571 -0.3935
 5463TIP3   OH237803   1.434   3.495   0.439  0.0992  0.0524  0.0209
 5463TIP3    H137804   1.505   3.518   0.498  0.8348 -0.1328 -0.7820
 5463TIP3    H237805   1.410   3.578   0.397  0.1244  0.0351 -0.0267
 5464TIP3   OH237806   0.204   6.016  11.996 -0.8588 -0.3214  0.3524
 5464TIP3    H137807   0.223   6.080  11.927 -1.2582  0.3147  0.8187
 5464TIP3    H237808   0.287   6.004  12.042 -0.5453 -0.8857 -0.3439
 5465TIP3   OH237809   2.387   5.800  11.963 -0.4217 -0.3904 -0.1627
 5465TIP3    H137810   2.474   5.828  11.991 -0.1843 -0.3626 -0.8812
 5465TIP3    H237811   2.367   5.723  12.016 -1.2531  1.3028  2.1192
 5466TIP3   OH237812   5.985   0.383  12.818  0.0468 -0.4148 -0.0395
 5466TIP3    H137813   6.053   0.448  12.803 -0.0000 -0.3051  0.2339
 5466TIP3    H237814   5.960   0.355  12.730 -0.0196  0.0236 -0.1613
 5467TIP3   OH237815   5.854   0.302   4.290  0.0019 -0.1941 -0.2299
 5467TIP3    H137816   5.829   0.214   4.261  0.8441 -0.3990 -0.3702
 5467TIP3    H237817   5.806   0.315   4.372  0.2332 -0.9754  0.0357
 5468TIP3   OH237818   5.296   3.665   0.227 -0.0131 -0.3896 -0.1911
 5468TIP3    H137819   5.214   3.708   0.250  0.8705  0.1845  2.2135
 5468TIP3    H237820   5.283   3.574   0.250 -0.0401 -0.3360  0.0044
 5469TIP3   OH237821   4.624   4.268  11.590 -0.2033 -0.3747  0.4140
 5469TIP3    H137822   4.587   4.338  11.645  2.1602  1.1574  0.1976
 5469TIP3    H237823   4.608   4.298  11.500  1.1460  0.1092  0.3200
 5470TIP3   OH237824   4.098   1.300  13.349  0.6639  0.1576 -0.1920
 5470TIP3    H137825   4.044   1.222  13.335 -0.4492  0.7691  0.5451
 5470TIP3    H237826   4.144   1.313  13.266  1.2575 -1.5587 -0.1658
 5471TIP3   OH237827   6.001   3.140  10.168  0.1023 -0.1064 -0.3731
 5471TIP3    H137828   5.912   3.140  10.135 -0.1074 -1.3854  0.1264
 5471TIP3    H237829   6.012   3.225  10.210 -0.0264  1.0784 -2.5641
 5472TIP3   OH237830   0.823   4.533  14.201 -0.2116  0.2318 -0.0523
 5472TIP3    H137831   0.906   4.517  14.246  0.4152  2.7799 -0.1275
 5472TIP3    H237832   0.831   4.486  14.118 -0.6255 -3.0114  1.5840
 5473TIP3   OH237833   1.929   2.895  12.262 -0.4765 -0.0801 -0.4285
 5473TIP3    H137834   1.935   2.982  12.300 -1.0558  0.0858 -0.7063
 5473TIP3    H237835   1.914   2.910  12.169 -0.2612 -0.4780 -0.5298
 5474TIP3   OH237836   3.337   1.337  15.963  0.0729 -0.5176  0.3224
 5474TIP3    H137837   3.248   1.332  15.997  0.3363 -0.3633  1.0754
 5474TIP3    H237838   3.391   1.353  16.041  1.0990 -3.5035  0.3702
 5475TIP3   OH237839   2.395   5.461   5.141 -0.2971 -0.0698  0.4780
 5475TIP3    H137840   2.331   5.528   5.165 -1.0095 -1.1312  1.6955
 5475TIP3    H237841   2.344   5.394   5.095 -0.1220 -0.9720  1.5437
 5476TIP3   OH237842   6.669   0.793   6.152  0.1100  0.5196 -0.0490
 5476TIP3    H137843   6.699   0.702   6.147 -0.8543  0.2062 -0.3051
 5476TIP3    H237844   6.655   0.818   6.061  0.6265  1.0263  0.0020
 5477TIP3   OH237845   1.172   3.492  14.512  0.4413 -0.2275 -0.1429
 5477TIP3    H137846   1.247   3.434  14.527 -0.4308 -1.6636 -1.1483
 5477TIP3    H237847   1.120   3.483  14.592  0.7764 -0.0753  0.0986
 5478TIP3   OH237848   6.099   5.173   3.243 -0.1929 -0.2619  0.0034
 5478TIP3    H137849   6.044   5.249   3.260  1.1640  0.8857 -0.4938
 5478TIP3    H237850   6.038   5.101   3.232 -1.5561  0.8427  0.0227
 5479TIP3   OH237851   3.816   0.709   6.062 -0.2797  0.1301  0.5104
 5479TIP3    H137852   3.794   0.627   6.017 -0.2203 -0.1823  1.0349
 5479TIP3    H237853   3.890   0.686   6.117  0.8564  0.9687 -0.6123
 5480TIP3   OH237854   2.966   2.914   5.923  0.5825  0.2566 -0.3887
 5480TIP3    H137855   2.898   2.964   5.878 -0.0398 -0.8842 -0.7876
 5480TIP3    H237856   3.038   2.975   5.935  0.1383  1.0285 -1.5137
 5481TIP3   OH237857   4.464   2.443  15.955  0.1634 -0.1197 -0.0032
 5481TIP3    H137858   4.378   2.432  15.916  0.1436  0.1013 -0.0172
 5481TIP3    H237859   4.512   2.498  15.894  0.0922  0.3316  0.3454
 5482TIP3   OH237860   2.304   0.148  10.365  0.1809  0.2708  0.0035
 5482TIP3    H137861   2.224   0.198  10.345 -0.3485 -0.8260 -0.7010
 5482TIP3    H237862   2.366   0.175  10.297  0.1886  0.6255  0.1501
 5483TIP3   OH237863   0.240   6.568  10.573  0.2025  0.3977 -0.1113
 5483TIP3    H137864   0.321   6.609  10.544 -0.1489  0.6251 -0.7900
 5483TIP3    H237865   0.171   6.630  10.549 -0.3922 -0.7598 -1.5840
 5484TIP3   OH237866   4.452   6.824  16.334 -0.6166 -0.5458  0.2162
 5484TIP3    H137867   4.420   6.758  16.272 -1.8798 -0.5726  0.8810
 5484TIP3    H237868   4.526   6.781  16.378 -0.2774 -0.8486 -0.6127
 5485TIP3   OH237869   1.988   3.514  12.253  0.0725 -0.5136  0.1874
 5485TIP3    H137870   1.973   3.556  12.338  1.8576 -2.5862  1.6193
 5485TIP3    H237871   1.911   3.459  12.240  0.7155 -1.7958  1.5437
 5486TIP3   OH237872   5.851   4.473   6.252 -0.4660  0.3953  0.0498
 5486TIP3    H137873   5.765   4.499   6.287  0.3250  0.5709  2.0156
 5486TIP3    H237874   5.860   4.524   6.171 -2.5587 -0.2943 -0.6977
 5487TIP3   OH237875   1.054   5.117  14.458 -0.0047 -0.0483 -0.3509
 5487TIP3    H137876   1.002   5.186  14.416 -0.5788 -0.8242 -0.9371
 5487TIP3    H237877   1.120   5.094  14.393  1.8759  1.7530  0.8252
 5488TIP3   OH237878   0.939   2.396  11.707 -0.0562  0.5727  0.1983
 5488TIP3    H137879   0.949   2.387  11.801 -0.5651  0.9932  0.2984
 5488TIP3    H237880   0.913   2.309  11.677  0.2207  0.4092  0.4272
 5489TIP3   OH237881   1.684   0.789   2.036 -0.0632 -0.4897 -0.2613
 5489TIP3    H137882   1.741   0.720   2.071  0.2723 -1.9839 -3.4583
 5489TIP3    H237883   1.729   0.820   1.958 -1.5680  1.4495 -0.4219
 5490TIP3   OH237884   1.588   6.742   2.504 -0.0312  0.1755  0.2398
 5490TIP3    H137885   1.579   6.832   2.537 -1.7773  0.3612 -0.6217
 5490TIP3    H237886   1.558   6.687   2.576 -0.8630  0.4074  0.0784
 5491TIP3   OH237887   1.517   4.236   3.167 -0.6190  0.2135 -0.3253
 5491TIP3    H137888   1.425   4.236   3.141 -0.8215  0.3357  0.3895
 5491TIP3    H237889   1.518   4.193   3.252  0.0696 -0.3479 -0.6022
 5492TIP3   OH237890   4.175   5.222   4.180  0.1535 -0.3214  0.3215
 5492TIP3    H137891   4.227   5.237   4.101  0.1480 -0.7519  0.2324
 5492TIP3    H237892   4.229   5.254   4.251  0.3873 -0.4324  0.1942
 5493TIP3   OH237893   2.043   2.279  14.179  0.5511 -0.0520  0.4559
 5493TIP3    H137894   1.949   2.262  14.186  0.4772 -0.0472 -0.4125
 5493TIP3    H237895   2.082   2.225  14.248 -0.2520  1.7448  2.4528
 5494TIP3   OH237896   5.775   5.302   3.780 -0.1915 -0.4692  0.3763
 5494TIP3    H137897   5.791   5.329   3.689  1.3469 -0.9753  0.4681
 5494TIP3    H237898   5.713   5.229   3.772  1.1283 -1.5475 -0.4156
 5495TIP3   OH237899   2.673   5.741  16.000 -0.5567  0.3251  0.3944
 5495TIP3    H137900   2.738   5.796  15.957 -1.2036  0.7344 -0.0748
 5495TIP3    H237901   2.632   5.798  16.065  1.0610 -0.5479  2.2517
 5496TIP3   OH237902   3.794   5.173  15.665 -0.2239  0.2144  0.1783
 5496TIP3    H137903   3.706   5.179  15.628 -0.5852 -1.1336  0.7225
 5496TIP3    H237904   3.814   5.261  15.695 -1.2856  0.5974 -0.1878
 5497TIP3   OH237905   0.984   3.117   5.621  0.5045 -0.2328  0.1600
 5497TIP3    H137906   0.973   3.201   5.665 -0.6447  0.0882 -0.6886
 5497TIP3    H237907   1.004   3.139   5.530  0.4045 -0.8748 -0.0273
 5498TIP3   OH237908   4.071   4.246  15.446 -0.4073  0.0397  0.2359
 5498TIP3    H137909   4.087   4.330  15.489 -0.9999  0.6191 -0.6413
 5498TIP3    H237910   4.129   4.185  15.491  0.2684  0.9792  0.6809
 5499TIP3   OH237911   5.265   2.625   2.067 -0.1885  0.4280 -0.4034
 5499TIP3    H137912   5.312   2.680   2.004  0.5509 -0.7061 -0.8770
 5499TIP3    H237913   5.326   2.614   2.140 -1.1037  1.8697  0.6245
 5500TIP3   OH237914   6.187   0.378  13.806  0.1343 -0.5440  0.1434
 5500TIP3    H137915   6.229   0.366  13.721 -0.4663 -0.6191 -0.1467
 5500TIP3    H237916   6.259   0.393  13.867  0.5695 -0.5478 -0.3698
 5501TIP3   OH237917   3.139   3.696  11.307  0.4438 -0.2217  0.1358
 5501TIP3    H137918   3.230   3.684  11.332  0.5487 -0.4143 -0.3332
 5501TIP3    H237919   3.142   3.750  11.228  0.1820 -0.6334 -0.1619
 5502TIP3   OH237920   4.368   0.361   5.775 -0.5335 -0.5701 -0.3412
 5502TIP3    H137921   4.441   0.420   5.758 -0.9798  0.2236  0.4043
 5502TIP3    H237922   4.312   0.409   5.835 -2.9571 -0.1392 -2.7570
 5503TIP3   OH237923   1.682   3.585   0.116  0.4412  0.6571  0.0143
 5503TIP3    H137924   1.735   3.565   0.039 -0.5420  1.6424 -0.9527
 5503TIP3    H237925   1.621   3.653   0.087 -0.3343  0.6526  1.5060
 5504TIP3   OH237926   2.230   3.141  16.149 -0.2086 -0.4605 -0.8904
 5504TIP3    H137927   2.174   3.123  16.225  0.3301  2.8059  0.4623
 5504TIP3    H237928   2.237   3.237  16.147  2.5809 -0.5794 -3.0359
 5505TIP3   OH237929   2.375   3.379  11.962  0.2615  0.1341 -0.3674
 5505TIP3    H137930   2.434   3.442  11.920  0.0302  1.3111  1.0061
 5505TIP3    H237931   2.291   3.425  11.968 -0.3767 -0.9301 -0.8217
 5506TIP3   OH237932   1.121   4.291  14.181  0.1129  0.6371 -0.0409
 5506TIP3    H137933   1.056   4.286  14.111 -0.2913  1.7278  0.2391
 5506TIP3    H237934   1.195   4.338  14.142  1.5983 -2.2654 -0.9673
 5507TIP3   OH237935   3.526   1.121  11.522  0.0044 -0.4695 -0.3513
 5507TIP3    H137936   3.562   1.077  11.598 -1.3501 -0.9148  0.0517
 5507TIP3    H237937   3.485   1.200  11.557 -1.3503 -1.0886 -0.4773
 5508TIP3   OH237938   1.973   4.170   2.328 -0.5362 -0.5909  0.1553
 5508TIP3    H137939   1.885   4.136   2.313 -1.0817  0.6319  0.5119
 5508TIP3    H237940   1.994   4.220   2.250 -0.8238  0.4784  0.7496
 5509TIP3   OH237941   0.143   1.168   5.768  0.0058  0.6784  0.5354
 5509TIP3    H137942   0.064   1.175   5.821 -0.8810 -1.9178 -0.2783
 5509TIP3    H237943   0.175   1.079   5.784  2.5466  1.4807  0.4813
 5510TIP3   OH237944   1.712   1.688   5.002  0.3891 -0.0978  0.8482
 5510TIP3    H137945   1.695   1.707   5.094 -0.9758  0.0173  0.5930
 5510TIP3    H237946   1.672   1.760   4.955  2.4031  0.6563  0.1939
 5511TIP3   OH237947   1.849   1.383   1.593 -0.5235  0.4074  0.1074
 5511TIP3    H137948   1.837   1.313   1.657  1.2433  0.4128  0.4833
 5511TIP3    H237949   1.823   1.463   1.640  0.7735  0.4127  0.8424
 5512TIP3   OH237950   5.829   3.977   3.240 -0.4550 -0.0899 -0.1808
 5512TIP3    H137951   5.778   4.035   3.296 -1.6568 -0.3781 -0.9479
 5512TIP3    H237952   5.829   3.893   3.287 -0.7771 -0.1175 -0.2287
 5513TIP3   OH237953   3.991   5.383  10.253  0.8263 -0.3262  0.9714
 5513TIP3    H137954   4.012   5.473  10.226  0.8583 -0.4977  0.4163
 5513TIP3    H237955   3.984   5.334  10.171 -0.1384 -0.6321  1.2181
 5514TIP3   OH237956   0.794   2.347  14.822 -0.1290 -0.3546  0.5254
 5514TIP3    H137957   0.699   2.354  14.829 -0.0989  1.3376 -0.2550
 5514TIP3    H237958   0.808   2.277  14.758 -0.9438  0.7668 -0.9595
 5515TIP3   OH237959   1.156   2.978  14.188 -0.2639  0.4687  0.4862
 5515TIP3    H137960   1.236   2.930  14.206 -1.1000 -0.8269  0.9093
 5515TIP3    H237961   1.118   2.995  14.274 -1.1673 -0.2616  0.2579
 5516TIP3   OH237962   4.140   6.132   0.387  0.1988  0.1809  0.6357
 5516TIP3    H137963   4.199   6.208   0.393 -0.0864  0.4855 -0.2795
 5516TIP3    H237964   4.104   6.123   0.476  0.7352  0.7097  0.9138
 5517TIP3   OH237965   1.933   0.095   0.676 -0.4196 -0.2001 -0.3714
 5517TIP3    H137966   1.895   0.090   0.588 -2.3671 -0.3869  0.4402
 5517TIP3    H237967   1.859   0.112   0.734  1.0412  1.8109  1.0753
 5518TIP3   OH237968   6.116   3.102  13.957 -0.2794 -0.4641  0.0906
 5518TIP3    H137969   6.180   3.170  13.978 -2.7544  1.1570  3.2297
 5518TIP3    H237970   6.127   3.037  14.026 -1.2636 -0.6813  0.0580
 5519TIP3   OH237971   4.688   5.437  12.935 -0.5881 -0.2240 -0.1483
 5519TIP3    H137972   4.662   5.489  12.859 -0.9096  0.1625  0.2174
 5519TIP3    H237973   4.705   5.502  13.003  1.9177 -0.4112 -0.5091
 5520TIP3   OH237974   6.797   0.154  10.726  0.0787  0.1606  0.3574
 5520TIP3    H137975   6.749   0.145  10.643  1.1193 -1.6102 -0.1015
 5520TIP3    H237976   6.786   0.069  10.769  1.2864  0.3485  1.0754
 5521TIP3   OH237977   2.079   5.589  10.960 -0.0329  0.4215 -0.2132
 5521TIP3    H137978   2.096   5.683  10.955 -1.5291  0.7183 -0.2568
 5521TIP3    H237979   2.093   5.557  10.871 -0.7178  0.8391 -0.4771
 5522TIP3   OH237980   6.003   3.507  12.616 -0.0229  0.4985  0.1714
 5522TIP3    H137981   6.017   3.413  12.629 -0.5124  0.4884  0.6908
 5522TIP3    H237982   6.069   3.549  12.670 -0.4665  0.4510  0.7561
 5523TIP3   OH237983   0.192   1.139  10.013 -0.8459  0.2430 -0.5817
 5523TIP3    H137984   0.160   1.173  10.097 -0.6646 -1.6588  0.3094
 5523TIP3    H237985   0.244   1.211   9.976 -1.0101  1.1577  0.8830
 5524TIP3   OH237986   3.822   2.052  16.705 -0.3697  0.9268 -0.0643
 5524TIP3    H137987   3.814   2.007  16.788 -2.6549  1.2006 -0.0587
 5524TIP3    H237988   3.838   1.983  16.641 -0.3209  0.5120  0.3966
 5525TIP3   OH237989   1.325   5.007   2.405  0.0426  0.3310 -0.0219
 5525TIP3    H137990   1.274   4.958   2.341 -0.7384 -0.3244  1.0567
 5525TIP3    H237991   1.259   5.055   2.455  0.4373 -0.5812  1.4357
 5526TIP3   OH237992   3.931   4.796   1.170  0.0984  0.4336  0.4026
 5526TIP3    H137993   3.907   4.735   1.101  1.5256 -0.7978  0.9438
 5526TIP3    H237994   4.012   4.836   1.140  0.4261  0.3057  1.1024
 5527TIP3   OH237995   4.679   4.449   0.263 -0.0059  0.3075  0.1336
 5527TIP3    H137996   4.615   4.422   0.329  0.2247  1.7459  0.9631
 5527TIP3    H237997   4.744   4.499   0.311 -0.0310  1.7245 -1.2217
 5528TIP3   OH237998   1.903   0.603   0.592 -0.0985 -0.5304  0.1057
 5528TIP3    H137999   1.967   0.667   0.623 -0.8832  0.4501 -0.2438
 5528TIP3    H238000   1.914   0.528   0.651  0.3775  0.1780  0.9536
 5529TIP3   OH238001   6.649   2.794   2.467  0.6148  0.2224  0.0377
 5529TIP3    H138002   6.667   2.888   2.457 -0.1825  0.4266  0.4282
 5529TIP3    H238003   6.680   2.755   2.385 -0.4712  1.0495 -0.8062
 5530TIP3   OH238004   3.038   3.513  14.990 -0.2984 -0.3023 -0.2577
 5530TIP3    H138005   3.019   3.565  14.912 -2.1021  0.5870  0.7268
 5530TIP3    H238006   2.980   3.438  14.983 -1.1992  0.2891  0.7008
 5531TIP3   OH238007   1.925   0.116  13.420 -0.4933 -0.2327 -0.3051
 5531TIP3    H138008   1.881   0.129  13.503  1.5375  0.0482  0.7909
 5531TIP3    H238009   1.963   0.202  13.399 -1.6659 -0.0763 -1.9720
 5532TIP3   OH238010   2.054   4.984  14.869  0.0108  0.8335  0.0090
 5532TIP3    H138011   1.958   4.983  14.868 -0.0193 -1.3919  0.0916
 5532TIP3    H238012   2.077   5.063  14.918 -1.8376  0.1990  2.0716
 5533TIP3   OH238013   2.697   5.679   2.522  0.4242 -0.8895 -0.2001
 5533TIP3    H138014   2.705   5.769   2.554 -1.8384 -1.0774  1.0993
 5533TIP3    H238015   2.783   5.640   2.540  0.0213 -0.3733  3.9319
 5534TIP3   OH238016   2.805   6.181  11.741  0.6603  0.4401  0.4113
 5534TIP3    H138017   2.900   6.182  11.732  0.5436  1.2097 -0.9371
 5534TIP3    H238018   2.785   6.258  11.794  0.7694  0.3274  0.6207
 5535TIP3   OH238019   0.957   5.384  11.401 -0.3997 -0.6906  0.0734
 5535TIP3    H138020   1.014   5.311  11.376  2.0149  1.5029 -1.3573
 5535TIP3    H238021   0.961   5.387  11.496  0.5829 -1.5997  0.0730
 5536TIP3   OH238022   6.750   5.224  15.032 -0.3568 -0.7563 -0.5651
 5536TIP3    H138023   6.665   5.260  15.058 -0.9911 -0.9651 -2.2557
 5536TIP3    H238024   6.773   5.272  14.953  2.1034  0.7157  0.9210
 5537TIP3   OH238025   0.514   5.123   5.494 -0.2316  0.3122 -0.1194
 5537TIP3    H138026   0.558   5.051   5.538 -0.2102  0.6928  0.4993
 5537TIP3    H238027   0.579   5.193   5.493 -0.9084  0.9901  1.0907
 5538TIP3   OH238028   0.838   6.247   2.552 -0.0393  0.4088 -0.4023
 5538TIP3    H138029   0.927   6.236   2.520 -0.4279 -2.7566 -0.6477
 5538TIP3    H238030   0.789   6.281   2.477  0.7707  1.4233 -0.4891
 5539TIP3   OH238031   5.001   2.624  13.504  0.5162  0.4865 -0.0604
 5539TIP3    H138032   5.026   2.615  13.596  0.8497  0.9097 -0.1114
 5539TIP3    H238033   5.015   2.716  13.484 -0.0816  0.5099 -0.3851
 5540TIP3   OH238034   1.331   5.285   1.983  0.1054 -0.3359  0.1825
 5540TIP3    H138035   1.366   5.370   1.958 -0.9580  0.6073  1.7319
 5540TIP3    H238036   1.395   5.222   1.951 -0.2119  0.8146 -3.1623
 5541TIP3   OH238037   5.807   5.239  12.451 -0.0116  0.5350  0.2100
 5541TIP3    H138038   5.719   5.278  12.449 -0.4451 -0.3262  1.4247
 5541TIP3    H238039   5.865   5.313  12.472 -0.6498  0.8025  1.0897
 5542TIP3   OH238040   4.942   1.956   1.850 -0.0870  0.5448  0.0414
 5542TIP3    H138041   4.920   2.024   1.914  1.0464  0.4211  0.5899
 5542TIP3    H238042   4.890   1.978   1.773 -1.6136  0.6112  1.0352
 5543TIP3   OH238043   0.222   1.295   2.042 -0.5158 -0.1007  0.2078
 5543TIP3    H138044   0.189   1.383   2.023  0.1292 -0.3843 -2.5258
 5543TIP3    H238045   0.148   1.251   2.085 -1.5290  1.1522 -0.1821
 5544TIP3   OH238046   0.605   3.989  14.358  0.3951 -0.2123 -0.0979
 5544TIP3    H138047   0.638   3.972  14.447  0.2601 -1.0269 -0.1894
 5544TIP3    H238048   0.576   3.903  14.328  0.6199  0.0282 -1.0091
 5545TIP3   OH238049   5.605   6.545   2.559  0.1333 -0.0033  0.3589
 5545TIP3    H138050   5.680   6.604   2.560  0.4265 -0.3680  0.1281
 5545TIP3    H238051   5.642   6.459   2.578 -0.5073  0.1170  2.3668
 5546TIP3   OH238052   3.614   0.704  13.241  0.0955 -0.4405  0.0173
 5546TIP3    H138053   3.555   0.692  13.167  1.8512 -2.0952 -1.2229
 5546TIP3    H238054   3.565   0.672  13.316 -1.3537  0.2913 -0.5829
 5547TIP3   OH238055   3.142   4.821  14.908 -0.9455  0.0082 -0.0608
 5547TIP3    H138056   3.114   4.790  14.822  0.5748  0.3495 -0.7033
 5547TIP3    H238057   3.165   4.741  14.957 -2.0721 -0.2053  0.1547
 5548TIP3   OH238058   5.231   6.569  16.173 -0.2032 -0.1474 -0.2804
 5548TIP3    H138059   5.297   6.594  16.237  1.7409  1.0557 -2.5832
 5548TIP3    H238060   5.153   6.548  16.225  1.0208  1.4302  2.3830
 5549TIP3   OH238061   4.083   0.889   1.190  0.0767 -0.5385 -0.1176
 5549TIP3    H138062   4.030   0.812   1.213 -0.6091 -0.8304 -2.4823
 5549TIP3    H238063   4.136   0.905   1.269 -2.3600 -1.1818  1.7997
 5550TIP3   OH238064   2.735   3.379   2.603  0.1123 -0.3329  0.2438
 5550TIP3    H138065   2.769   3.468   2.610 -2.3255  0.7778 -0.9444
 5550TIP3    H238066   2.715   3.354   2.693 -0.4796  0.8928  0.4749
 5551TIP3   OH238067   0.107   4.469  13.583  0.1252  0.0223 -0.0246
 5551TIP3    H138068   0.107   4.391  13.529  1.0507  1.3473 -2.0347
 5551TIP3    H238069   0.025   4.463  13.633  0.0883 -2.1008 -0.2335
 5552TIP3   OH238070   0.196   6.318  16.922 -0.1470 -0.0838  0.2920
 5552TIP3    H138071   0.191   6.259  16.997 -0.5762 -0.6947 -0.2002
 5552TIP3    H238072   0.159   6.267  16.849  2.6673 -0.5225 -0.9512
 5553TIP3   OH238073   6.509   4.712  13.686 -0.0246  0.1796  0.2979
 5553TIP3    H138074   6.539   4.802  13.679  0.8826 -0.0360  1.0803
 5553TIP3    H238075   6.506   4.680  13.596 -1.3053  1.2747 -0.0600
 5554TIP3   OH238076   1.379   3.978  11.749  0.3180 -0.3369 -0.4362
 5554TIP3    H138077   1.424   4.008  11.670  2.2288 -0.1850  0.6372
 5554TIP3    H238078   1.344   4.057  11.789 -0.4636 -0.3892 -0.9993
 5555TIP3   OH238079   2.504   5.147  13.450 -0.0395 -0.0642 -0.2153
 5555TIP3    H138080   2.428   5.098  13.418 -0.2227  0.1855 -0.1655
 5555TIP3    H238081   2.472   5.236  13.462  0.4275  0.1898 -0.8050
 5556TIP3   OH238082   2.160   5.158  12.661  0.4825  0.0742 -0.0648
 5556TIP3    H138083   2.145   5.178  12.753  0.2525  0.0884 -0.1038
 5556TIP3    H238084   2.081   5.110  12.634  0.8638 -0.5585 -0.0664
 5557TIP3   OH238085   4.128   6.315   2.840  0.3385 -0.5530  1.1079
 5557TIP3    H138086   4.068   6.390   2.841  0.6425 -0.2667  3.6818
 5557TIP3    H238087   4.077   6.244   2.801 -0.1998  0.7601 -0.7301
 5558TIP3   OH238088   5.896   2.656  12.211 -0.5560 -0.3808 -0.4465
 5558TIP3    H138089   5.930   2.570  12.188 -1.4313 -1.1221  0.8811
 5558TIP3    H238090   5.801   2.645  12.212 -0.6454 -0.1763  2.2915
 5559TIP3   OH238091   1.006   4.050  14.302 -0.0660  0.6930 -0.4597
 5559TIP3    H138092   1.025   4.028  14.211 -1.4614 -2.2231 -0.1720
 5559TIP3    H238093   0.910   4.052  14.307 -0.0160  0.7870  0.9438
 5560TIP3   OH238094   1.371   5.784   1.539  1.0179 -0.0983  0.2167
 5560TIP3    H138095   1.450   5.734   1.557  1.0714 -0.8877 -2.0180
 5560TIP3    H238096   1.397   5.875   1.550  1.9634 -0.3931  0.4798
 5561TIP3   OH238097   5.071   3.131  13.377  0.1758 -0.1144  0.2343
 5561TIP3    H138098   5.039   3.172  13.457 -0.4352  0.3181 -0.2140
 5561TIP3    H238099   5.021   3.174  13.307 -0.3082 -1.4517 -0.2742
 5562TIP3   OH238100   3.198   1.997  13.585 -0.2810 -0.1176 -0.4571
 5562TIP3    H138101   3.284   2.032  13.609 -0.1670 -0.8439  0.2427
 5562TIP3    H238102   3.203   1.985  13.491  0.0349  0.7790 -0.5646
 5563TIP3   OH238103   1.231   4.154  15.069 -0.3233 -0.1260  0.4711
 5563TIP3    H138104   1.155   4.163  15.011  0.0395 -0.3317 -0.0439
 5563TIP3    H238105   1.264   4.066  15.052  1.5097  0.8265 -1.1557
 5564TIP3   OH238106   0.090   0.659   0.213  0.4095  0.3404  0.1330
 5564TIP3    H138107   0.151   0.672   0.285 -1.4473  0.5010  1.7806
 5564TIP3    H238108   0.028   0.593   0.246 -0.4227  0.3221 -1.3631
 5565TIP3   OH238109   3.162   0.142  16.338 -0.4546 -0.1313  0.6416
 5565TIP3    H138110   3.233   0.124  16.400  0.1289  1.0328  0.3330
 5565TIP3    H238111   3.156   0.238  16.335 -2.1923 -0.1927  0.8289
 5566TIP3   OH238112   1.689   1.878  15.456  0.2741  0.2734 -0.1375
 5566TIP3    H138113   1.639   1.952  15.421 -0.8923 -1.4433 -2.3643
 5566TIP3    H238114   1.639   1.848  15.532 -0.9190 -0.0487 -1.0235
 5567TIP3   OH238115   2.034   2.203  12.407  0.6294 -0.3203 -0.1216
 5567TIP3    H138116   1.981   2.251  12.470  1.0065  0.9375 -0.7424
 5567TIP3    H238117   2.075   2.133  12.460  1.4503  1.0874  1.1962
 5568TIP3   OH238118   4.934   1.112   5.546 -0.2618  0.1821  0.0541
 5568TIP3    H138119   4.918   1.200   5.579 -0.8370 -0.2906  1.0815
 5568TIP3    H238120   4.860   1.060   5.578  0.1684 -0.7204 -0.3653
 5569TIP3   OH238121   0.646   1.287  11.677 -0.5844  0.0080  0.7199
 5569TIP3    H138122   0.616   1.373  11.706 -1.3249 -0.6276  1.8957
 5569TIP3    H238123   0.610   1.225  11.741  1.5636 -1.0065  1.0396
 5570TIP3   OH238124   0.694   0.455   0.040 -0.0712 -0.1504 -0.1179
 5570TIP3    H138125   0.617   0.453  -0.016  0.1283 -1.0231 -0.3866
 5570TIP3    H238126   0.683   0.532   0.095 -1.2735 -0.4162  0.0387
 5571TIP3   OH238127   4.498   0.717  15.829 -0.0312 -0.2760 -0.3324
 5571TIP3    H138128   4.490   0.681  15.917 -1.5691  1.0046  0.1157
 5571TIP3    H238129   4.497   0.641  15.771  0.3060 -1.0973  0.7073
 5572TIP3   OH238130   0.589   2.837   4.864 -0.3340  0.7528  0.6822
 5572TIP3    H138131   0.590   2.871   4.775  1.3563 -1.7426 -0.3601
 5572TIP3    H238132   0.594   2.742   4.854 -0.6423  0.3497  3.4496
 5573TIP3   OH238133   6.117   0.702   4.656  0.0529 -0.0779  0.4527
 5573TIP3    H138134   6.129   0.755   4.577 -0.4311  0.5921  0.8139
 5573TIP3    H238135   6.206   0.690   4.690  0.1999  0.2112  0.1721
 5574TIP3   OH238136   4.094   4.259  13.920  0.2426  0.1004  0.0859
 5574TIP3    H138137   4.051   4.205  13.986  0.1196  1.5066  1.1960
 5574TIP3    H238138   4.185   4.263  13.947 -0.1828  2.4357  1.4918
 5575TIP3   OH238139   4.449   5.960  11.341  0.4873 -0.4542  0.6064
 5575TIP3    H138140   4.503   5.882  11.334 -0.2138 -0.9566  0.6948
 5575TIP3    H238141   4.511   6.032  11.347  1.1553 -0.8941 -0.6291
 5576TIP3   OH238142   3.860   0.126  16.229  0.2651 -0.5938 -0.1740
 5576TIP3    H138143   3.898   0.110  16.316  0.5870 -1.1478 -0.4143
 5576TIP3    H238144   3.908   0.203  16.196  0.5050 -0.7037 -0.0786
 5577TIP3   OH238145   3.731   6.711  11.469 -0.1468  0.0365 -0.3950
 5577TIP3    H138146   3.765   6.623  11.485  0.3237  0.3606  0.5033
 5577TIP3    H238147   3.784   6.767  11.526 -1.3037  0.7295  0.0250
 5578TIP3   OH238148   4.568   5.657   2.237 -0.2653 -0.2157  0.3740
 5578TIP3    H138149   4.508   5.601   2.287 -0.2542 -0.4599  0.1214
 5578TIP3    H238150   4.524   5.670   2.153  0.6292 -1.5344 -0.3378
 5579TIP3   OH238151   5.787   1.801  11.744  0.1855 -0.3981  0.3137
 5579TIP3    H138152   5.718   1.773  11.804  0.3655 -1.4240  0.0575
 5579TIP3    H238153   5.867   1.763  11.781  0.6248  0.7556  0.5956
 5580TIP3   OH238154   5.647   6.061  16.979  0.3960 -0.0287  0.3273
 5580TIP3    H138155   5.582   6.066  17.050  0.0232 -0.1905  0.0011
 5580TIP3    H238156   5.598   6.085  16.900  1.2893  2.1668  0.3844
 5581TIP3   OH238157   1.369   6.465   4.133 -0.2621 -0.2547 -0.0688
 5581TIP3    H138158   1.445   6.429   4.088  0.4840  1.0462  0.1100
 5581TIP3    H238159   1.315   6.503   4.063  0.7876  1.5660  0.0486
 5582TIP3   OH238160   1.072   3.285   1.403  0.1352  0.3645  0.0019
 5582TIP3    H138161   1.136   3.341   1.447 -0.8886  1.0425  0.6747
 5582TIP3    H238162   1.017   3.346   1.354 -1.0101 -0.0440  0.7550
 5583TIP3   OH238163   0.973   2.770  16.994  0.3530 -0.0277 -0.2720
 5583TIP3    H138164   0.939   2.763  16.905  1.8396 -0.1806 -0.8524
 5583TIP3    H238165   1.007   2.683  17.014  0.8777  0.2470  0.0709
 5584TIP3   OH238166   3.283   2.516  14.464 -0.0827 -0.3052  0.3198
 5584TIP3    H138167   3.303   2.433  14.505 -0.2786 -0.0943  0.8483
 5584TIP3    H238168   3.311   2.505  14.373 -0.5231 -1.0973  0.2730
 5585TIP3   OH238169   5.238   3.935   3.064  0.1521  0.0200 -0.2063
 5585TIP3    H138170   5.319   3.915   3.111  0.3669 -0.9543 -0.9632
 5585TIP3    H238171   5.169   3.900   3.119  0.2570  0.5442  0.2719
 5586TIP3   OH238172   2.115   2.491  11.233 -0.4209 -0.1397 -0.3275
 5586TIP3    H138173   2.138   2.500  11.141 -0.9459  0.6946 -0.3897
 5586TIP3    H238174   2.196   2.509  11.280 -0.4807  0.8779 -0.5949
 5587TIP3   OH238175   1.800   5.833  16.168  0.3158 -0.6124  0.1543
 5587TIP3    H138176   1.871   5.769  16.174  0.4033 -0.4400  1.1534
 5587TIP3    H238177   1.797   5.858  16.076  1.5569 -0.6041  0.1070
 5588TIP3   OH238178   5.849   3.165  14.098 -0.3062 -0.0894  0.8865
 5588TIP3    H138179   5.917   3.127  14.041  1.7880  1.4512  2.2319
 5588TIP3    H238180   5.840   3.255  14.068 -1.6219 -0.1892  0.9107
 5589TIP3   OH238181   3.805   2.411  11.506  0.2357  0.0184  0.3951
 5589TIP3    H138182   3.894   2.433  11.531 -0.6147  0.6582  3.1795
 5589TIP3    H238183   3.757   2.495  11.510 -0.5036 -0.2626 -1.2830
 5590TIP3   OH238184   0.130   2.383   1.963 -0.2239 -0.4916  0.4462
 5590TIP3    H138185   0.044   2.424   1.971 -1.0903 -2.2881  0.7912
 5590TIP3    H238186   0.160   2.408   1.875 -1.7392 -0.9699 -0.2488
 5591TIP3   OH238187   5.496   4.146  16.645 -0.6427  0.8701 -0.1365
 5591TIP3    H138188   5.560   4.148  16.574 -0.5571  1.2668 -0.0495
 5591TIP3    H238189   5.501   4.233  16.685 -0.0741  0.3860  0.9059
 5592TIP3   OH238190   4.059   3.512  15.203  0.0364  0.0523  0.1417
 5592TIP3    H138191   4.019   3.425  15.204  1.3629 -0.5827  0.1637
 5592TIP3    H238192   3.986   3.572  15.185 -0.8688 -1.0700 -0.0395
 5593TIP3   OH238193   3.785   6.616   2.396  0.1173  0.0819 -0.0449
 5593TIP3    H138194   3.694   6.630   2.370 -0.5765 -1.1331  1.5903
 5593TIP3    H238195   3.807   6.693   2.449  0.5055  1.0170 -1.5156
 5594TIP3   OH238196   3.390   3.662  13.991  0.5403 -0.7432 -0.2613
 5594TIP3    H138197   3.409   3.607  13.914  0.5299 -0.5209 -0.4224
 5594TIP3    H238198   3.474   3.696  14.018  0.2756  1.1851 -1.6793
 5595TIP3   OH238199   3.450   2.894   3.031 -0.3885 -0.1429  0.3955
 5595TIP3    H138200   3.425   2.924   3.118 -2.2194 -1.1130  0.2592
 5595TIP3    H238201   3.514   2.958   3.000  1.1498 -0.3866  2.8680
 5596TIP3   OH238202   5.102   5.250   0.071  0.1914 -0.2021  0.1150
 5596TIP3    H138203   5.112   5.228  -0.022  0.6251 -0.9928  0.3395
 5596TIP3    H238204   5.007   5.245   0.086 -0.0409  1.4675 -0.6337
 5597TIP3   OH238205   4.780   0.921  11.341  0.9547  0.0879  0.5964
 5597TIP3    H138206   4.841   0.938  11.269  1.2446  2.7440  1.3497
 5597TIP3    H238207   4.823   0.959  11.418 -1.3001  1.3907  1.2928
 5598TIP3   OH238208   4.111   1.733  14.149 -0.1040  0.1851  0.2445
 5598TIP3    H138209   4.117   1.780  14.066 -1.2175 -1.4490 -0.8138
 5598TIP3    H238210   4.147   1.794  14.214  2.2304  0.9299 -1.6129
 5599TIP3   OH238211   5.688   6.473   3.019 -0.5392  0.6563 -0.0391
 5599TIP3    H138212   5.721   6.519   3.096  3.2762 -1.3825 -0.2107
 5599TIP3    H238213   5.685   6.539   2.950  2.8958  1.1853  0.1844
 5600TIP3   OH238214   1.711   2.475  16.764 -0.2155  0.3853 -0.3309
 5600TIP3    H138215   1.799   2.510  16.780  0.5358 -1.2114 -0.8008
 5600TIP3    H238216   1.689   2.427  16.844 -0.8840  1.1799 -0.0207
 5601TIP3   OH238217   5.360   2.079   0.656  0.0374 -0.3485  0.0014
 5601TIP3    H138218   5.377   2.030   0.575  0.3659  1.5015 -1.1076
 5601TIP3    H238219   5.265   2.073   0.668 -0.3435  1.1126 -1.7649
 5602TIP3   OH238220   4.442   0.576   0.491  0.2730  0.1697 -0.0095
 5602TIP3    H138221   4.395   0.494   0.502  0.5564  0.1152  0.9486
 5602TIP3    H238222   4.426   0.602   0.401 -2.4290  0.6636  0.5250
 5603TIP3   OH238223   0.700   4.611   1.652 -0.2777  0.2747 -0.0148
 5603TIP3    H138224   0.605   4.623   1.657 -0.3005 -0.0245  0.2829
 5603TIP3    H238225   0.713   4.518   1.668  0.0264  0.2097 -0.6358
 5604TIP3   OH238226   1.603   1.416  13.533 -0.2765  0.0573  0.7456
 5604TIP3    H138227   1.548   1.346  13.496  0.9608 -1.1478  1.0889
 5604TIP3    H238228   1.611   1.394  13.626 -0.0458  0.7907  0.9044
 5605TIP3   OH238229   4.905   1.154  14.082  0.2653  0.3407  0.2347
 5605TIP3    H138230   4.956   1.179  14.005  3.5927 -0.9973  1.8260
 5605TIP3    H238231   4.907   1.232  14.138  0.7173  0.2242  0.3783
 5606TIP3   OH238232   2.835   1.298  12.502 -0.5129 -0.2495  0.1633
 5606TIP3    H138233   2.785   1.359  12.555  0.0267 -0.4839  0.9533
 5606TIP3    H238234   2.819   1.326  12.412  1.3040  2.3705  0.5294
 5607TIP3   OH238235   6.113   6.449   5.399 -0.2991  0.2158  0.0734
 5607TIP3    H138236   6.116   6.524   5.458 -0.9873  1.0460 -0.9094
 5607TIP3    H238237   6.031   6.405   5.420 -0.3966  0.3365 -0.0521
 5608TIP3   OH238238   4.913   3.126   0.697 -0.0052 -0.3406  0.8795
 5608TIP3    H138239   4.868   3.210   0.685 -1.4394 -0.8944  1.9691
 5608TIP3    H238240   5.006   3.147   0.692 -0.3321  0.9494 -1.0220
 5609TIP3   OH238241   2.212   4.477  16.581 -0.1878  0.2369 -0.0059
 5609TIP3    H138242   2.184   4.556  16.627  1.7667  0.7402  0.4159
 5609TIP3    H238243   2.308   4.480  16.585 -0.0642 -2.6566  0.8387
 5610TIP3   OH238244   3.849   3.146   1.480  0.0490  0.2913  0.0416
 5610TIP3    H138245   3.936   3.113   1.505 -1.0076 -0.5884  2.9714
 5610TIP3    H238246   3.797   3.067   1.464 -0.9193  0.6885  1.1130
 5611TIP3   OH238247   1.793   1.966   0.587 -0.0734  0.2300 -0.3647
 5611TIP3    H138248   1.724   1.943   0.524 -0.3242 -1.3929  0.4583
 5611TIP3    H238249   1.789   1.897   0.653  1.2229  1.0514  0.6139
 5612TIP3   OH238250   6.410   3.770   0.130 -1.1109 -0.1350  0.3111
 5612TIP3    H138251   6.466   3.706   0.087 -0.1919  0.2309  0.9179
 5612TIP3    H238252   6.428   3.852   0.084  0.1767  0.3438  1.5722
 5613TIP3   OH238253   5.938   6.727   0.093 -0.1334  0.5080 -0.4052
 5613TIP3    H138254   5.987   6.759   0.017 -0.5511  2.6369  0.1439
 5613TIP3    H238255   6.004   6.685   0.148  0.5398  0.7299 -1.0251
 5614TIP3   OH238256   0.368   3.448  15.000  0.1489  0.2069 -0.9978
 5614TIP3    H138257   0.280   3.440  14.963 -1.3063  1.0415  1.9985
 5614TIP3    H238258   0.415   3.371  14.967 -2.5180 -1.6973 -0.6302
 5615TIP3   OH238259   5.322   1.542  10.294  0.3936  0.4403 -0.3065
 5615TIP3    H138260   5.305   1.486  10.218  0.4666 -0.6908  0.4874
 5615TIP3    H238261   5.237   1.583  10.312 -0.1685 -0.9012  0.2495
 5616TIP3   OH238262   2.916   5.851   3.334  0.1460  0.4735 -0.0852
 5616TIP3    H138263   2.911   5.947   3.327  1.3575  0.7400  1.7756
 5616TIP3    H238264   2.873   5.831   3.417  1.3717 -0.3877  0.3702
 5617TIP3   OH238265   1.761   6.644   0.507 -0.0601 -0.5144 -0.7827
 5617TIP3    H138266   1.830   6.594   0.463 -1.2207 -2.1622 -0.8273
 5617TIP3    H238267   1.776   6.735   0.481  2.1951 -0.7955 -0.6034
 5618TIP3   OH238268   1.493   1.294  11.133  0.6007 -0.3224 -0.3625
 5618TIP3    H138269   1.417   1.346  11.161  0.4324 -0.8023  0.0812
 5618TIP3    H238270   1.471   1.204  11.156  1.3011 -0.4720 -0.2538
 5619TIP3   OH238271   5.246   0.625  12.174  0.4531 -0.2431  0.0241
 5619TIP3    H138272   5.163   0.585  12.197  0.5117  0.4273  1.5419
 5619TIP3    H238273   5.288   0.562  12.116 -1.5297 -0.1298 -1.6423
 5620TIP3   OH238274   2.305   0.503   0.022 -0.1818  0.0405 -0.1939
 5620TIP3    H138275   2.319   0.510   0.116  0.0370 -1.2086 -0.1150
 5620TIP3    H238276   2.219   0.460   0.013  0.3811 -1.0739 -0.5142
 5621TIP3   OH238277   6.263   3.708  13.199  0.0616  0.0075 -0.0530
 5621TIP3    H138278   6.352   3.686  13.173  0.2332 -0.3653  0.8259
 5621TIP3    H238279   6.216   3.625  13.198  0.0634 -0.0137  0.7632
 5622TIP3   OH238280   6.067   1.134   5.528 -0.4106 -0.3275  0.2899
 5622TIP3    H138281   6.015   1.214   5.522  1.0782  0.7431  1.0689
 5622TIP3    H238282   6.054   1.103   5.617  1.3445  0.7624  0.9839
 5623TIP3   OH238283   1.312   6.636  16.075 -0.4331 -0.1675 -0.2096
 5623TIP3    H138284   1.348   6.667  15.992 -1.8841 -1.5496 -1.4318
 5623TIP3    H238285   1.227   6.598  16.051 -0.6706 -1.0490  1.8443
 5624TIP3   OH238286   0.890   0.311  13.595 -0.3367 -0.1796  0.7997
 5624TIP3    H138287   0.904   0.224  13.631 -1.4078 -0.1365  1.3602
 5624TIP3    H238288   0.798   0.330  13.613 -0.7515  0.1264 -1.3810
 5625TIP3   OH238289   0.842   6.728   4.754  0.1280  0.1899 -0.5103
 5625TIP3    H138290   0.823   6.792   4.686  0.0312  0.6382 -0.0651
 5625TIP3    H238291   0.823   6.773   4.836  1.6906  0.1797 -0.0990
 5626TIP3   OH238292   5.660   4.296   2.407  0.1596 -0.2365  0.1202
 5626TIP3    H138293   5.634   4.342   2.327 -1.3414 -0.3661  0.4923
 5626TIP3    H238294   5.596   4.226   2.415  0.9364 -0.8672  0.8815
 5627TIP3   OH238295   3.367   3.334  16.032  0.4339 -0.1074 -0.1259
 5627TIP3    H138296   3.382   3.408  15.973  1.0736 -0.5231 -0.5000
 5627TIP3    H238297   3.440   3.274  16.014 -1.1482 -1.7874 -1.3438
 5628TIP3   OH238298   6.668   5.375  10.708  0.2534 -0.1631  0.1135
 5628TIP3    H138299   6.730   5.372  10.635 -1.5386  1.7338 -1.5790
 5628TIP3    H238300   6.666   5.467  10.734 -1.4587 -0.2686  0.4568
 5629TIP3   OH238301   2.457   5.047   4.334  0.2005 -0.6842  0.3863
 5629TIP3    H138302   2.551   5.037   4.321 -0.0698 -2.1236 -0.7334
 5629TIP3    H238303   2.446   5.137   4.365  1.5813  0.8828 -3.1429
 5630TIP3   OH238304   6.436   0.226   3.238 -0.1776 -0.1762  0.4085
 5630TIP3    H138305   6.387   0.307   3.224 -1.2040 -0.6487  1.1004
 5630TIP3    H238306   6.522   0.255   3.268 -0.5434  0.6545  0.6898
 5631TIP3   OH238307   4.253   2.095   4.679  0.1556 -0.3330 -0.0697
 5631TIP3    H138308   4.341   2.067   4.706  0.4132  0.8000  0.3024
 5631TIP3    H238309   4.266   2.128   4.590 -0.0114 -0.7134 -0.2369
 5632TIP3   OH238310   2.228   3.045  15.261 -0.3361 -0.6085 -0.4360
 5632TIP3    H138311   2.321   3.061  15.249 -0.5899  1.4061 -0.1378
 5632TIP3    H238312   2.219   3.017  15.352 -0.0447 -0.5587 -0.3933
 5633TIP3   OH238313   5.675   5.208   4.534  0.1367 -0.3859  0.2541
 5633TIP3    H138314   5.688   5.293   4.492 -0.3635 -0.2854  0.2988
 5633TIP3    H238315   5.736   5.208   4.608 -0.8895  0.5358  1.1407
 5634TIP3   OH238316   1.378   2.913  11.357  0.0382 -0.6331 -0.8546
 5634TIP3    H138317   1.366   3.000  11.320  0.1262 -0.4427 -0.4435
 5634TIP3    H238318   1.343   2.919  11.446 -0.2920 -1.1178 -0.9471
 5635TIP3   OH238319   6.670   0.414  14.608 -0.2113  0.6719  0.4040
 5635TIP3    H138320   6.710   0.328  14.603  0.7917  1.0578  1.3554
 5635TIP3    H238321   6.576   0.398  14.595 -0.1896 -0.7179  1.7113
 5636TIP3   OH238322   2.593   5.173   2.904 -0.0374 -0.3766 -0.6150
 5636TIP3    H138323   2.622   5.101   2.959 -2.2943 -1.0864 -0.2653
 5636TIP3    H238324   2.515   5.208   2.947  0.8302  2.1676 -0.8942
 5637TIP3   OH238325   4.816   0.104  12.880 -0.5290 -0.0428 -0.4711
 5637TIP3    H138326   4.760   0.133  12.953 -0.0054  0.3256 -0.2017
 5637TIP3    H238327   4.905   0.113  12.915 -0.2061  1.2374 -1.5296
 5638TIP3   OH238328   0.872   1.599  13.716  0.3233  0.0274 -0.2360
 5638TIP3    H138329   0.898   1.527  13.658  0.4588 -1.2017  1.2848
 5638TIP3    H238330   0.928   1.589  13.793 -0.9788  0.5974  0.8266
 5639TIP3   OH238331   5.116   6.137   4.414 -0.1539 -0.0311  0.4652
 5639TIP3    H138332   5.188   6.090   4.372  0.6277  1.3761  0.1571
 5639TIP3    H238333   5.096   6.208   4.353 -0.1279  1.0633  1.6938
 5640TIP3   OH238334   1.380   5.309   2.252 -0.0040 -0.0010 -0.7688
 5640TIP3    H138335   1.337   5.293   2.168  3.2471 -1.1746 -2.4012
 5640TIP3    H238336   1.401   5.222   2.285  0.4420  0.4997  0.3113
 5641TIP3   OH238337   1.271   6.295  11.786  0.3308 -0.4708  0.1799
 5641TIP3    H138338   1.204   6.266  11.723  1.4809 -0.6831 -0.9748
 5641TIP3    H238339   1.303   6.377  11.750  1.3025 -0.8092  0.2642
 5642TIP3   OH238340   3.238   4.631   2.236  0.7494  0.2087 -0.2806
 5642TIP3    H138341   3.288   4.664   2.311 -1.1230  2.8380 -0.0601
 5642TIP3    H238342   3.173   4.699   2.219 -3.6879 -3.3977  0.3240
 5643TIP3   OH238343   2.521   3.266   2.422 -0.1125 -0.6058  0.2031
 5643TIP3    H138344   2.470   3.231   2.495  1.5685 -0.7473  1.3646
 5643TIP3    H238345   2.586   3.322   2.463 -0.5317  1.1508 -1.3863
 5644TIP3   OH238346   5.123   3.065  11.532  0.1269 -0.3124  0.0145
 5644TIP3    H138347   5.081   3.145  11.500  0.5046  1.4940  3.5083
 5644TIP3    H238348   5.217   3.081  11.521  0.2031 -0.2366  0.7112
 5645TIP3   OH238349   2.849   3.214  16.178  0.1788 -0.2740 -0.3767
 5645TIP3    H138350   2.832   3.173  16.093  0.8860 -2.8260  0.6485
 5645TIP3    H238351   2.933   3.178  16.206  0.7880  1.8020  0.7158
 5646TIP3   OH238352   6.816   1.350  13.898  0.5827  0.4192  0.5922
 5646TIP3    H138353   6.815   1.300  13.816 -1.0733  2.1826 -0.5612
 5646TIP3    H238354   6.868   1.297  13.958 -0.3387 -2.2461 -0.7915
 5647TIP3   OH238355   5.444   2.428  16.567  0.0962  0.6137  0.0514
 5647TIP3    H138356   5.372   2.417  16.628  0.7377  1.1548  0.9268
 5647TIP3    H238357   5.520   2.390  16.612  0.1362 -1.0756 -1.3582
 5648TIP3   OH238358   4.722   1.143   3.835  0.2153  0.4746  0.1516
 5648TIP3    H138359   4.768   1.061   3.816  0.6868  0.6519  0.5098
 5648TIP3    H238360   4.779   1.211   3.800  1.1081  0.8087  2.1600
 5649TIP3   OH238361   0.781   1.979   4.694 -0.2986 -0.0590  0.1723
 5649TIP3    H138362   0.808   1.970   4.785 -0.2212  0.2350  0.1777
 5649TIP3    H238363   0.853   1.940   4.644  0.9139  2.1594  0.1011
 5650TIP3   OH238364   3.993   2.588   4.777  0.5017  0.2874  0.3407
 5650TIP3    H138365   4.034   2.509   4.741  0.7067  0.9809 -0.9923
 5650TIP3    H238366   3.899   2.570   4.771  0.5611 -0.5697  1.7175
 5651TIP3   OH238367   3.900   4.251  14.705 -0.4244  0.1133  0.0733
 5651TIP3    H138368   3.868   4.189  14.771  0.3416 -1.0907 -0.6374
 5651TIP3    H238369   3.959   4.309  14.754 -2.0310  1.0448  0.9766
 5652TIP3   OH238370   3.738   6.787  12.477 -0.2343 -0.7593 -0.1410
 5652TIP3    H138371   3.657   6.836  12.460  0.2201  0.4434  0.9928
 5652TIP3    H238372   3.720   6.700  12.443 -2.1999 -0.6670  0.5186
 5653TIP3   OH238373   1.485   2.107  15.507 -0.2166  0.0912 -0.6727
 5653TIP3    H138374   1.432   2.055  15.568 -1.2637 -0.1725 -1.7649
 5653TIP3    H238375   1.526   2.173  15.562  1.5821 -2.1566  0.8597
 5654TIP3   OH238376   3.490   3.971  13.316 -0.3003  0.0632  0.4150
 5654TIP3    H138377   3.492   3.927  13.231 -1.5853  0.7104  0.0289
 5654TIP3    H238378   3.580   3.999  13.331  0.0936 -0.7562 -0.3502
 5655TIP3   OH238379   3.354   5.187  12.825 -0.4811 -0.1227 -0.0786
 5655TIP3    H138380   3.360   5.092  12.836 -0.4347 -0.4247 -2.2779
 5655TIP3    H238381   3.290   5.215  12.891 -0.9038 -1.7443  0.2477
 5656TIP3   OH238382   2.353   3.992   5.169 -0.3822 -0.2891  0.0432
 5656TIP3    H138383   2.277   3.995   5.227  0.5206  4.0252  1.4010
 5656TIP3    H238384   2.428   3.991   5.229  0.5593  2.5884 -0.9118
 5657TIP3   OH238385   6.646   4.445  17.006  0.2093 -0.5045 -0.8429
 5657TIP3    H138386   6.572   4.474  16.954  0.4913  0.9931 -0.4465
 5657TIP3    H238387   6.703   4.522  17.012  1.2990 -1.3285 -0.2895
 5658TIP3   OH238388   6.576   6.578  13.196  0.2544  0.3603  0.2886
 5658TIP3    H138389   6.537   6.569  13.283 -0.0772 -1.4387 -0.0166
 5658TIP3    H238390   6.665   6.544  13.206 -0.0647 -0.6713 -0.2487
 5659TIP3   OH238391   6.629   6.387  13.488  0.1778  0.0670 -0.5503
 5659TIP3    H138392   6.663   6.408  13.574  0.1033 -2.5082  0.1957
 5659TIP3    H238393   6.702   6.405  13.428  1.2289 -0.8324  0.4249
 5660TIP3   OH238394   3.677   3.778   2.359  0.3347  0.3161  0.1056
 5660TIP3    H138395   3.672   3.683   2.370 -1.2858  0.3544 -0.1125
 5660TIP3    H238396   3.631   3.814   2.435  0.1910  0.8983 -0.2514
 5661TIP3   OH238397   5.979   0.534   0.684 -0.2522 -0.3718  0.6225
 5661TIP3    H138398   5.898   0.560   0.639  0.4743 -1.4278 -1.3750
 5661TIP3    H238399   6.035   0.611   0.677 -0.5296 -0.1582  0.6957
 5662TIP3   OH238400   2.739   4.942  12.426 -0.0716 -0.2782  0.1015
 5662TIP3    H138401   2.739   4.863  12.373  0.5596 -0.6154  0.5912
 5662TIP3    H238402   2.768   4.914  12.513  2.1819  0.7705 -0.2210
 5663TIP3   OH238403   1.847   0.158  11.542 -0.2799  0.0861  0.1624
 5663TIP3    H138404   1.784   0.199  11.483  0.2208  0.3829 -0.1743
 5663TIP3    H238405   1.922   0.137  11.486  0.9213  1.9372  1.0044
 5664TIP3   OH238406   5.349   5.002  16.170 -0.2781 -0.4202  0.4660
 5664TIP3    H138407   5.394   5.023  16.252 -0.4084 -0.3356  0.5173
 5664TIP3    H238408   5.298   5.080  16.150  2.0010  0.7538 -1.2386
 5665TIP3   OH238409   4.444   1.550   2.799 -0.5462 -0.2676  0.3126
 5665TIP3    H138410   4.359   1.519   2.767 -0.1612 -0.0548 -0.9613
 5665TIP3    H238411   4.486   1.473   2.836 -0.6084 -0.7310 -0.5757
 5666TIP3   OH238412   3.347   3.738  14.506 -0.0351 -0.0956  0.0209
 5666TIP3    H138413   3.274   3.797  14.487 -0.4467 -1.1348 -1.8182
 5666TIP3    H238414   3.335   3.664  14.447  1.6899 -1.0072  0.7295
 5667TIP3   OH238415   0.723   6.103  14.112  0.0630 -0.3779 -0.2783
 5667TIP3    H138416   0.812   6.125  14.086  0.9984 -1.9832  1.3270
 5667TIP3    H238417   0.722   6.007  14.116 -2.5479 -0.5925 -2.8310
 5668TIP3   OH238418   5.320   1.074   0.531  0.0649  0.4933  0.0111
 5668TIP3    H138419   5.367   0.994   0.506 -0.5152  0.4280 -0.9383
 5668TIP3    H238420   5.323   1.129   0.453  2.5184  2.4711  1.3497
 5669TIP3   OH238421   2.077   6.788  11.249 -1.0100  0.1334 -0.6351
 5669TIP3    H138422   2.114   6.701  11.264 -0.5017  0.7358  2.2528
 5669TIP3    H238423   1.982   6.773  11.242 -0.8261 -0.7465 -1.5983
 5670TIP3   OH238424   0.128   5.471  14.761 -0.0901 -0.0190  0.0220
 5670TIP3    H138425   0.188   5.397  14.762  0.5591  0.5011  0.9211
 5670TIP3    H238426   0.172   5.538  14.710  0.5967  0.7442  1.5659
 5671TIP3   OH238427   4.555   1.135  15.881 -0.5948  0.2315 -0.2870
 5671TIP3    H138428   4.594   1.192  15.947  0.3132 -0.8547  0.1536
 5671TIP3    H238429   4.481   1.184  15.847  1.1018  2.3676 -1.0989
 5672TIP3   OH238430   1.753   3.034   1.907  0.0213 -0.3840  0.5603
 5672TIP3    H138431   1.704   3.005   1.984 -0.4782 -0.8922  0.0569
 5672TIP3    H238432   1.799   2.956   1.876 -1.4901 -0.7399 -0.9143
 5673TIP3   OH238433   3.017   4.838  10.501 -0.0496  0.3336  0.3676
 5673TIP3    H138434   2.975   4.808  10.421 -0.7876  1.9097  0.1279
 5673TIP3    H238435   3.059   4.921  10.477 -0.6918  1.0797  1.6963
 5674TIP3   OH238436   2.338   6.407   2.922  0.2717  0.0813  0.5701
 5674TIP3    H138437   2.434   6.404   2.921  0.3213  1.1459  0.2037
 5674TIP3    H238438   2.316   6.428   3.013  0.5995  3.3783  0.0351
 5675TIP3   OH238439   2.199   0.425  11.116  0.0531  0.1243 -0.2762
 5675TIP3    H138440   2.126   0.387  11.067 -0.1407 -0.9664  0.8194
 5675TIP3    H238441   2.163   0.447  11.201  0.3664  2.0892 -0.5995
 5676TIP3   OH238442   5.438   2.607   5.380 -0.5947  0.2162 -0.2595
 5676TIP3    H138443   5.397   2.672   5.324 -1.6281 -0.2689 -0.0806
 5676TIP3    H238444   5.509   2.654   5.424 -2.5155  1.7852  1.3577
 5677TIP3   OH238445   4.669   2.584  15.775  0.3901 -0.0922  0.2010
 5677TIP3    H138446   4.697   2.518  15.711 -0.0839 -0.8987  0.8094
 5677TIP3    H238447   4.654   2.663  15.722 -0.1148 -0.7737 -0.7120
 5678TIP3   OH238448   2.216   0.746   2.786  0.2715 -0.7291  0.1207
 5678TIP3    H138449   2.279   0.711   2.723 -1.1945 -1.5874 -0.9409
 5678TIP3    H238450   2.159   0.672   2.807 -1.1422  0.2918  0.0708
 5679TIP3   OH238451   6.560   5.367   4.047 -0.7422 -0.3253  0.3774
 5679TIP3    H138452   6.483   5.318   4.075 -1.4563  0.7405  0.3490
 5679TIP3    H238453   6.580   5.333   3.959  0.0380 -1.9790  1.1577
 5680TIP3   OH238454   5.792   4.179   3.476 -0.1265 -0.2663 -0.0570
 5680TIP3    H138455   5.887   4.182   3.486 -0.0629  1.3400 -0.8716
 5680TIP3    H238456   5.764   4.270   3.485 -1.8954 -0.9547  2.6236
 5681TIP3   OH238457   3.226   6.277  15.020 -0.2184  0.0442 -0.0373
 5681TIP3    H138458   3.242   6.371  15.018 -2.6338  0.5230 -0.8933
 5681TIP3    H238459   3.179   6.259  14.938 -1.5848 -1.5171  1.0174
 5682TIP3   OH238460   2.372   2.962   0.565 -0.6312  0.2025  0.3785
 5682TIP3    H138461   2.460   2.928   0.584 -0.4083  1.1927  1.2022
 5682TIP3    H238462   2.356   2.937   0.474  1.3725  1.7693 -0.4877
 5683TIP3   OH238463   1.565   0.414  16.268 -0.2812 -0.5888  0.1102
 5683TIP3    H138464   1.486   0.377  16.229  0.3782 -1.5212 -0.3734
 5683TIP3    H238465   1.630   0.344  16.263  1.7365  1.2402 -2.9533
 5684TIP3   OH238466   0.802   2.861  14.274  0.2196  0.4325  0.4218
 5684TIP3    H138467   0.810   2.956  14.275  1.6769  0.3913 -1.7079
 5684TIP3    H238468   0.871   2.831  14.215 -1.2564 -1.8405 -0.2977
 5685TIP3   OH238469   1.453   1.632  11.749  0.8720  0.1692  0.1047
 5685TIP3    H138470   1.410   1.549  11.728  0.2165 -0.0867  2.2519
 5685TIP3    H238471   1.398   1.698  11.706  1.5842 -0.4738 -1.9011
 5686TIP3   OH238472   1.118   5.120   1.449 -0.2088  0.0125 -0.2070
 5686TIP3    H138473   1.037   5.069   1.458  0.1587 -0.7075 -0.8951
 5686TIP3    H238474   1.145   5.139   1.539 -1.3980  0.6903  0.0315
 5687TIP3   OH238475   1.977   5.369  15.682  0.2907 -0.2410 -0.0417
 5687TIP3    H138476   1.993   5.275  15.673  0.2948 -0.2999  0.5321
 5687TIP3    H238477   2.062   5.410  15.666  0.1316 -0.2802 -1.0402
 5688TIP3   OH238478   2.318   4.650  14.649 -0.3227 -0.1950 -0.0755
 5688TIP3    H138479   2.308   4.586  14.719 -0.7213 -0.4053 -0.3214
 5688TIP3    H238480   2.409   4.680  14.656 -0.9577  1.5623  2.0648
 5689TIP3   OH238481   4.790   0.744  15.492  0.0917 -0.3403  0.1771
 5689TIP3    H138482   4.774   0.785  15.577 -1.1072  0.3850 -0.3778
 5689TIP3    H238483   4.733   0.791  15.431  0.3848 -1.3373 -0.9029
 5690TIP3   OH238484   1.976   2.143   0.490 -0.4683  0.1022  0.3515
 5690TIP3    H138485   1.920   2.070   0.516  3.2194 -2.4788  1.8776
 5690TIP3    H238486   1.988   2.132   0.395 -0.8923 -0.5550  0.3728
 5691TIP3   OH238487   4.960   3.262   3.976  0.0968  0.0140  0.1414
 5691TIP3    H138488   4.892   3.211   4.019 -1.6606  1.4740 -0.7862
 5691TIP3    H238489   4.981   3.212   3.897 -2.4552  1.1459 -1.3837
 5692TIP3   OH238490   0.904   5.659  11.739 -0.4101  0.3154  0.6304
 5692TIP3    H138491   0.858   5.738  11.710 -0.8939  0.0744  0.7321
 5692TIP3    H238492   0.841   5.588  11.727  0.4585 -0.2725 -0.7217
 5693TIP3   OH238493   6.349   5.483  13.595  0.1296  0.4803  0.5742
 5693TIP3    H138494   6.326   5.401  13.551  2.7709 -0.4881  0.8368
 5693TIP3    H238495   6.289   5.488  13.669 -1.2588 -0.2657 -0.4393
 5694TIP3   OH238496   5.012   2.259   2.691 -0.4076  0.1672  0.2480
 5694TIP3    H138497   4.961   2.291   2.616 -3.0394 -0.4537  1.6803
 5694TIP3    H238498   5.081   2.325   2.702 -1.3963  1.5204 -1.2291
 5695TIP3   OH238499   0.018   1.082  12.167 -0.1741 -0.0946 -0.1748
 5695TIP3    H138500  -0.006   0.993  12.193 -1.9882  0.2721 -0.4104
 5695TIP3    H238501   0.113   1.082  12.164 -0.1166 -1.8254  0.5275
 5696TIP3   OH238502   0.416   4.040   5.876  0.4227  0.1254  0.0010
 5696TIP3    H138503   0.495   3.997   5.842  3.2646  2.9038  2.4526
 5696TIP3    H238504   0.414   4.124   5.830 -0.9334  0.2541  0.2768
 5697TIP3   OH238505   2.910   2.302   4.855  0.0274  0.0995 -0.2551
 5697TIP3    H138506   2.858   2.376   4.824  0.0398 -0.4066 -1.5356
 5697TIP3    H238507   2.900   2.304   4.951  0.3344  1.9563 -0.2394
 5698TIP3   OH238508   4.951   6.620  11.934  0.5034  0.0223  0.2028
 5698TIP3    H138509   4.902   6.666  11.866 -1.5870 -1.3584  0.6886
 5698TIP3    H238510   4.990   6.545  11.889  3.4985  1.8140 -0.4809
 5699TIP3   OH238511   6.698   5.923  16.411  0.7036 -0.8072  0.5180
 5699TIP3    H138512   6.706   5.924  16.507 -1.3156 -0.1045  0.7414
 5699TIP3    H238513   6.611   5.885  16.396  0.8382 -0.5452 -1.0212
 5700TIP3   OH238514   6.697   1.459  16.231  0.3549 -0.0453  0.2635
 5700TIP3    H138515   6.630   1.413  16.280 -0.3523 -0.8504 -1.3768
 5700TIP3    H238516   6.770   1.397  16.226 -0.6539 -1.1538 -2.0732
 5701TIP3   OH238517   1.784   4.211   4.060 -0.0835 -0.5982  0.6620
 5701TIP3    H138518   1.819   4.164   4.135  0.3094 -0.1715  0.7553
 5701TIP3    H238519   1.690   4.193   4.062 -0.1419 -0.2677  1.4967
 5702TIP3   OH238520   3.154   6.657  15.341 -0.3385 -0.1128  0.1423
 5702TIP3    H138521   3.236   6.649  15.292 -0.2647  1.1527  0.0136
 5702TIP3    H238522   3.085   6.636  15.278 -0.2204  1.0651 -0.4202
 5703TIP3   OH238523   3.134   2.504  13.678 -0.0332  0.1338 -0.2843
 5703TIP3    H138524   3.074   2.562  13.630  0.8551  2.0163  0.7771
 5703TIP3    H238525   3.093   2.418  13.671 -2.5871  1.2196 -0.1091
 5704TIP3   OH238526   2.937   5.538  14.362  0.5623 -0.5837 -0.1527
 5704TIP3    H138527   2.987   5.595  14.421  1.5972  0.3058 -1.7910
 5704TIP3    H238528   3.004   5.486  14.318 -0.1266 -0.8004 -0.9699
 5705TIP3   OH238529   5.489   6.635  14.215 -0.0723  0.4017 -0.3876
 5705TIP3    H138530   5.419   6.611  14.276  0.6377 -1.3904 -0.2269
 5705TIP3    H238531   5.444   6.647  14.131 -0.6832  0.0491 -0.1193
 5706TIP3   OH238532   2.989   0.988  15.690 -0.4475  0.2180  0.0019
 5706TIP3    H138533   2.943   0.989  15.606  1.7680  1.6220 -1.2995
 5706TIP3    H238534   2.986   0.896  15.718 -2.2801 -0.0586 -0.9732
 5707TIP3   OH238535   4.982   4.263  12.417 -0.0161 -0.1177 -0.1410
 5707TIP3    H138536   5.000   4.339  12.472  2.0532 -0.6901  0.0514
 5707TIP3    H238537   4.915   4.293  12.355  1.8151  2.3839 -1.0630
 5708TIP3   OH238538   4.340   1.846  16.450  0.2753 -0.3736 -0.3088
 5708TIP3    H138539   4.422   1.813  16.414 -0.9762  0.1169 -4.0966
 5708TIP3    H238540   4.328   1.931  16.408 -1.0122  0.7281  2.0868
 5709TIP3   OH238541   2.457   4.476   1.797  0.0356 -0.0860  0.5665
 5709TIP3    H138542   2.388   4.535   1.766  1.4754  1.6738  0.5127
 5709TIP3    H238543   2.510   4.459   1.719 -1.9097 -3.9236 -0.1421
 5710TIP3   OH238544   6.088   5.235  10.837 -0.3334 -0.4689  0.5042
 5710TIP3    H138545   6.126   5.300  10.896  1.3747 -1.6862  0.8059
 5710TIP3    H238546   6.135   5.249  10.754 -1.2877 -0.0992  0.0165
 5711TIP3   OH238547   3.857   1.751   4.802  0.6754 -0.3547 -0.1619
 5711TIP3    H138548   3.922   1.821   4.798 -0.0740  0.2973 -1.2633
 5711TIP3    H238549   3.881   1.700   4.880  0.5338  1.8206  1.3808
 5712TIP3   OH238550   4.533   5.207  13.831 -0.0005 -0.0950 -0.1774
 5712TIP3    H138551   4.627   5.224  13.824 -0.1718  0.3426 -2.4563
 5712TIP3    H238552   4.526   5.134  13.892  1.6789  0.7586  1.1212
 5713TIP3   OH238553   4.287   4.943  15.923  0.1386  0.4514  0.0556
 5713TIP3    H138554   4.204   4.911  15.888  0.0916 -0.3819  0.8985
 5713TIP3    H238555   4.354   4.897  15.872  0.0981  1.2039 -0.6979
 5714TIP3   OH238556   0.576   4.869  14.450 -0.3354 -0.3132 -0.4624
 5714TIP3    H138557   0.661   4.903  14.421  0.4994 -1.5685  0.4141
 5714TIP3    H238558   0.567   4.785  14.404 -0.9544 -0.3324 -0.3101
 5715TIP3   OH238559   5.942   2.666   5.593  0.1043 -0.3451  0.9386
 5715TIP3    H138560   6.013   2.633   5.539 -1.1684 -2.1578  0.2901
 5715TIP3    H238561   5.973   2.752   5.624  1.6403 -0.1024 -1.1000
 5716TIP3   OH238562   3.412   1.882   5.991 -0.1584  0.6641 -0.2433
 5716TIP3    H138563   3.495   1.893   6.037 -0.3566  0.6862  0.1145
 5716TIP3    H238564   3.419   1.939   5.914  0.4137  0.1644 -0.5670
 5717TIP3   OH238565   2.132   0.487   4.957  0.0051  0.0259 -0.1822
 5717TIP3    H138566   2.045   0.450   4.973 -0.3594  1.1431  0.5629
 5717TIP3    H238567   2.119   0.582   4.963  1.1743  0.2297 -0.6129
 5718TIP3   OH238568   5.931   3.752   5.370  0.2344  0.3771 -0.3017
 5718TIP3    H138569   5.950   3.735   5.462  0.1678 -0.5850 -0.4610
 5718TIP3    H238570   5.927   3.848   5.364 -1.3402  0.4489  1.0185
 5719TIP3   OH238571   6.828   4.295   5.493 -0.8707 -0.3461  0.0698
 5719TIP3    H138572   6.768   4.319   5.564 -0.8194  2.5969 -0.7511
 5719TIP3    H238573   6.910   4.274   5.537 -1.3958 -0.5736  0.9683
 5720TIP3   OH238574   1.669   4.214   5.281  0.2142 -0.8504 -0.1030
 5720TIP3    H138575   1.604   4.271   5.321  1.7849 -0.4896  2.1684
 5720TIP3    H238576   1.678   4.140   5.342  2.4906 -0.4379  0.1833
 5721TIP3   OH238577   2.003   4.303   0.074  0.2080  0.3461  0.3007
 5721TIP3    H138578   2.086   4.266   0.104  0.4446  0.4623 -0.1844
 5721TIP3    H238579   1.938   4.274   0.138  0.3130 -1.2319 -0.2700
 5722TIP3   OH238580   1.482   5.887  10.208 -0.3499  0.1462 -0.7760
 5722TIP3    H138581   1.501   5.842  10.125 -0.9489 -1.0622 -0.2751
 5722TIP3    H238582   1.545   5.850  10.270  1.4429  2.4621 -1.0796
 5723TIP3   OH238583   1.912   3.656  16.549 -0.2766  0.1541 -0.0925
 5723TIP3    H138584   1.941   3.593  16.615  0.9776  0.4554 -0.3348
 5723TIP3    H238585   1.924   3.741  16.591  0.4150  0.3425 -0.6658
 5724TIP3   OH238586   2.180   6.414   3.664  0.4558  0.3802  0.2835
 5724TIP3    H138587   2.190   6.343   3.600 -0.0880  0.8292 -0.3213
 5724TIP3    H238588   2.201   6.494   3.614 -1.4275  0.8820  0.2373
 5725TIP3   OH238589   6.159   4.727  10.646 -0.2434  0.4698  0.9001
 5725TIP3    H138590   6.125   4.816  10.645 -0.5052  0.4401 -1.9456
 5725TIP3    H238591   6.254   4.737  10.645 -0.2433  0.8612 -1.5184
 5726TIP3   OH238592   4.608   5.619  12.688 -0.2430 -0.0329 -0.1964
 5726TIP3    H138593   4.697   5.634  12.654 -0.0815 -1.4437 -0.4437
 5726TIP3    H238594   4.585   5.531  12.658 -2.2271  0.7753 -1.1804
 5727TIP3   OH238595   5.477   3.237  14.918 -0.3555  0.0673 -0.0651
 5727TIP3    H138596   5.470   3.193  14.833  1.1720 -0.7410  0.1710
 5727TIP3    H238597   5.401   3.293  14.923 -0.6969 -0.1829 -1.7982
 5728TIP3   OH238598   4.605   0.797   1.126  0.0037 -0.2465  0.1230
 5728TIP3    H138599   4.512   0.775   1.115  0.5858 -2.0479 -1.6712
 5728TIP3    H238600   4.650   0.750   1.056  2.5995 -1.5811  2.4848
 5729TIP3   OH238601   2.492   1.879   2.616  0.3049 -0.2409 -0.1502
 5729TIP3    H138602   2.571   1.931   2.625  0.4537 -0.2734 -1.1439
 5729TIP3    H238603   2.422   1.936   2.647  0.6931 -0.1405  0.5481
 5730TIP3   OH238604   5.284   4.641  14.338  0.0013 -0.4317 -0.4011
 5730TIP3    H138605   5.374   4.611  14.328  0.6672  1.9599 -3.5394
 5730TIP3    H238606   5.292   4.723  14.387 -0.4642 -0.2760 -0.5828
 5731TIP3   OH238607   4.819   2.619   5.901  0.0460 -0.1465  0.2040
 5731TIP3    H138608   4.839   2.710   5.878  0.5561 -0.3211 -0.0689
 5731TIP3    H238609   4.899   2.587   5.941  0.3975 -0.9121 -1.0478
 5732TIP3   OH238610   2.540   4.888   6.081  0.9013  0.2694 -0.1111
 5732TIP3    H138611   2.526   4.795   6.066 -2.6548  0.4825  0.9099
 5732TIP3    H238612   2.582   4.892   6.167 -0.3371 -0.4066  0.5515
 5733TIP3   OH238613   0.546   2.067  13.106  0.1168 -0.1074 -0.2401
 5733TIP3    H138614   0.640   2.073  13.116  0.0605  0.8203 -0.1247
 5733TIP3    H238615   0.529   1.975  13.086  1.0752 -0.2112 -0.6180
 5734TIP3   OH238616   3.015   6.443  12.430  0.0562  0.1287 -0.2061
 5734TIP3    H138617   3.040   6.531  12.457  1.8125 -0.1952 -0.6752
 5734TIP3    H238618   2.971   6.456  12.346 -0.9563  0.6622  0.3863
 5735TIP3   OH238619   2.279   4.085  10.781 -0.2240 -0.2720 -0.2139
 5735TIP3    H138620   2.255   4.093  10.688  0.6668  0.1476 -0.4213
 5735TIP3    H238621   2.196   4.065  10.825 -0.9078  0.7943 -0.9362
 5736TIP3   OH238622   4.380   4.190   5.302 -0.1268  0.2813  0.2637
 5736TIP3    H138623   4.366   4.098   5.325  0.9331  0.5905  2.4554
 5736TIP3    H238624   4.467   4.192   5.263 -1.0496  0.0802 -1.9114
 5737TIP3   OH238625   0.912   2.610  10.482 -0.2844 -0.1964  0.5811
 5737TIP3    H138626   0.940   2.702  10.480 -0.2578 -0.1704 -2.4267
 5737TIP3    H238627   0.836   2.610  10.539 -0.9091  1.9175 -0.1323
 5738TIP3   OH238628   2.494   5.217  16.254  0.4468  0.1033  0.1241
 5738TIP3    H138629   2.448   5.280  16.198 -0.7328  0.8672  1.8776
 5738TIP3    H238630   2.503   5.139  16.200 -3.2342 -0.2224 -0.2282
 5739TIP3   OH238631   6.045   3.774  10.703  1.1603 -0.1703 -0.0845
 5739TIP3    H138632   6.101   3.843  10.741 -0.2442  1.2728 -0.5052
 5739TIP3    H238633   6.091   3.693  10.722  2.1820  0.7626  1.7242
 5740TIP3   OH238634   1.283   0.020  10.948 -0.1186 -0.7704  0.0321
 5740TIP3    H138635   1.192   0.000  10.968  0.1563 -1.0020  1.0859
 5740TIP3    H238636   1.303  -0.033  10.871 -1.2476  0.2910 -1.0462
 5741TIP3   OH238637   4.842   6.086   1.557 -0.5005 -0.1821  0.9252
 5741TIP3    H138638   4.759   6.130   1.579  0.4518  1.0007  2.4000
 5741TIP3    H238639   4.904   6.121   1.621  1.7101  0.7464 -1.5421
 5742TIP3   OH238640   4.254   5.993   1.271  0.5763  0.0238 -0.5489
 5742TIP3    H138641   4.326   5.974   1.331 -0.0064 -1.0621 -0.1840
 5742TIP3    H238642   4.296   5.997   1.184  1.0291 -0.9252 -0.3803
 5743TIP3   OH238643   2.949   2.031  12.215  0.0437  0.1997 -0.1152
 5743TIP3    H138644   2.983   1.957  12.265  1.1313  2.3797  2.6231
 5743TIP3    H238645   2.930   2.098  12.281 -2.5049  1.8191 -2.2862
 5744TIP3   OH238646   6.607   3.765   1.186  0.1650  0.7569  0.1661
 5744TIP3    H138647   6.514   3.745   1.174  0.3718  0.6708 -1.6278
 5744TIP3    H238648   6.625   3.747   1.278 -0.8317 -2.4524 -0.1745
 5745TIP3   OH238649   1.296   6.711  12.630  0.4545 -0.0317 -0.2529
 5745TIP3    H138650   1.313   6.683  12.540 -0.5601  0.5951 -0.6568
 5745TIP3    H238651   1.375   6.759  12.655  0.4675  0.3994 -1.0685
 5746TIP3   OH238652   6.425   6.066   4.396 -0.7879  0.1898 -0.4141
 5746TIP3    H138653   6.406   6.141   4.341  1.8878 -0.8873 -3.0688
 5746TIP3    H238654   6.402   5.990   4.342 -2.4052 -1.0088  1.7795
 5747TIP3   OH238655   5.361   5.435  14.293 -0.0919 -0.0478  0.0608
 5747TIP3    H138656   5.434   5.437  14.231 -0.6316  0.6517 -0.5716
 5747TIP3    H238657   5.358   5.344  14.323 -0.3985 -0.6406 -1.6616
 5748TIP3   OH238658   0.889   2.194   2.147  0.3368  0.4713 -0.0270
 5748TIP3    H138659   0.843   2.178   2.064  0.2445 -0.7567  0.2472
 5748TIP3    H238660   0.906   2.107   2.183  1.0131  0.9662  0.9089
 5749TIP3   OH238661   1.619   1.443  14.294 -0.5230 -0.1794 -0.2911
 5749TIP3    H138662   1.593   1.450  14.386 -0.5693 -0.5773 -0.2711
 5749TIP3    H238663   1.539   1.418  14.248 -0.6099  0.4982 -0.5133
 5750TIP3   OH238664   4.385   4.773   4.497 -0.8974 -0.4221  0.1054
 5750TIP3    H138665   4.290   4.776   4.501 -0.9423  0.7242 -1.0701
 5750TIP3    H238666   4.406   4.681   4.484 -1.7975 -0.7861  1.1756
 5751TIP3   OH238667   3.817   3.279   2.617 -0.1810 -0.3835 -0.3861
 5751TIP3    H138668   3.878   3.205   2.609 -0.4917 -0.5691 -1.1166
 5751TIP3    H238669   3.839   3.318   2.702  0.8077 -0.5765 -0.5332
 5752TIP3   OH238670   2.068   6.093   1.818  0.1218  0.6168  0.6411
 5752TIP3    H138671   2.060   6.042   1.738 -2.5748  0.6563  0.8011
 5752TIP3    H238672   2.153   6.068   1.854  1.4471  0.6426 -2.1931
 5753TIP3   OH238673   0.505   6.823  15.131 -0.1109  0.3389 -0.5644
 5753TIP3    H138674   0.511   6.918  15.137  0.4087  0.4009 -1.7636
 5753TIP3    H238675   0.553   6.801  15.051  1.4674 -1.0947  0.6834
 5754TIP3   OH238676   5.543   2.377  14.143 -0.3652 -0.4336  0.1761
 5754TIP3    H138677   5.500   2.420  14.216 -0.8029  0.6681 -0.7014
 5754TIP3    H238678   5.526   2.434  14.068 -0.3516 -1.7751 -0.8904
 5755TIP3   OH238679   2.576   6.034   6.040 -0.4598 -0.3817 -0.5956
 5755TIP3    H138680   2.578   5.939   6.030 -2.1623 -1.0164  3.1606
 5755TIP3    H238681   2.642   6.053   6.106 -1.1216  0.8265 -0.2509
 5756TIP3   OH238682   1.021   4.465   6.164 -0.3447 -0.7338 -0.1014
 5756TIP3    H138683   0.978   4.422   6.237 -0.6443  1.7268  1.3023
 5756TIP3    H238684   1.040   4.554   6.196  1.9798 -0.3849 -2.0868
 5757TIP3   OH238685   5.490   3.498  14.097  0.2898  0.0086 -0.2270
 5757TIP3    H138686   5.431   3.532  14.164  1.5130  0.4564  0.6404
 5757TIP3    H238687   5.576   3.494  14.139  0.7126 -1.6355 -1.1288
 5758TIP3   OH238688   2.545   0.621  13.581 -0.0336 -0.3642  0.1581
 5758TIP3    H138689   2.466   0.654  13.624 -0.3138 -0.2175 -0.4613
 5758TIP3    H238690   2.607   0.605  13.653 -0.7187 -0.7389  0.6766
 5759TIP3   OH238691   1.299   6.605  12.364 -0.0783 -0.7029  0.0075
 5759TIP3    H138692   1.261   6.688  12.336 -0.6731 -1.0618 -0.2592
 5759TIP3    H238693   1.228   6.542  12.354 -0.3350 -0.8557  2.3011
 5760TIP3   OH238694   1.648   5.732   1.370  0.1174 -0.0112 -0.1092
 5760TIP3    H138695   1.731   5.698   1.336  0.6806  2.1447 -1.0780
 5760TIP3    H238696   1.662   5.738   1.465  0.3725 -1.4058 -0.0436
 5761TIP3   OH238697   3.788   0.390   4.288 -0.5724  0.5424 -0.0807
 5761TIP3    H138698   3.869   0.347   4.318 -0.0940  0.2690 -1.6765
 5761TIP3    H238699   3.812   0.430   4.204 -1.5015  2.4241  0.5039
 5762TIP3   OH238700   6.548   1.907  12.561 -0.5824 -0.4237 -0.0116
 5762TIP3    H138701   6.634   1.901  12.519 -1.0055  1.4886 -1.3116
 5762TIP3    H238702   6.542   1.829  12.616  2.7649  0.3093  1.6195
 5763TIP3   OH238703   5.107   6.418  15.349 -0.6091 -0.0102  0.1490
 5763TIP3    H138704   5.147   6.479  15.411  1.1576 -0.6174 -0.3368
 5763TIP3    H238705   5.073   6.474  15.280 -2.0625  0.6315  1.3325
 5764TIP3   OH238706   3.736   2.274  16.194  0.0674 -0.1786  0.4632
 5764TIP3    H138707   3.688   2.306  16.118  0.2998  2.5364  1.3599
 5764TIP3    H238708   3.687   2.306  16.269  1.6672  0.1470  1.4196
 5765TIP3   OH238709   3.193   3.582  16.915  0.1197  0.4711 -0.0720
 5765TIP3    H138710   3.286   3.603  16.924  0.2790 -0.2512  0.0109
 5765TIP3    H238711   3.148   3.649  16.967  0.6343  0.3635  0.5164
 5766TIP3   OH238712   3.478   3.012  14.256 -0.7729  0.9710  0.5651
 5766TIP3    H138713   3.387   3.007  14.226 -0.8430  0.3137  0.8817
 5766TIP3    H238714   3.512   3.092  14.214 -1.2459  0.7637 -0.2356
 5767TIP3   OH238715   4.218   3.383   4.919  0.3370 -0.3406  0.1794
 5767TIP3    H138716   4.229   3.460   4.975 -1.3180  0.0984 -0.0349
 5767TIP3    H238717   4.125   3.360   4.929  0.5280 -1.5672 -0.7109
 5768TIP3   OH238718   6.407   4.074   4.376  0.2914  0.1465  0.3358
 5768TIP3    H138719   6.342   4.138   4.349  1.6473  0.8028 -1.5928
 5768TIP3    H238720   6.471   4.073   4.305  1.9485 -1.0849  1.7514
 5769TIP3   OH238721   3.586   1.403  13.072 -0.8953  0.9742 -0.4256
 5769TIP3    H138722   3.601   1.438  12.984 -0.8107 -0.2220 -0.9108
 5769TIP3    H238723   3.672   1.375  13.101 -0.3024  4.1640  1.3691
 5770TIP3   OH238724   4.887   3.226  14.512  0.1123  0.1668 -0.0022
 5770TIP3    H138725   4.953   3.187  14.569 -0.1548  0.5672  0.5893
 5770TIP3    H238726   4.813   3.165  14.517 -0.4213  0.8888  1.1670
 5771TIP3   OH238727   2.460   6.281   4.127  0.0333  0.0430 -0.5103
 5771TIP3    H138728   2.379   6.230   4.140 -1.5174  2.5617  0.3809
 5771TIP3    H238729   2.530   6.217   4.137 -1.7548 -1.7983  1.3036
 5772TIP3   OH238730   2.444   4.033   2.518 -1.1393  0.2497  0.2775
 5772TIP3    H138731   2.469   4.126   2.513 -0.4678  0.1389  1.1732
 5772TIP3    H238732   2.403   4.014   2.434  0.9036  0.7372 -0.8948
 5773TIP3   OH238733   4.232   2.213  12.395 -0.1917 -0.7171 -0.0428
 5773TIP3    H138734   4.281   2.289  12.364  1.5027 -0.9563  1.8626
 5773TIP3    H238735   4.265   2.140  12.342 -0.0507 -0.5183 -0.2294
 5774TIP3   OH238736   5.834   4.267  12.781 -0.4577  0.3062  0.2275
 5774TIP3    H138737   5.882   4.225  12.852 -0.1496  3.0338  1.7736
 5774TIP3    H238738   5.754   4.216  12.771 -0.3337 -0.3643  2.3079
 5775TIP3   OH238739   5.901   0.999  16.240 -0.2071 -0.0041  0.4277
 5775TIP3    H138740   5.946   0.987  16.324  1.4350  0.4934 -0.3398
 5775TIP3    H238741   5.849   1.078  16.253  0.4959  0.4123  0.8091
 5776TIP3   OH238742   1.875   3.400  17.014 -0.3033 -0.1015  0.2545
 5776TIP3    H138743   1.866   3.333  17.082 -1.0147 -0.8322 -0.5348
 5776TIP3    H238744   1.969   3.412  17.005 -0.1408 -1.4288  0.0076
 5777TIP3   OH238745   6.382   6.175  10.294  0.0578  0.6538 -0.0357
 5777TIP3    H138746   6.361   6.261  10.332 -1.0143  0.8757 -1.0637
 5777TIP3    H238747   6.307   6.155  10.238  1.3337  0.1473 -1.6681
 5778TIP3   OH238748   4.636   3.179   3.509 -0.5750 -0.3004  0.8514
 5778TIP3    H138749   4.649   3.228   3.428  0.0739  0.0909  1.1911
 5778TIP3    H238750   4.542   3.186   3.525 -0.7683 -0.6369 -0.0158
 5779TIP3   OH238751   4.682   4.799  14.818 -0.5786 -0.3045 -0.4320
 5779TIP3    H138752   4.662   4.871  14.757  2.8826  1.7871  0.6161
 5779TIP3    H238753   4.641   4.826  14.900 -2.1120 -1.3202 -0.8030
 5780TIP3   OH238754   3.892   0.992   0.766 -0.0456  0.4490  0.5555
 5780TIP3    H138755   3.807   0.953   0.783  1.0576 -1.9263  0.9350
 5780TIP3    H238756   3.941   0.981   0.848  1.3140 -0.1733 -0.2949
 5781TIP3   OH238757   3.227   4.728  15.338  0.0851 -0.3845 -0.5658
 5781TIP3    H138758   3.154   4.742  15.278 -1.2232  0.4204  1.1237
 5781TIP3    H238759   3.212   4.640  15.374 -0.7635  0.2369  0.6582
 5782TIP3   OH238760   3.541   3.298   2.489  0.3599 -0.0750 -0.2118
 5782TIP3    H138761   3.488   3.252   2.554 -0.8287 -0.4859 -1.4189
 5782TIP3    H238762   3.628   3.305   2.529 -0.2304 -0.6517  1.2422
 5783TIP3   OH238763   5.084   3.034  14.633 -0.6185 -0.8424 -0.3562
 5783TIP3    H138764   5.026   2.973  14.677  0.1163 -0.3392  1.3846
 5783TIP3    H238765   5.172   3.003  14.652 -0.2539  0.1999 -0.2611
 5784TIP3   OH238766   5.913   2.800  14.045  0.2775 -0.0526  0.4452
 5784TIP3    H138767   5.995   2.836  14.079 -0.1202  0.3589  0.9867
 5784TIP3    H238768   5.938   2.717  14.005  1.5326  1.5600 -2.4142
 5785TIP3   OH238769   3.815   6.454   1.500  0.1103  0.0600 -0.0406
 5785TIP3    H138770   3.815   6.501   1.584 -2.8508 -0.1613  0.1819
 5785TIP3    H238771   3.735   6.482   1.457  0.7604 -1.0725 -2.1299
 5786TIP3   OH238772   4.904   2.274  14.128 -0.7107  0.3106 -0.1924
 5786TIP3    H138773   4.947   2.287  14.043 -0.3928  1.6419  0.1447
 5786TIP3    H238774   4.839   2.206  14.112  0.0709 -0.2299 -1.2375
 5787TIP3   OH238775   2.137   5.359  13.410  0.5444 -0.6975 -0.2748
 5787TIP3    H138776   2.118   5.415  13.335  1.0316 -0.0369  0.0837
 5787TIP3    H238777   2.117   5.271  13.379 -1.3598 -0.2355 -0.4761
 5788TIP3   OH238778   3.230   5.092   3.903  0.1062  0.1973  0.1794
 5788TIP3    H138779   3.155   5.041   3.934 -0.2064  1.4192  1.5395
 5788TIP3    H238780   3.289   5.097   3.978  0.5961  0.9844 -0.2402
 5789TIP3   OH238781   3.891   2.784  14.836  0.8883 -0.1600  0.1383
 5789TIP3    H138782   3.809   2.821  14.870  0.9668  0.2650 -0.1190
 5789TIP3    H238783   3.891   2.694  14.866  0.6173  0.0116  0.6662
 5790TIP3   OH238784   3.433   2.374  15.309  0.0763 -0.6404 -0.0494
 5790TIP3    H138785   3.466   2.452  15.265  0.5907 -0.2612  0.9698
 5790TIP3    H238786   3.352   2.402  15.351 -0.7553 -1.1652 -1.2368
 5791TIP3   OH238787   3.467   5.989   1.638  0.1400  0.3682 -0.3905
 5791TIP3    H138788   3.486   5.958   1.727  0.2733  1.0707 -0.1662
 5791TIP3    H238789   3.553   6.002   1.598  0.2117  3.2746  0.5294
 5792TIP3   OH238790   2.582   1.909  12.799 -0.0609  0.3983  0.3584
 5792TIP3    H138791   2.514   1.847  12.773  1.7156 -1.3028 -0.4942
 5792TIP3    H238792   2.580   1.976  12.731  0.6192 -0.8957 -0.9962
 5793TIP3   OH238793   6.454   3.400   1.372 -0.1253  0.1826 -0.0358
 5793TIP3    H138794   6.460   3.383   1.278  3.4325 -0.7842  0.2357
 5793TIP3    H238795   6.489   3.488   1.383 -1.3213  0.6291  0.3542
 5794TIP3   OH238796   1.131   1.280   4.814 -0.7540  0.2968  0.0350
 5794TIP3    H138797   1.148   1.335   4.890  1.5733 -1.1825  0.6816
 5794TIP3    H238798   1.208   1.292   4.758 -3.0552  2.6265 -3.0384
 5795TIP3   OH238799   2.307   2.133   1.801 -0.1204 -1.0387 -0.2211
 5795TIP3    H138800   2.228   2.169   1.842  2.1443  4.5620  0.0802
 5795TIP3    H238801   2.280   2.114   1.711 -1.9671  0.6149 -0.1014
 5796TIP3   OH238802   5.256   2.343   1.511  0.1551  0.3496 -0.1087
 5796TIP3    H138803   5.274   2.316   1.421 -0.8170 -0.0179 -0.1967
 5796TIP3    H238804   5.172   2.303   1.533  0.3357  0.4962  0.9397
 5797TIP3   OH238805   4.857   4.211   5.900 -0.1239  0.3359  0.2241
 5797TIP3    H138806   4.844   4.119   5.880  1.1964  0.5556 -2.0634
 5797TIP3    H238807   4.877   4.214   5.993 -1.0408 -1.5659  0.5111
 5798TIP3   OH238808   5.019   3.400  15.974  0.2714  0.4920 -0.5125
 5798TIP3    H138809   5.052   3.481  16.012 -2.4551  1.4624  0.0290
 5798TIP3    H238810   5.053   3.399  15.885  0.2811  2.2975 -0.5672
 5799TIP3   OH238811   2.425   1.138   5.624 -0.5720 -0.3759  0.2552
 5799TIP3    H138812   2.370   1.133   5.702  0.1636 -0.0766  0.8037
 5799TIP3    H238813   2.387   1.074   5.564 -1.2421 -0.4978  0.7956
 5800TIP3   OH238814   0.110   3.206  10.197  0.0875 -0.1889  0.3073
 5800TIP3    H138815   0.140   3.131  10.144 -1.0124  0.9537 -2.0879
 5800TIP3    H238816   0.184   3.267  10.195 -0.5962  0.6811 -1.7192
 5801TIP3   OH238817   2.693   4.041  16.267  0.0869 -0.4641 -0.5839
 5801TIP3    H138818   2.717   3.955  16.232  0.5306  0.2340 -2.0316
 5801TIP3    H238819   2.747   4.103  16.218 -0.2323  0.6535  0.4456
 5802TIP3   OH238820   2.967   4.209  14.604 -0.1510 -0.1760 -0.3078
 5802TIP3    H138821   2.949   4.170  14.518  1.2784  0.0482 -0.7343
 5802TIP3    H238822   2.985   4.301  14.585  2.0093 -0.4942 -0.0464
 5803TIP3   OH238823   1.342   5.405  14.132  0.0944 -0.8974  0.3246
 5803TIP3    H138824   1.419   5.394  14.075 -0.9110 -1.5551 -0.9575
 5803TIP3    H238825   1.271   5.360  14.085 -1.7222  1.9608  0.1377
 5804TIP3   OH238826   1.274   6.789   1.846  0.7397 -0.2628 -0.0209
 5804TIP3    H138827   1.277   6.724   1.776 -0.5349  0.3207 -0.6630
 5804TIP3    H238828   1.275   6.873   1.801  0.5407  0.1338  0.6964
 5805TIP3   OH238829   1.674   3.591   4.204 -0.5028  0.3706 -0.1278
 5805TIP3    H138830   1.735   3.596   4.130 -0.3160 -0.3078 -0.0278
 5805TIP3    H238831   1.730   3.575   4.280 -0.8892 -1.6681 -0.2269
 5806TIP3   OH238832   5.418   0.252  13.457 -0.5354 -0.3308 -0.2116
 5806TIP3    H138833   5.370   0.278  13.536  1.6064 -0.8258  1.3794
 5806TIP3    H238834   5.444   0.335  13.417 -0.0978 -0.0333  0.6500
 5807TIP3   OH238835   3.780   0.719  12.715  0.6105  0.3836  0.5134
 5807TIP3    H138836   3.837   0.784  12.674  0.6065  0.2125  0.2337
 5807TIP3    H238837   3.728   0.769  12.778  0.9166  0.5742  0.6142
 5808TIP3   OH238838   5.941   3.289   0.435 -0.1227 -0.0877  0.0156
 5808TIP3    H138839   6.015   3.258   0.488 -1.6844 -1.0746  1.7633
 5808TIP3    H238840   5.930   3.222   0.368 -1.0299 -1.3835  1.3879
 5809TIP3   OH238841   2.259   4.112  15.046  0.4541  0.2256  0.2309
 5809TIP3    H138842   2.183   4.054  15.053  0.2966  0.3723 -0.2774
 5809TIP3    H238843   2.222   4.199  15.033  0.6532  0.6363  2.0847
 5810TIP3   OH238844   3.027   6.154  15.857 -0.4381 -0.4075  0.3333
 5810TIP3    H138845   2.961   6.210  15.816  1.6760  0.8309 -1.6223
 5810TIP3    H238846   3.020   6.172  15.951 -1.9023  0.7249  0.0310
 5811TIP3   OH238847   4.281   0.362   1.639  0.5208  0.3928 -0.5199
 5811TIP3    H138848   4.288   0.275   1.599 -2.3021  0.5087 -1.4518
 5811TIP3    H238849   4.260   0.343   1.731  1.7540  0.1483 -0.2591
 5812TIP3   OH238850   4.871   3.214  14.978 -0.1226 -0.1800  0.1289
 5812TIP3    H138851   4.793   3.252  14.937  0.6300 -0.0810 -1.2862
 5812TIP3    H238852   4.944   3.251  14.929  0.8249 -0.2923  1.4157
 5813TIP3   OH238853   3.805   1.676  16.169  0.1464  0.1906 -0.2593
 5813TIP3    H138854   3.873   1.697  16.105  0.8018  1.2347  0.7422
 5813TIP3    H238855   3.725   1.665  16.117  0.8858 -0.1491 -1.3574
 5814TIP3   OH238856   0.312   0.416   4.612 -0.4799  0.7247 -0.5145
 5814TIP3    H138857   0.307   0.334   4.562  0.0545  0.1965  0.2680
 5814TIP3    H238858   0.377   0.398   4.681 -2.2461  0.9000  1.2883
 5815TIP3   OH238859   2.126   1.971   4.128  0.2529 -0.6124 -0.3159
 5815TIP3    H138860   2.091   1.928   4.206  0.0193 -1.4210 -0.8508
 5815TIP3    H238861   2.062   2.039   4.106  0.0690 -0.7136 -0.0879
 5816TIP3   OH238862   1.690   0.773  13.189 -0.3466  0.0030  0.0475
 5816TIP3    H138863   1.616   0.817  13.149  0.6759 -0.0060 -1.9569
 5816TIP3    H238864   1.702   0.693  13.138  2.6423  1.2683 -1.4911
 5817TIP3   OH238865   5.007   4.846   1.218 -0.0667  0.1487  0.5556
 5817TIP3    H138866   4.930   4.838   1.274 -0.4528 -2.1901 -0.1717
 5817TIP3    H238867   5.059   4.768   1.238  1.4010  0.9410 -0.0194
 5818TIP3   OH238868   1.531   5.750  16.221 -0.6610 -0.3352 -0.5629
 5818TIP3    H138869   1.613   5.794  16.196 -0.8318 -0.1706 -0.8426
 5818TIP3    H238870   1.533   5.748  16.317 -0.3533 -0.2856 -0.5667
 5819TIP3   OH238871   3.283   4.846   4.224 -0.8447 -0.4876  0.2564
 5819TIP3    H138872   3.258   4.884   4.308 -0.0442  1.8075 -0.4746
 5819TIP3    H238873   3.291   4.752   4.241 -0.4863 -0.0537  2.7817
 5820TIP3   OH238874   1.210   1.007   2.594  0.3052  0.6958 -0.0823
 5820TIP3    H138875   1.277   1.025   2.660  0.7164 -1.6240  0.2322
 5820TIP3    H238876   1.260   0.981   2.516 -0.2027  0.4596 -0.3331
 5821TIP3   OH238877   4.614   2.309  16.814  0.0302 -0.1362 -0.0803
 5821TIP3    H138878   4.693   2.306  16.761  1.6093  1.4947  1.9628
 5821TIP3    H238879   4.624   2.237  16.877  0.9812  1.2319  1.4383
 5822TIP3   OH238880   2.140   2.526   2.690  0.3066  0.0018  0.4671
 5822TIP3    H138881   2.169   2.533   2.599 -0.5921 -4.3493 -0.3609
 5822TIP3    H238882   2.221   2.520   2.741  0.8218  2.6622  0.0982
 5823TIP3   OH238883   3.469   2.639  13.257  0.3602  0.2298  0.0269
 5823TIP3    H138884   3.562   2.651  13.278  0.4290 -2.1062  1.3963
 5823TIP3    H238885   3.422   2.691  13.322  0.6905  0.4773  0.0695
 5824TIP3   OH238886   1.963   6.341  10.930  0.4332 -0.0946 -0.6767
 5824TIP3    H138887   1.936   6.368  11.018  1.9804 -1.2186  0.1903
 5824TIP3    H238888   1.930   6.252  10.922 -0.1156  0.1668 -1.4553
 5825TIP3   OH238889   1.061   6.819   0.096  0.0275  0.3802  0.3234
 5825TIP3    H138890   1.041   6.729   0.123 -0.4983  0.2593 -0.4312
 5825TIP3    H238891   1.150   6.815   0.061  0.3973  0.3717  1.2274
 5826TIP3   OH238892   5.446   4.409   1.856  0.1292  0.0969 -0.3456
 5826TIP3    H138893   5.387   4.444   1.789  0.1889  0.6305 -0.1277
 5826TIP3    H238894   5.508   4.480   1.873 -0.1622  0.1475  0.6027
 5827TIP3   OH238895   1.905   1.717   4.576 -0.0855 -0.2652  0.1077
 5827TIP3    H138896   1.859   1.644   4.616  1.1855  0.1707  2.5719
 5827TIP3    H238897   1.913   1.782   4.646 -1.8564  2.6836 -2.1611
 5828TIP3   OH238898   6.129   5.684   4.146 -0.3595 -0.0177  0.6897
 5828TIP3    H138899   6.069   5.671   4.073 -0.3669 -0.8535  0.8291
 5828TIP3    H238900   6.075   5.722   4.215 -0.4815  0.2416  0.4503
 5829TIP3   OH238901   6.033   3.993   2.577 -0.1666 -0.2845 -0.5994
 5829TIP3    H138902   5.946   4.021   2.605  0.2158 -0.5177  0.9187
 5829TIP3    H238903   6.086   3.996   2.657  1.2226 -0.1414 -1.4917
 5830TIP3   OH238904   2.862   2.119  15.502  0.0276  0.9352 -0.0279
 5830TIP3    H138905   2.776   2.162  15.499  0.4209  1.7027 -0.8286
 5830TIP3    H238906   2.895   2.125  15.412 -0.4499 -2.2635 -0.5040
 5831TIP3   OH238907   6.657   0.023  14.079 -0.0642 -0.2157 -0.1413
 5831TIP3    H138908   6.581   0.076  14.105 -1.5723 -1.8414 -0.9973
 5831TIP3    H238909   6.649   0.015  13.984  0.9019 -0.8500 -0.1790
 5832TIP3   OH238910   2.112   5.213  15.013 -0.1257 -0.5822  0.2211
 5832TIP3    H138911   2.185   5.216  15.075 -1.2653  1.5276  1.5807
 5832TIP3    H238912   2.138   5.271  14.942  0.4982 -1.7607 -0.5628
 5833TIP3   OH238913   3.777   5.704   1.617  0.0766 -0.1325 -0.5893
 5833TIP3    H138914   3.791   5.798   1.622  0.4480 -0.2143 -0.0721
 5833TIP3    H238915   3.772   5.686   1.523 -0.5044  0.4698 -0.6809
 5834TIP3   OH238916   5.333   5.620   5.164 -0.1548 -0.4765  0.5585
 5834TIP3    H138917   5.247   5.639   5.200 -0.2420 -0.7985  0.5209
 5834TIP3    H238918   5.357   5.536   5.201  0.4646 -0.0525  1.1458
 5835TIP3   OH238919   5.467   2.725   4.389 -0.1865  0.1451 -0.6662
 5835TIP3    H138920   5.375   2.739   4.412 -0.3442 -0.9880 -0.5547
 5835TIP3    H238921   5.516   2.779   4.450 -0.8266  4.0965 -3.2269
 5836TIP3   OH238922   2.707   1.363  11.251 -0.6095  0.1258 -0.3891
 5836TIP3    H138923   2.796   1.395  11.237 -0.8347  0.1674 -1.8297
 5836TIP3    H238924   2.717   1.268  11.260 -0.5555 -0.0318 -1.9748
 5837TIP3   OH238925   1.839   4.832   4.607  0.0672 -0.2186  0.2765
 5837TIP3    H138926   1.767   4.892   4.588  0.9448  1.0224  0.7716
 5837TIP3    H238927   1.796   4.747   4.616 -0.9669 -0.1065 -2.5502
 5838TIP3   OH238928   4.230   0.963  15.350  0.4007  0.6018 -0.6005
 5838TIP3    H138929   4.274   0.887  15.388  0.9062  0.3275 -1.6825
 5838TIP3    H238930   4.180   1.001  15.422 -0.8875 -1.4863 -0.2926
 5839TIP3   OH238931   0.021   2.797  12.474  0.3457 -0.4800 -0.0615
 5839TIP3    H138932  -0.031   2.739  12.529  0.3259  0.6012  1.0864
 5839TIP3    H238933   0.066   2.855  12.535  0.1870  0.8630 -1.1776
 5840TIP3   OH238934   2.065   0.322   1.216  1.1966 -0.0606  0.3359
 5840TIP3    H138935   2.126   0.360   1.279  1.3727  1.1808 -0.5574
 5840TIP3    H238936   2.088   0.229   1.212 -0.4327 -0.8038  3.9780
 5841TIP3   OH238937   2.864   4.019  15.585  0.2782 -0.1480  0.1830
 5841TIP3    H138938   2.875   4.109  15.556 -0.7791  0.2204  0.8837
 5841TIP3    H238939   2.772   4.012  15.610  0.1952 -1.5969 -0.4451
 5842TIP3   OH238940   4.820   4.825   1.417 -0.1963  0.1560  0.3043
 5842TIP3    H138941   4.852   4.842   1.505  0.0725 -1.0922  0.4733
 5842TIP3    H238942   4.726   4.811   1.427 -0.3418  1.0414  0.2287
 5843TIP3   OH238943   0.343   5.279   1.712 -0.2689  0.7609 -0.3989
 5843TIP3    H138944   0.397   5.283   1.791  1.2444  1.0311 -1.4158
 5843TIP3    H238945   0.291   5.199   1.724  1.1616 -0.1337  0.1188
 5844TIP3   OH238946   0.019   2.693   1.613 -0.7170  0.3552  0.3944
 5844TIP3    H138947   0.059   2.780   1.607  0.5746 -0.2148  0.3685
 5844TIP3    H238948  -0.054   2.704   1.673  0.2546  1.1853  1.4680
 5845TIP3   OH238949   6.142   6.568   0.613 -0.6804  0.0726  0.0538
 5845TIP3    H138950   6.137   6.663   0.625  0.2314  0.0943  0.3284
 5845TIP3    H238951   6.171   6.535   0.698 -1.8137 -0.5460  0.2200
 5846TIP3   OH238952   2.994   2.623  15.777  0.0231  0.6354 -0.4701
 5846TIP3    H138953   2.947   2.641  15.858 -1.0752  1.3028 -1.2174
 5846TIP3    H238954   2.950   2.546  15.741  1.6584 -0.7514  0.4109
 5847TIP3   OH238955   3.815   5.575   5.986  0.1954  0.0756 -0.0793
 5847TIP3    H138956   3.762   5.630   6.044 -0.7419 -1.2727  0.3768
 5847TIP3    H238957   3.789   5.601   5.898  1.2744  1.7941  0.0528
 5848TIP3   OH238958   0.811   3.818  16.931 -0.1277 -0.0603 -0.3853
 5848TIP3    H138959   0.901   3.826  16.901 -0.0396  4.1454  0.4431
 5848TIP3    H238960   0.818   3.781  17.019  1.0928  2.2043  0.5452
 5849TIP3   OH238961   2.532   2.378   4.119  0.2594  0.0686  0.0663
 5849TIP3    H138962   2.589   2.437   4.169  1.1405 -0.8373  0.1438
 5849TIP3    H238963   2.517   2.304   4.177  0.3919 -0.4847 -0.5886
 5850TIP3   OH238964   4.163   1.129  17.004 -0.5155 -0.8045 -0.1715
 5850TIP3    H138965   4.251   1.165  17.017  0.1269 -1.1659 -2.8544
 5850TIP3    H238966   4.178   1.040  16.971 -1.7428 -0.3216 -2.2594
 5851TIP3   OH238967   5.895   6.142  16.976 -0.6014  0.2146  0.4098
 5851TIP3    H138968   5.804   6.128  16.950 -1.0465  0.6968  1.6413
 5851TIP3    H238969   5.920   6.059  17.016 -0.4492  0.0368 -0.0463
 5852TIP3   OH238970   1.837   1.266  12.564  0.1846  0.0918  0.6982
 5852TIP3    H138971   1.834   1.360  12.576 -0.0770  0.3745 -1.3117
 5852TIP3    H238972   1.843   1.231  12.653 -1.9761  1.8886  1.6513
 5853TIP3   OH238973   6.707   2.902   1.797  0.0279  0.0208 -0.0512
 5853TIP3    H138974   6.686   2.874   1.886  0.2454  1.2194  0.3916
 5853TIP3    H238975   6.756   2.983   1.807  1.2520 -0.5245 -1.2275
 5854TIP3   OH238976   1.494   0.319  15.140  0.0727  0.2221 -0.4224
 5854TIP3    H138977   1.496   0.224  15.135  1.1410  0.2295 -0.2913
 5854TIP3    H238978   1.586   0.346  15.137 -0.2651  1.3475 -2.2014
 5855TIP3   OH238979   0.846   2.359  11.388 -0.1510  0.6132  0.3884
 5855TIP3    H138980   0.884   2.415  11.456  1.0446 -0.1466  0.3774
 5855TIP3    H238981   0.905   2.284  11.383 -1.6337 -0.6001  0.3048
 5856TIP3   OH238982   5.167   2.380   5.807 -0.1675  0.0518  0.4060
 5856TIP3    H138983   5.155   2.298   5.854 -0.0783 -1.3157 -1.8367
 5856TIP3    H238984   5.098   2.381   5.741  2.0905 -0.1838 -2.1634
 5857TIP3   OH238985   5.098   0.443  11.157  0.0634 -0.4213 -0.1319
 5857TIP3    H138986   5.178   0.393  11.177  0.5672  0.4321  0.0517
 5857TIP3    H238987   5.080   0.423  11.066  1.4655  0.6530 -0.6883
 5858TIP3   OH238988   2.173   3.490   0.837  0.2783  0.1082  0.1644
 5858TIP3    H138989   2.267   3.497   0.852  0.6456 -1.0063 -1.4532
 5858TIP3    H238990   2.155   3.397   0.842 -0.9416  0.3811  1.4261
 5859TIP3   OH238991   6.379   1.882   5.527 -0.0836 -0.4330 -0.0807
 5859TIP3    H138992   6.432   1.900   5.604  1.7096 -0.7695 -1.1747
 5859TIP3    H238993   6.341   1.796   5.543  0.0106 -0.3562  0.5700
 5860TIP3   OH238994   6.641   2.534   4.064 -0.1654 -0.0042  0.4137
 5860TIP3    H138995   6.703   2.561   4.132 -0.2074 -1.0211  0.8719
 5860TIP3    H238996   6.566   2.592   4.075  1.1424  2.0709 -0.9133
 5861TIP3   OH238997   3.964   4.729  15.904  0.0421  0.2183 -0.3896
 5861TIP3    H138998   3.932   4.819  15.906  1.1805  0.6228  0.6430
 5861TIP3    H238999   3.958   4.700  15.995  1.8203  0.0519 -0.2864
 5862TIP3   OH239000   4.429   0.544  14.654  0.4098 -0.0139 -0.1184
 5862TIP3    H139001   4.376   0.467  14.634 -1.1677  1.4234 -1.8811
 5862TIP3    H239002   4.499   0.542  14.590  0.1969  0.1724 -0.3573
 5863TIP3   OH239003   3.238   2.279  14.960  0.1834  0.0347  0.9198
 5863TIP3    H139004   3.222   2.341  15.030 -2.3875  0.6948 -0.1229
 5863TIP3    H239005   3.177   2.207  14.978  0.1068 -0.1813 -0.1459
 5864TIP3   OH239006   6.277   1.501  12.218 -0.2827  0.2070  0.0456
 5864TIP3    H139007   6.284   1.588  12.178  0.7590  0.5542  0.9490
 5864TIP3    H239008   6.310   1.512  12.307 -1.9058 -0.7047  0.8141
 5865TIP3   OH239009   4.590   0.404   4.969 -0.4531 -0.2893  0.1051
 5865TIP3    H139010   4.528   0.337   4.940 -0.7184  0.4126 -0.9933
 5865TIP3    H239011   4.555   0.486   4.936  0.4919  0.2595  0.4181
 5866TIP3   OH239012   4.461   0.922   5.444  0.1146  0.2100 -0.1801
 5866TIP3    H139013   4.554   0.901   5.442 -0.0621 -0.9891  1.4455
 5866TIP3    H239014   4.422   0.867   5.376  0.5336  0.3527 -0.5338
 5867TIP3   OH239015   4.336   3.801  12.407  0.1020 -0.0466 -0.4510
 5867TIP3    H139016   4.275   3.835  12.472  0.5193  3.5511 -1.6991
 5867TIP3    H239017   4.417   3.785  12.455 -0.0993  0.9332  0.2447
 5868TIP3   OH239018   5.093   1.611   3.581  0.6194 -0.0106 -0.4694
 5868TIP3    H139019   5.143   1.686   3.614  0.7927 -0.1085 -0.5092
 5868TIP3    H239020   5.008   1.618   3.624  1.1572 -0.6773  0.7577
 5869TIP3   OH239021   4.520   0.161  10.971  0.3656 -0.2961 -0.4977
 5869TIP3    H139022   4.543   0.111  11.050  0.4251 -0.3875 -0.5724
 5869TIP3    H239023   4.467   0.234  11.003 -1.9603 -1.8218 -0.6126
 5870TIP3   OH239024   4.284   1.945   6.368  0.0390  0.0062  0.3543
 5870TIP3    H139025   4.224   2.002   6.320 -1.9208 -2.5975 -0.5060
 5870TIP3    H239026   4.367   1.953   6.322 -0.7063  0.6938 -0.9255
 5871TIP3   OH239027   4.222   0.714   1.454  0.4267  0.4323 -0.6322
 5871TIP3    H139028   4.179   0.630   1.467  1.0237  0.5560  3.2849
 5871TIP3    H239029   4.306   0.692   1.413 -0.1062 -0.6853 -1.1488
 5872TIP3   OH239030   4.950   0.568  16.454  0.1142  0.4853 -0.0946
 5872TIP3    H139031   4.904   0.648  16.476  0.5828  0.7520 -0.0690
 5872TIP3    H239032   4.947   0.564  16.358  0.5068  0.7894 -0.1226
 5873TIP3   OH239033   4.238   4.083   0.045  0.1394 -0.1436 -0.1571
 5873TIP3    H139034   4.316   4.037   0.074 -0.7772 -0.3724  2.1968
 5873TIP3    H239035   4.252   4.173   0.072  0.4310  0.2604 -1.5885
 5874TIP3   OH239036   4.603   0.531  14.453  0.0547 -0.7966  0.0214
 5874TIP3    H139037   4.614   0.596  14.384 -0.4796  0.7499  1.3134
 5874TIP3    H239038   4.692   0.506  14.476  0.4878  1.6230  1.3671
 5875TIP3   OH239039   2.366   4.632  13.003  0.0399  0.2343  0.3337
 5875TIP3    H139040   2.457   4.603  13.006  1.1854  3.4600  1.0283
 5875TIP3    H239041   2.346   4.639  12.909  0.6570 -0.1149  0.1722
 5876TIP3   OH239042   3.222   0.043   0.295  0.1184  0.0667  0.5463
 5876TIP3    H139043   3.212  -0.049   0.317  0.9372 -0.1486  0.0623
 5876TIP3    H239044   3.317   0.055   0.283  0.4651  1.7084  3.7481
 5877TIP3   OH239045   3.127   6.458  16.079  0.2657 -0.0890  0.2531
 5877TIP3    H139046   3.167   6.535  16.040 -0.0130  0.1365  0.4136
 5877TIP3    H239047   3.087   6.489  16.160  0.3413 -0.4421  0.4315
 5878TIP3   OH239048   6.719   2.617  12.612 -0.2286 -0.1538  0.0269
 5878TIP3    H139049   6.777   2.606  12.688 -0.0970  3.1812  0.5703
 5878TIP3    H239050   6.631   2.616  12.650 -0.1394  2.1457  0.4153
 5879TIP3   OH239051   5.147   2.654   1.264  0.1286  0.6141  0.1035
 5879TIP3    H139052   5.162   2.606   1.183 -0.2954 -1.6683  1.3074
 5879TIP3    H239053   5.233   2.659   1.306  0.3383  1.7490 -0.4117
 5880TIP3   OH239054   0.928   3.305  13.046 -0.2136 -0.1668 -0.7658
 5880TIP3    H139055   0.910   3.217  13.079  1.6023  0.2681  1.6235
 5880TIP3    H239056   1.020   3.302  13.019  0.1647  1.1925  0.2613
 5881TIP3   OH239057   2.920   5.877  11.082  0.8394  0.0725  0.1085
 5881TIP3    H139058   2.991   5.867  11.019  1.6846  0.9355  0.8743
 5881TIP3    H239059   2.940   5.813  11.150 -0.2541 -1.0910 -0.6338
 5882TIP3   OH239060   6.100   1.041  13.464 -0.6584  0.6929  0.5237
 5882TIP3    H139061   6.161   1.080  13.402 -1.2213  1.5487  0.4858
 5882TIP3    H239062   6.155   0.991  13.525  0.0014  0.8416  0.0562
 5883TIP3   OH239063   5.761   2.856  13.783  0.0480  0.2069 -0.2998
 5883TIP3    H139064   5.743   2.767  13.753 -1.1329  0.1452  0.5339
 5883TIP3    H239065   5.828   2.846  13.851  0.2567  0.0069 -0.5341
 5884TIP3   OH239066   2.381   3.351   0.303  0.2932 -0.8817  0.5524
 5884TIP3    H139067   2.328   3.309   0.371 -1.1966 -1.0522 -0.6556
 5884TIP3    H239068   2.378   3.289   0.230 -0.5129  0.5367 -0.6553
 5885TIP3   OH239069   3.022   5.253   2.910 -0.3944  0.3273 -0.3758
 5885TIP3    H139070   3.053   5.173   2.867 -0.0281  0.1733  0.1708
 5885TIP3    H239071   3.090   5.318   2.893  1.3392 -0.5519  2.5685
 5886TIP3   OH239072   6.443   3.714  10.626 -0.2622  0.1839  0.0364
 5886TIP3    H139073   6.402   3.728  10.540  0.4349  0.3722 -0.2755
 5886TIP3    H239074   6.416   3.788  10.678 -0.3557  0.2873 -0.1577
 5887TIP3   OH239075   5.800   3.397   2.762  0.4699  0.2285  0.6370
 5887TIP3    H139076   5.792   3.308   2.727 -2.0604 -0.1024  1.8228
 5887TIP3    H239077   5.799   3.385   2.857 -1.3755  1.5511  0.8333
 5888TIP3   OH239078   6.702   1.683   3.043 -0.4441  0.4051 -0.2156
 5888TIP3    H139079   6.649   1.726   2.976 -0.9996 -1.2960 -0.9033
 5888TIP3    H239080   6.648   1.685   3.122 -0.7287  0.3947 -0.4102
 5889TIP3   OH239081   2.020   1.603   0.296 -0.2210  0.7009 -0.5597
 5889TIP3    H139082   2.062   1.517   0.290 -1.8958 -0.5561  3.0383
 5889TIP3    H239083   2.063   1.645   0.371 -1.4042  1.7808 -0.4638
 5890TIP3   OH239084   4.578   5.152   4.234  0.6022 -0.2727  0.3836
 5890TIP3    H139085   4.652   5.149   4.173 -0.0857  0.0322 -0.5010
 5890TIP3    H239086   4.601   5.090   4.303  1.5166 -0.4496 -0.0635
 5891TIP3   OH239087   5.309   4.497   5.372 -0.1067  0.2011 -0.3411
 5891TIP3    H139088   5.249   4.457   5.435 -1.0548  0.8794 -0.8091
 5891TIP3    H239089   5.340   4.576   5.416 -1.1253  0.9218 -0.8856
 5892TIP3   OH239090   3.858   3.508  15.912  0.1029 -0.2289  0.1061
 5892TIP3    H139091   3.781   3.528  15.860  0.4699  0.6137 -0.1283
 5892TIP3    H239092   3.900   3.435  15.865  0.1420  0.1686 -0.4927
 5893TIP3   OH239093   2.592   5.604  15.757 -0.2983 -0.2014  0.0619
 5893TIP3    H139094   2.518   5.635  15.807 -0.0390 -1.0904  1.0261
 5893TIP3    H239095   2.652   5.679  15.753 -0.6546  0.1053  0.4324
 5894TIP3   OH239096   3.649   5.976   1.068 -0.8065  0.3261 -0.2471
 5894TIP3    H139097   3.554   5.983   1.067 -0.8537  0.2668  1.5413
 5894TIP3    H239098   3.667   5.890   1.104 -0.0764  1.0242  1.1231
 5895TIP3   OH239099   5.304   0.850   0.341  0.6294 -0.2025  0.2062
 5895TIP3    H139100   5.393   0.862   0.309  0.4623 -0.5288 -0.3841
 5895TIP3    H239101   5.249   0.899   0.280  0.4190  0.1896  0.7010
 5896TIP3   OH239102   0.943   1.224   5.261 -0.9751 -0.0250  0.0349
 5896TIP3    H139103   0.929   1.291   5.329  2.2895 -0.0360  0.8957
 5896TIP3    H239104   0.955   1.274   5.180  1.7881  0.6281  0.7272
 5897TIP3   OH239105   4.025   6.602  14.749 -0.5302 -0.1565  0.8962
 5897TIP3    H139106   4.043   6.548  14.826 -1.4155 -0.0337  1.2074
 5897TIP3    H239107   3.955   6.661  14.778  1.2326  2.0391  0.9791
 5898TIP3   OH239108   3.573   6.292   5.734 -0.0775 -0.4398 -0.2836
 5898TIP3    H139109   3.567   6.381   5.698  1.0610 -0.3050 -0.1918
 5898TIP3    H239110   3.568   6.303   5.829 -1.9239 -0.6868 -0.3136
 5899TIP3   OH239111   1.488   4.878  13.248  0.7586 -0.0446 -0.1664
 5899TIP3    H139112   1.442   4.958  13.223  1.2380  0.1014 -0.6242
 5899TIP3    H239113   1.515   4.892  13.339 -1.5960 -0.8520  0.7120
 5900TIP3   OH239114   5.605   5.413  12.717  0.4386  0.3595 -0.4060
 5900TIP3    H139115   5.574   5.408  12.626  0.1515 -0.9617 -0.2570
 5900TIP3    H239116   5.698   5.434  12.709 -0.0775  2.7454 -0.9034
 5901TIP3   OH239117   2.827   2.219  11.096  0.5978 -0.0390  0.9407
 5901TIP3    H139118   2.770   2.154  11.055  1.0114 -0.7060  1.4047
 5901TIP3    H239119   2.835   2.288  11.031 -0.9706  0.2210  0.9650
 5902TIP3   OH239120   2.176   5.240  10.012 -0.6396 -0.8052 -0.4280
 5902TIP3    H139121   2.234   5.312  10.038 -0.5118 -0.7134 -0.9596
 5902TIP3    H239122   2.168   5.186  10.090  1.1526 -1.4952 -0.6843
 5903TIP3   OH239123   6.204   2.808   0.054 -0.6099 -0.4180  0.2860
 5903TIP3    H139124   6.282   2.766   0.089 -1.3927 -1.7986  0.4168
 5903TIP3    H239125   6.238   2.876  -0.005  0.6895  0.5367  2.0601
 5904TIP3   OH239126   0.925   0.100  14.530 -0.6545 -0.4493  0.6318
 5904TIP3    H139127   1.004   0.132  14.487 -1.4551 -1.2913 -1.5655
 5904TIP3    H239128   0.856   0.160  14.501 -0.9850 -0.1584  1.9488
 5905TIP3   OH239129   5.498   2.974  13.820  0.4468 -0.2834 -0.5951
 5905TIP3    H139130   5.504   3.026  13.900 -1.5036 -0.3573 -0.3658
 5905TIP3    H239131   5.588   2.942  13.805  1.1956  1.2103  0.5361
 5906TIP3   OH239132   2.859   0.642   0.142 -0.2881  0.4490  0.4971
 5906TIP3    H139133   2.938   0.654   0.194  0.3132 -0.0330 -0.2726
 5906TIP3    H239134   2.802   0.587   0.196  0.1992  0.2094  0.7680
 5907TIP3   OH239135   2.996   0.091   3.099  0.2343  0.2835  0.1706
 5907TIP3    H139136   3.080   0.119   3.062 -0.7371 -0.7293 -3.1483
 5907TIP3    H239137   2.956   0.172   3.131  0.8793  1.4688 -1.8186
 5908TIP3   OH239138   4.398   2.454  14.162  0.3544  0.1938 -0.2783
 5908TIP3    H139139   4.336   2.409  14.219 -0.3390  0.6072 -0.6880
 5908TIP3    H239140   4.362   2.443  14.074  0.7465  0.6246 -0.4963
 5909TIP3   OH239141   3.277   3.648   4.380 -0.3686 -0.1861 -0.1377
 5909TIP3    H139142   3.263   3.562   4.420  0.6944 -0.2440  0.1511
 5909TIP3    H239143   3.239   3.710   4.442 -2.2264 -0.4896 -0.9106
 5910TIP3   OH239144   1.753   3.814  12.406  0.0645  0.4312 -0.1766
 5910TIP3    H139145   1.762   3.798  12.500 -0.3418  1.0759 -0.0234
 5910TIP3    H239146   1.659   3.823  12.391 -0.0184 -1.2411 -0.9229
 5911TIP3   OH239147   1.184   1.797  13.599  0.3668  0.2707  0.1054
 5911TIP3    H139148   1.180   1.805  13.503  2.2861  0.4248 -0.0012
 5911TIP3    H239149   1.093   1.799  13.627 -0.2273  0.4448 -1.7043
 5912TIP3   OH239150   5.550   3.779   5.294  0.8488  0.3289 -0.7476
 5912TIP3    H139151   5.494   3.702   5.281  1.0412  0.2134 -0.9112
 5912TIP3    H239152   5.608   3.779   5.218  0.7996  0.6826 -0.7864
 5913TIP3   OH239153   1.270   6.123   2.452 -0.4642  0.1508 -0.2947
 5913TIP3    H139154   1.327   6.053   2.484  0.3710  0.1032 -1.7902
 5913TIP3    H239155   1.277   6.118   2.357 -0.4904  2.1827 -0.4430
 5914TIP3   OH239156   3.919   3.042   0.022 -0.4229 -0.1598 -0.2467
 5914TIP3    H139157   3.960   2.958   0.045  0.2647 -0.0443 -1.0100
 5914TIP3    H239158   3.992   3.103   0.019 -0.7745  0.2340 -0.8020
 5915TIP3   OH239159   4.717   3.418   4.597 -1.1457  0.4435 -0.3192
 5915TIP3    H139160   4.785   3.434   4.531 -0.5627 -0.1103  0.1367
 5915TIP3    H239161   4.732   3.485   4.664  0.2144 -0.8524  0.7453
 5916TIP3   OH239162   1.582   1.288  10.104 -0.0722 -0.2179 -0.7046
 5916TIP3    H139163   1.631   1.367  10.081  2.4590 -2.1648 -2.4975
 5916TIP3    H239164   1.502   1.293  10.052  0.1465  1.0291 -0.9471
 5917TIP3   OH239165   1.501   4.699  16.736 -0.1760 -0.3392  0.4432
 5917TIP3    H139166   1.450   4.656  16.806 -0.1082 -0.6815  0.2861
 5917TIP3    H239167   1.452   4.779  16.717 -0.2514 -0.2931  0.8117
 5918TIP3   OH239168   3.712   2.311  14.905 -0.4968 -0.1440  0.0294
 5918TIP3    H139169   3.764   2.231  14.916  0.3806  0.2903 -0.9030
 5918TIP3    H239170   3.633   2.281  14.859  0.6947 -0.2047 -2.1005
 5919TIP3   OH239171   2.712   5.423   3.724  0.2250 -0.1479 -0.2707
 5919TIP3    H139172   2.742   5.393   3.639  0.9898  0.0282 -0.0742
 5919TIP3    H239173   2.617   5.435   3.714  0.4850  1.1317 -1.4797
 5920TIP3   OH239174   0.620   3.046  10.733 -0.1289 -0.0354  0.0495
 5920TIP3    H139175   0.581   3.037  10.646 -1.4456  2.1996  0.3260
 5920TIP3    H239176   0.647   3.138  10.737  1.2946 -0.4661  1.4832
 5921TIP3   OH239177   4.537   4.328  15.447  0.0267 -0.0898 -0.8236
 5921TIP3    H139178   4.609   4.302  15.390 -0.7218  4.0238 -4.1401
 5921TIP3    H239179   4.464   4.272  15.423  0.6552 -0.6526 -1.4314
 5922TIP3   OH239180   6.505   5.765   5.908 -0.0253 -0.2589  0.1551
 5922TIP3    H139181   6.425   5.817   5.909 -1.2610 -2.0624 -0.0299
 5922TIP3    H239182   6.557   5.798   5.981 -1.1071  0.6954  0.5124
 5923TIP3   OH239183   2.060   5.825  12.827 -0.8330 -0.2397 -0.1443
 5923TIP3    H139184   2.046   5.773  12.748 -0.4210  0.4985 -0.7220
 5923TIP3    H239185   1.979   5.875  12.837  0.0371  1.6031 -1.6216
 5924TIP3   OH239186   6.160   2.159  12.015  0.2945  0.3769 -0.2713
 5924TIP3    H139187   6.212   2.151  11.935 -0.2113 -2.2382 -0.4255
 5924TIP3    H239188   6.096   2.226  11.995 -0.0861 -0.5056 -2.2656
 5925TIP3   OH239189   3.717   0.845  12.087 -0.1927 -0.2741  0.6931
 5925TIP3    H139190   3.693   0.873  11.999 -1.1206 -3.8377 -0.3548
 5925TIP3    H239191   3.637   0.858  12.138 -0.9411 -1.7895 -0.0289
 5926TIP3   OH239192   4.800   1.658   0.073  0.0997  0.2726  0.2984
 5926TIP3    H139193   4.770   1.746   0.098  0.8184  0.2885  1.1511
 5926TIP3    H239194   4.743   1.599   0.122  0.3710  0.2856  0.6368
 5927TIP3   OH239195   3.928   3.858  12.815  0.5482  0.3751  0.1169
 5927TIP3    H139196   3.931   3.870  12.909 -1.5333 -1.4976  0.5092
 5927TIP3    H239197   3.991   3.788  12.797 -0.2099 -0.3986  0.3896
 5928TIP3   OH239198   2.995   2.098   1.731  0.3376  1.0762  0.1116
 5928TIP3    H139199   2.937   2.162   1.773  0.5178  0.8661  0.6874
 5928TIP3    H239200   3.004   2.028   1.795 -0.2099  0.2526 -0.6917
 5929TIP3   OH239201   4.737   6.703   0.812 -0.6335  0.8389 -0.1504
 5929TIP3    H139202   4.820   6.744   0.791 -0.9133  0.2366 -2.7806
 5929TIP3    H239203   4.677   6.732   0.743 -1.1926 -2.7324 -1.3819
 5930TIP3   OH239204   6.586   0.868  13.809 -0.5509  0.1214 -0.0929
 5930TIP3    H139205   6.664   0.819  13.835  0.0933  0.4020 -1.4143
 5930TIP3    H239206   6.604   0.958  13.836  0.3045  0.4961 -1.8041
 5931TIP3   OH239207   5.866   0.895   4.000 -0.4666 -0.1708  0.1364
 5931TIP3    H139208   5.891   0.814   4.043 -1.0728 -0.9144 -0.8843
 5931TIP3    H239209   5.833   0.869   3.915  0.1579  1.2262 -0.5710
 5932TIP3   OH239210   3.881   2.127  13.277  0.8375 -0.6185  0.2955
 5932TIP3    H139211   3.924   2.041  13.274  1.5156 -0.2869  0.1610
 5932TIP3    H239212   3.788   2.108  13.263  1.2421 -1.1488 -2.3207
 5933TIP3   OH239213   1.546   5.689  10.043  0.1305  0.2063  0.6096
 5933TIP3    H139214   1.497   5.610  10.064  0.8789 -0.7166 -0.9011
 5933TIP3    H239215   1.636   5.670  10.071  0.9522 -0.6963 -2.2427
 5934TIP3   OH239216   2.914   5.757  14.807 -0.1427 -0.1866  0.5590
 5934TIP3    H139217   2.925   5.682  14.864  0.5298 -1.0227 -0.6366
 5934TIP3    H239218   2.925   5.833  14.864 -1.2485 -0.9691  1.8582
 5935TIP3   OH239219   4.747   1.725   1.504 -0.2120 -0.5906 -0.1272
 5935TIP3    H139220   4.655   1.736   1.526 -0.4849 -0.9874 -1.0311
 5935TIP3    H239221   4.791   1.798   1.548 -1.0058 -0.1605 -0.0341
 5936TIP3   OH239222   5.531   1.029  12.233  0.3173  0.0289 -0.1286
 5936TIP3    H139223   5.593   1.023  12.160  1.3003  3.3136  0.2673
 5936TIP3    H239224   5.577   1.082  12.299 -1.8140  0.0206  1.4679
 5937TIP3   OH239225   0.166   2.915  14.735  0.2283  0.6306 -0.2034
 5937TIP3    H139226   0.086   2.865  14.748  0.3433  0.3269 -0.6487
 5937TIP3    H239227   0.218   2.899  14.814  0.4916 -0.3797 -0.5676
 5938TIP3   OH239228   5.668   3.104   2.765 -0.4855 -0.0456 -0.2329
 5938TIP3    H139229   5.733   3.037   2.744 -1.9707 -1.3447 -0.9409
 5938TIP3    H239230   5.624   3.071   2.844  0.6670  1.5702  1.1558
 5939TIP3   OH239231   4.850   1.811   1.061  0.3146 -0.5640  0.1722
 5939TIP3    H139232   4.882   1.802   1.151  2.6997  2.2038 -0.2587
 5939TIP3    H239233   4.873   1.728   1.020 -1.5842 -2.2330  2.2170
 5940TIP3   OH239234   3.434   6.820   4.375  0.0145 -0.7912  0.1785
 5940TIP3    H139235   3.374   6.777   4.314 -1.9984  1.7106  0.1803
 5940TIP3    H239236   3.416   6.913   4.364  2.0408 -0.0656  2.1643
 5941TIP3   OH239237   4.177   0.234  10.606 -0.2972  0.0475  0.0645
 5941TIP3    H139238   4.106   0.186  10.563 -0.5124  0.8208 -0.4553
 5941TIP3    H239239   4.190   0.188  10.689 -0.3551 -1.0365 -0.5066
 5942TIP3   OH239240   4.246   0.970  14.487  0.2384 -0.4150  0.0501
 5942TIP3    H139241   4.171   0.940  14.436 -1.0995  1.3549  0.8993
 5942TIP3    H239242   4.312   0.993  14.422 -0.7061 -0.0751 -0.8044
 5943TIP3   OH239243   6.470   5.880   5.641  0.0359 -0.2543  0.1218
 5943TIP3    H139244   6.506   5.949   5.698 -0.7715  1.6821 -1.5981
 5943TIP3    H239245   6.403   5.838   5.695  1.5880 -0.7915  1.7427
 5944TIP3   OH239246   5.014   1.243  16.111 -0.1231 -0.1929  0.3176
 5944TIP3    H139247   5.039   1.204  16.028 -0.6952 -2.5644  1.1919
 5944TIP3    H239248   5.072   1.201  16.175 -1.4163 -0.3501  1.4254
 5945TIP3   OH239249   6.201   0.009   5.468  0.1988 -0.1324  0.3645
 5945TIP3    H139250   6.272   0.050   5.418  0.8771 -1.9582 -0.2579
 5945TIP3    H239251   6.201   0.055   5.552 -0.2232  2.2463 -0.8305
 5946TIP3   OH239252   5.643   3.418  15.654 -0.2007 -0.3509 -0.2177
 5946TIP3    H139253   5.687   3.371  15.726 -0.1854 -1.6636 -1.0545
 5946TIP3    H239254   5.713   3.464  15.609  0.0337 -0.8258 -0.3464
 5947TIP3   OH239255   4.630   5.403   3.859 -0.0968 -0.0376  0.7185
 5947TIP3    H139256   4.601   5.384   3.769 -1.8878 -1.8181  1.5828
 5947TIP3    H239257   4.724   5.416   3.852 -0.3039  0.6538 -1.5212
 5948TIP3   OH239258   0.088   0.465  14.393 -0.1937 -0.1013  0.3636
 5948TIP3    H139259   0.050   0.539  14.345 -1.3920 -1.7285 -1.3573
 5948TIP3    H239260   0.013   0.409  14.415  0.7360 -1.1393  1.0162
 5949TIP3   OH239261   1.963   3.005   3.234  0.8259  0.0789  0.1063
 5949TIP3    H139262   1.887   2.950   3.254  0.3719  0.4716 -0.5190
 5949TIP3    H239263   1.945   3.088   3.279  1.6106 -0.3327  1.2288
 5950TIP3   OH239264   6.724   1.891  11.796  0.3932  0.2598 -0.6954
 5950TIP3    H139265   6.665   1.956  11.834  0.9896  0.5320 -0.2127
 5950TIP3    H239266   6.667   1.818  11.773 -0.1515  0.5604 -0.3361
 5951TIP3   OH239267   1.094   1.308   3.397  0.1733 -0.0801  0.1661
 5951TIP3    H139268   0.999   1.304   3.399  0.1911 -0.8587  0.0420
 5951TIP3    H239269   1.115   1.364   3.322 -0.1912  0.8803  0.7816
 5952TIP3   OH239270   6.623   3.804  15.056 -0.6039  0.1967 -0.2672
 5952TIP3    H139271   6.672   3.886  15.044 -0.9207  0.2606 -1.2709
 5952TIP3    H239272   6.683   3.746  15.101  0.4020  0.2847 -1.4462
 5953TIP3   OH239273   5.654   5.312  15.974  0.2711 -0.4368  0.1041
 5953TIP3    H139274   5.738   5.357  15.986 -0.0364  0.0317  0.5378
 5953TIP3    H239275   5.611   5.318  16.060 -0.2902 -0.5046 -0.1678
 5954TIP3   OH239276   6.712   6.158   1.025  0.0115 -0.1715  0.2962
 5954TIP3    H139277   6.801   6.146   0.993  0.1306  0.5391  0.3445
 5954TIP3    H239278   6.713   6.243   1.070 -0.6414 -0.2382  0.4606
 5955TIP3   OH239279   1.037   1.419  12.411 -0.4639 -0.6038  0.0400
 5955TIP3    H139280   1.099   1.476  12.365 -0.3770 -1.5054 -0.9966
 5955TIP3    H239281   0.975   1.391  12.344 -2.0095  0.2548  1.0581
 5956TIP3   OH239282   3.667   4.124  13.831 -0.0411 -0.4160 -0.5810
 5956TIP3    H139283   3.620   4.098  13.752 -1.7707  0.2805  0.1790
 5956TIP3    H239284   3.619   4.201  13.863  0.3806 -0.9228  1.3665
 5957TIP3   OH239285   0.252   3.111  16.652  0.1104 -0.4427 -0.2182
 5957TIP3    H139286   0.269   3.147  16.565  0.6075  2.1622  0.8702
 5957TIP3    H239287   0.157   3.101  16.655  0.2163 -3.2074 -1.9311
 5958TIP3   OH239288   6.514   5.405   2.326  0.0728  0.1672 -0.0242
 5958TIP3    H139289   6.461   5.342   2.375 -3.0727  2.4947 -0.1627
 5958TIP3    H239290   6.542   5.469   2.391  0.3235  0.4671 -0.4251
 5959TIP3   OH239291   5.906   1.993   2.867 -0.2635  0.3993  0.1096
 5959TIP3    H139292   5.896   1.975   2.773 -1.7012 -1.9506  0.6061
 5959TIP3    H239293   5.889   2.087   2.876  2.1949  1.1759 -2.1941
 5960TIP3   OH239294   2.871   1.657  11.467  0.2776 -0.2219 -0.0625
 5960TIP3    H139295   2.906   1.624  11.385  0.8256  0.0329  0.0662
 5960TIP3    H239296   2.903   1.597  11.534 -0.0669 -0.3591 -0.0172
 5961TIP3   OH239297   6.107   0.667   0.225 -0.4239 -0.3370 -0.2568
 5961TIP3    H139298   6.170   0.653   0.155 -0.0124 -0.2810  0.0960
 5961TIP3    H239299   6.147   0.625   0.302 -1.1603 -0.9668 -0.2025
 5962TIP3   OH239300   4.400   6.596  12.293  0.3708  0.1638 -0.1555
 5962TIP3    H139301   4.367   6.682  12.269 -0.0298 -0.1226 -0.6568
 5962TIP3    H239302   4.430   6.606  12.383 -0.9721  0.4756  0.2813
 5963TIP3   OH239303   3.953   2.655   3.891 -0.2346 -0.4419  0.0062
 5963TIP3    H139304   3.918   2.621   3.809 -0.2511  0.1843 -0.2481
 5963TIP3    H239305   3.893   2.724   3.917 -0.4156 -0.8640  0.7257
 5964TIP3   OH239306   5.743   6.595  14.255 -0.2735  0.1771 -0.0967
 5964TIP3    H139307   5.758   6.503  14.235 -0.9186 -0.1069  0.6768
 5964TIP3    H239308   5.649   6.608  14.240 -0.5081  0.2977  1.3292
 5965TIP3   OH239309   6.497   1.684   5.142  0.0756 -0.1132  0.1261
 5965TIP3    H139310   6.552   1.638   5.079 -0.6621 -1.5329  0.4848
 5965TIP3    H239311   6.547   1.681   5.223  0.5502  0.7888 -0.1144
 5966TIP3   OH239312   3.544   1.868   2.858 -0.6810 -0.0664  0.3782
 5966TIP3    H139313   3.582   1.929   2.920  0.5761  1.8922 -2.1303
 5966TIP3    H239314   3.455   1.898   2.845 -0.4756  0.4488  0.1441
 5967TIP3   OH239315   5.153   6.521   4.875 -0.0140  0.3431 -0.1033
 5967TIP3    H139316   5.082   6.514   4.810  0.2150 -2.9707 -0.1849
 5967TIP3    H239317   5.109   6.516   4.959  0.0359 -1.8864 -0.1551
 5968TIP3   OH239318   3.842   1.474   3.758 -0.1167  0.3660 -0.1294
 5968TIP3    H139319   3.791   1.429   3.826  0.8749 -1.5197 -0.5597
 5968TIP3    H239320   3.900   1.533   3.807  0.2504 -0.6177  0.6720
 5969TIP3   OH239321   5.288   6.149  15.826  0.5137 -0.1980 -0.0874
 5969TIP3    H139322   5.193   6.147  15.842  0.6956  1.4943  1.7013
 5969TIP3    H239323   5.299   6.109  15.741 -2.0292  1.1479 -1.1757
 5970TIP3   OH239324   6.101   3.529  10.804 -0.3965 -0.1580 -0.4909
 5970TIP3    H139325   6.170   3.466  10.783 -0.5506 -0.6554  0.4315
 5970TIP3    H239326   6.021   3.477  10.806 -0.6337  0.2040 -0.4250
 5971TIP3   OH239327   2.731   4.966  16.395 -0.0864 -0.1561  0.1095
 5971TIP3    H139328   2.764   4.901  16.457 -1.0367 -1.0715 -0.2988
 5971TIP3    H239329   2.802   5.029  16.385  0.7307 -0.9477  0.7904
 5972TIP3   OH239330   3.744   5.282  10.976 -0.1224  0.1575  0.5350
 5972TIP3    H139331   3.733   5.205  10.920 -1.8341  1.8055 -1.5353
 5972TIP3    H239332   3.820   5.327  10.940  1.4040 -0.9165  2.2729
 5973TIP3   OH239333   0.695   4.996  12.078  0.0670 -0.0606  0.2734
 5973TIP3    H139334   0.721   4.907  12.101  2.9307  0.8162  0.8677
 5973TIP3    H239335   0.736   5.012  11.993  0.5551  1.0075  0.6853
 5974TIP3   OH239336   0.701   3.440   0.110 -0.5441 -0.3088 -0.3692
 5974TIP3    H139337   0.746   3.366   0.071 -1.5692 -0.8443 -0.5465
 5974TIP3    H239338   0.610   3.432   0.081 -0.8964  0.4064  0.4832
 5975TIP3   OH239339   2.226   3.507   3.340  0.2873  0.4209  0.6967
 5975TIP3    H139340   2.214   3.415   3.320  1.2032  0.8753 -2.4508
 5975TIP3    H239341   2.173   3.522   3.419 -1.1224 -2.4102  0.3902
 5976TIP3   OH239342   4.798   0.445   1.529  0.1510 -0.1185  0.4788
 5976TIP3    H139343   4.809   0.500   1.606 -0.4393  1.2368 -0.3733
 5976TIP3    H239344   4.745   0.371   1.560  2.6602 -1.3872  2.1275
 5977TIP3   OH239345   2.472   6.798   0.124 -0.0983  0.0514 -0.8422
 5977TIP3    H139346   2.454   6.843   0.206  1.1013 -1.8599  0.5513
 5977TIP3    H239347   2.501   6.867   0.064  0.1146  1.3370  0.6920
 5978TIP3   OH239348   4.859   0.236  11.069  0.3064  0.6159 -0.1771
 5978TIP3    H139349   4.865   0.318  11.119 -2.1983  0.7757 -0.0023
 5978TIP3    H239350   4.809   0.259  10.991 -1.9240 -0.9880  0.6598
 5979TIP3   OH239351   2.217   6.581  16.319 -0.7507 -0.4413  0.2948
 5979TIP3    H139352   2.232   6.633  16.398  0.3050  0.6249 -0.5704
 5979TIP3    H239353   2.195   6.645  16.252 -0.9037 -1.2574 -0.4533
 5980TIP3   OH239354   1.480   4.732   3.908  0.3040 -0.1059 -0.1647
 5980TIP3    H139355   1.493   4.637   3.901 -1.1993 -0.4959  1.5682
 5980TIP3    H239356   1.386   4.745   3.895  0.5229  1.1839 -0.6146
 5981TIP3   OH239357   6.294   5.042  15.326  0.1142  0.1606 -0.1504
 5981TIP3    H139358   6.325   5.078  15.409 -1.9017  0.2418  0.6259
 5981TIP3    H239359   6.261   4.955  15.348 -1.3672  0.5683 -0.6324
 5982TIP3   OH239360   2.847   1.018  12.478  0.1658  0.3201  0.1288
 5982TIP3    H139361   2.842   1.112  12.493 -0.5749  0.2863  0.1324
 5982TIP3    H239362   2.824   1.007  12.386  0.2850  0.1424  0.1192
 5983TIP3   OH239363   6.330   5.957   6.012  0.4412  0.2796 -0.3383
 5983TIP3    H139364   6.401   5.985   6.069 -0.1279 -0.8256  0.9552
 5983TIP3    H239365   6.256   5.940   6.071 -0.7854  1.0010 -1.6046
 5984TIP3   OH239366   1.896   2.139  15.714  0.2249  0.0259  0.4183
 5984TIP3    H139367   1.935   2.183  15.790  0.2320  0.4245  0.1879
 5984TIP3    H239368   1.914   2.046  15.728  1.0493  0.1819  0.4302
 5985TIP3   OH239369   2.644   0.743  17.009  0.1725 -0.3364  0.1667
 5985TIP3    H139370   2.683   0.821  16.969 -1.6077  0.5415  0.0531
 5985TIP3    H239371   2.716   0.703  17.058  0.8767  2.0039  1.2021
 5986TIP3   OH239372   5.253   1.728   1.945  0.4971 -0.3766  0.5028
 5986TIP3    H139373   5.233   1.764   2.031 -1.7390 -2.0191  0.7854
 5986TIP3    H239374   5.201   1.647   1.941  2.4218 -1.6128 -1.4644
 5987TIP3   OH239375   5.757   5.906   0.525 -0.4416 -0.0782 -0.2337
 5987TIP3    H139376   5.770   5.825   0.575  0.0600 -0.6758 -1.3004
 5987TIP3    H239377   5.837   5.956   0.540 -0.2506 -0.2984 -0.5050
 5988TIP3   OH239378   4.566   0.188  14.050  0.0185  0.0496  0.0506
 5988TIP3    H139379   4.511   0.139  14.112 -0.0532  2.0143  1.6442
 5988TIP3    H239380   4.655   0.157  14.067 -0.1014 -0.0492  0.5236
 5989TIP3   OH239381   3.633   5.206   5.129  0.1617 -0.6224  0.0533
 5989TIP3    H139382   3.610   5.178   5.218  1.5810  0.7614  0.9061
 5989TIP3    H239383   3.655   5.125   5.083 -1.3104 -1.4385  0.7100
 5990TIP3   OH239384   0.329   6.650   2.237 -0.0261  0.5845 -0.1667
 5990TIP3    H139385   0.258   6.605   2.283 -0.6666  1.0734 -0.6622
 5990TIP3    H239386   0.323   6.617   2.147  0.5062  0.4796 -0.1655
 5991TIP3   OH239387   0.436   4.888  11.680 -0.0149  0.4737 -0.0384
 5991TIP3    H139388   0.432   4.847  11.766 -1.1509 -1.6004 -1.0145
 5991TIP3    H239389   0.485   4.827  11.626 -2.1743  0.0486 -1.6614
 5992TIP3   OH239390   6.640   0.971  10.437  0.0526  0.2526 -0.2119
 5992TIP3    H139391   6.641   0.911  10.362  1.2398 -0.1950  0.1350
 5992TIP3    H239392   6.551   1.004  10.440  0.1002  0.6792 -2.1358
 5993TIP3   OH239393   1.775   1.520  12.272  0.6307 -0.4660 -0.9911
 5993TIP3    H139394   1.765   1.512  12.367 -0.7663 -1.7319 -1.1975
 5993TIP3    H239395   1.687   1.541  12.241  1.2140  0.6261 -1.9563
 5994TIP3   OH239396   5.537   1.617   1.460 -0.6452 -0.3481 -0.8630
 5994TIP3    H139397   5.576   1.703   1.446  1.2181 -0.7761  1.1429
 5994TIP3    H239398   5.444   1.629   1.441 -0.3904  2.0446 -0.8816
 5995TIP3   OH239399   6.073   4.281   4.463  0.8943 -0.2074  0.1283
 5995TIP3    H139400   6.070   4.361   4.515  2.6173 -1.3397  2.1306
 5995TIP3    H239401   6.130   4.301   4.389  0.9872  0.5176  0.3949
 5996TIP3   OH239402   0.230   1.765   4.674  0.2995 -0.4116 -0.1594
 5996TIP3    H139403   0.251   1.677   4.643 -0.8027  0.1405 -2.7354
 5996TIP3    H239404   0.314   1.811   4.673  0.3095 -0.2946 -3.0693
 5997TIP3   OH239405   5.743   0.514   3.511 -0.0912 -0.3379  0.0745
 5997TIP3    H139406   5.837   0.529   3.522 -0.3035  1.3174 -0.1191
 5997TIP3    H239407   5.701   0.592   3.547 -1.5046 -1.7301  1.6308
 5998TIP3   OH239408   5.326   4.445   3.988  0.6840  0.0290 -0.3617
 5998TIP3    H139409   5.390   4.378   4.009 -1.3794 -1.5873  1.2855
 5998TIP3    H239410   5.242   4.407   4.015 -0.8553  2.4186 -1.4264
 5999TIP3   OH239411   5.107   5.163  16.851  0.4996  0.2924 -0.4203
 5999TIP3    H139412   5.151   5.146  16.767  1.5063 -0.0629  0.1619
 5999TIP3    H239413   5.024   5.115  16.844  0.9538 -0.4505 -0.8898
 6000TIP3   OH239414   3.426   6.094  12.645  0.2799 -0.2615  0.2945
 6000TIP3    H139415   3.407   6.027  12.579 -2.9815  1.2200 -0.4481
 6000TIP3    H239416   3.351   6.091  12.704  1.1776  1.2222  1.5682
 6001TIP3   OH239417   4.991   5.686   2.353 -0.3214 -0.5445  0.2168
 6001TIP3    H139418   5.061   5.740   2.316 -0.3439  0.0019  0.9555
 6001TIP3    H239419   4.932   5.749   2.395 -0.1020 -1.1552  1.4980
 6002TIP3   OH239420   1.419   1.677   5.468  0.1233 -0.0377  0.7884
 6002TIP3    H139421   1.504   1.656   5.507  0.5646  0.7188  0.2395
 6002TIP3    H239422   1.371   1.721   5.538  1.2512  2.1594  0.2513
 6003TIP3   OH239423   0.524   5.828   4.258  0.2852 -0.0390  0.3427
 6003TIP3    H139424   0.580   5.855   4.185 -0.6693 -1.7170 -1.0870
 6003TIP3    H239425   0.496   5.910   4.299  1.0795  0.9353 -1.0029
 6004TIP3   OH239426   6.007   6.159  14.921  0.3625  0.6447  0.7274
 6004TIP3    H139427   5.912   6.154  14.917  0.2002  3.2426 -1.0669
 6004TIP3    H239428   6.025   6.200  15.006 -0.2595  1.8760  0.2783
 6005TIP3   OH239429   4.991   4.381  16.142 -0.1685 -0.8048  0.0507
 6005TIP3    H139430   5.001   4.378  16.238  0.9643 -0.5087 -0.0372
 6005TIP3    H239431   4.976   4.474  16.123  3.2002 -0.2045 -0.3059
 6006TIP3   OH239432   5.519   1.044   2.286  0.0603 -0.1248  0.0966
 6006TIP3    H139433   5.558   1.055   2.373  1.1595  1.6103 -0.5724
 6006TIP3    H239434   5.558   0.963   2.252  2.0803  0.8559 -0.0173
 6007TIP3   OH239435   1.368   5.537   2.636  0.7791  0.0856  0.4332
 6007TIP3    H139436   1.350   5.561   2.545  0.9017 -0.3748  0.2817
 6007TIP3    H239437   1.354   5.442   2.638  3.3017 -0.3395  0.2802
 6008TIP3   OH239438   2.172   5.168  15.374  0.2437 -0.0238 -0.1179
 6008TIP3    H139439   2.259   5.188  15.408  0.5474  1.3343 -1.5824
 6008TIP3    H239440   2.187   5.102  15.306 -0.0915 -1.0832  0.8232
 6009TIP3   OH239441   6.629   4.799  16.383  0.0121  0.2387 -0.1270
 6009TIP3    H139442   6.717   4.786  16.346  0.1960 -0.2789  0.4772
 6009TIP3    H239443   6.570   4.777  16.311  0.3695  0.3780 -0.4708
 6010TIP3   OH239444   2.075   6.635   2.319 -0.2251  0.5861  0.5512
 6010TIP3    H139445   2.136   6.704   2.348 -0.9957  1.0123  1.1885
 6010TIP3    H239446   2.127   6.555   2.322  1.2189  1.3175 -1.8247
 6011TIP3   OH239447   2.355   4.083   0.825 -0.1725  0.2460 -0.2271
 6011TIP3    H139448   2.301   4.158   0.800  0.2578  0.5551 -0.2314
 6011TIP3    H239449   2.445   4.114   0.816  0.0022 -0.0752  0.3771
 6012TIP3   OH239450   1.059   4.033   4.666 -0.0303  0.3523  0.3100
 6012TIP3    H139451   1.119   3.976   4.618  0.2562  1.5316 -0.7820
 6012TIP3    H239452   0.989   3.974   4.696 -0.4641 -0.3769 -1.9615
 6013TIP3   OH239453   0.654   6.206  13.066 -0.3110 -0.1347 -0.3049
 6013TIP3    H139454   0.653   6.295  13.031  1.8675  0.0481 -0.0277
 6013TIP3    H239455   0.739   6.171  13.042 -0.9762 -2.0428 -0.0785
 6014TIP3   OH239456   0.458   6.328  15.761  0.1491 -0.1036 -0.2852
 6014TIP3    H139457   0.468   6.286  15.847 -2.3939  0.9921  0.6577
 6014TIP3    H239458   0.412   6.410  15.780  0.4419  0.6701 -2.6033
 6015TIP3   OH239459   2.083   6.127  14.271  0.0129  0.2433 -0.3150
 6015TIP3    H139460   2.135   6.120  14.191 -1.7395  1.9066 -1.6816
 6015TIP3    H239461   2.116   6.057  14.327  1.3661 -0.9181 -2.4419
 6016TIP3   OH239462   2.176   1.331   5.175  0.3889 -0.2625  0.2993
 6016TIP3    H139463   2.204   1.317   5.265  1.3886 -0.7779 -0.0769
 6016TIP3    H239464   2.162   1.426   5.169  0.9548 -0.1367  0.8206
 6017TIP3   OH239465   3.515   1.149  16.418 -0.4104  0.1255 -0.0649
 6017TIP3    H139466   3.451   1.220  16.425 -1.1875 -0.6967  2.2841
 6017TIP3    H239467   3.595   1.186  16.454 -0.0705  0.5800 -1.2581
 6018TIP3   OH239468   3.079   5.312   4.629  0.1281  0.5191  0.1832
 6018TIP3    H139469   3.002   5.279   4.676 -1.7550 -1.7166 -3.9486
 6018TIP3    H239470   3.134   5.235   4.618  0.9289  1.1807 -0.5244
 6019TIP3   OH239471   1.043   5.312  16.181 -0.2682  0.4860  0.2311
 6019TIP3    H139472   1.077   5.369  16.112  0.4371 -0.0180  0.1501
 6019TIP3    H239473   1.008   5.236  16.135  0.6041 -0.0572  0.4326
 6020TIP3   OH239474   2.890   1.512  13.096 -0.1160 -0.1679 -0.4471
 6020TIP3    H139475   2.839   1.593  13.095  0.4235  0.1777 -0.3979
 6020TIP3    H239476   2.842   1.454  13.154  1.5248  1.4642  2.8391
 6021TIP3   OH239477   3.481   0.392   3.586  0.2932  0.1461  0.0373
 6021TIP3    H139478   3.521   0.384   3.672  1.0636 -2.0665 -0.4619
 6021TIP3    H239479   3.416   0.462   3.596  1.6762  1.2710  1.8690
 6022TIP3   OH239480   0.265   4.711   5.285 -0.7969 -0.2370 -0.5224
 6022TIP3    H139481   0.285   4.729   5.377  1.7754 -3.4320 -0.2477
 6022TIP3    H239482   0.181   4.666   5.287 -0.4480 -0.8774  0.3759
 6023TIP3   OH239483   3.659   5.631   0.908  0.4340  0.6243  0.7148
 6023TIP3    H139484   3.687   5.540   0.921 -1.4028 -0.1551 -0.4005
 6023TIP3    H239485   3.578   5.638   0.958  0.1623  1.4303  0.1623
 6024TIP3   OH239486   1.089   5.099  15.624  0.0696  0.3403 -0.0430
 6024TIP3    H139487   1.033   5.051  15.685 -0.6663  0.1942 -0.8186
 6024TIP3    H239488   1.085   5.190  15.653 -0.4889  0.3139 -0.0324
 6025TIP3   OH239489   2.758   4.015  13.873  0.0940 -0.3360 -0.0219
 6025TIP3    H139490   2.728   4.056  13.793  1.0486  0.0811 -0.1825
 6025TIP3    H239491   2.796   3.932  13.845  3.2561  1.1139 -0.4928
 6026TIP3   OH239492   3.067   4.844  14.046  0.4629  0.8980  0.2653
 6026TIP3    H139493   3.095   4.911  14.108  1.6842  2.1506 -1.5251
 6026TIP3    H239494   2.977   4.867  14.023  0.4918  1.2631  0.5190
 6027TIP3   OH239495   2.918   0.323   3.241 -0.1938  0.2833 -0.5444
 6027TIP3    H139496   3.004   0.339   3.281 -0.6089  0.5237  0.2749
 6027TIP3    H239497   2.855   0.346   3.309 -0.9890  2.6672 -1.9553
 6028TIP3   OH239498   5.177   5.992   2.324 -0.2024 -0.3718 -0.2177
 6028TIP3    H139499   5.243   5.975   2.257  0.1926  3.1746 -0.9712
 6028TIP3    H239500   5.095   6.005   2.275 -0.7067 -1.1817  0.3737
 6029TIP3   OH239501   6.798   4.760  14.647  0.0555  0.0727 -0.1134
 6029TIP3    H139502   6.832   4.794  14.564 -0.3786  0.4369 -0.1424
 6029TIP3    H239503   6.846   4.809  14.714  0.6692 -0.4777 -0.1398
 6030TIP3   OH239504   0.187   0.502   1.076  0.0176 -0.3578 -0.7577
 6030TIP3    H139505   0.207   0.409   1.072  1.2991 -0.1937  0.6425
 6030TIP3    H239506   0.121   0.516   1.008 -0.8889 -2.4439 -0.3780
 6031TIP3   OH239507   4.126   1.210   1.361 -0.0177 -0.2286 -0.6690
 6031TIP3    H139508   4.191   1.140   1.359  2.1877  1.6816 -0.7294
 6031TIP3    H239509   4.088   1.205   1.449 -0.6349 -2.0524 -1.0051
 6032TIP3   OH239510   5.603   5.881  12.098 -0.0996  0.6696 -0.0033
 6032TIP3    H139511   5.535   5.900  12.034 -1.2617  0.1616  1.0477
 6032TIP3    H239512   5.599   5.786  12.110  1.2537  0.5323 -0.3941
 6033TIP3   OH239513   5.805   2.822   5.042  0.2963 -0.3336  0.2944
 6033TIP3    H139514   5.876   2.759   5.052 -0.2852 -0.8265  1.5616
 6033TIP3    H239515   5.784   2.819   4.948  0.6070 -1.6811  0.2407
 6034TIP3   OH239516   5.001   5.100   2.225 -0.4089 -0.1175 -0.5287
 6034TIP3    H139517   4.967   5.165   2.163 -1.4067 -0.0641  0.0557
 6034TIP3    H239518   5.095   5.119   2.231 -0.8919  2.3160  0.8045
 6035TIP3   OH239519   2.069   6.279  14.616 -0.3078  0.4273  0.1422
 6035TIP3    H139520   2.002   6.249  14.678  1.4970 -0.7166  1.6666
 6035TIP3    H239521   2.045   6.236  14.533 -1.6244  0.3110  0.5562
 6036TIP3   OH239522   0.553   6.430  11.100 -0.0429  0.3857 -0.1023
 6036TIP3    H139523   0.639   6.412  11.061 -0.5732  0.3637 -1.2961
 6036TIP3    H239524   0.523   6.510  11.057 -1.1421 -0.2675 -0.5923
 6037TIP3   OH239525   4.811   3.369   0.584 -0.5191 -0.3044  0.2624
 6037TIP3    H139526   4.720   3.399   0.575 -0.1390  1.7365  2.3164
 6037TIP3    H239527   4.864   3.441   0.551  0.3661 -0.3401  1.5117
 6038TIP3   OH239528   0.894   6.353   5.233  0.0612  0.4808  0.3425
 6038TIP3    H139529   0.872   6.388   5.147  0.7183 -0.7411 -0.3555
 6038TIP3    H239530   0.811   6.346   5.279 -0.3071  1.0544 -0.2223
 6039TIP3   OH239531   6.606   0.408  16.831 -0.1610 -0.8685 -0.0245
 6039TIP3    H139532   6.700   0.416  16.814  0.3116 -1.0910  2.2289
 6039TIP3    H239533   6.600   0.380  16.922 -2.4548  0.2601  0.2448
 6040TIP3   OH239534   4.204   3.062   4.469 -0.2360 -0.1269  0.0769
 6040TIP3    H139535   4.277   3.005   4.492 -0.2922  0.1328  0.9495
 6040TIP3    H239536   4.127   3.005   4.473  0.0052 -0.6675 -1.9201
 6041TIP3   OH239537   5.354   4.440   5.671  0.3102 -0.3524 -0.4154
 6041TIP3    H139538   5.303   4.422   5.750  0.2959  0.3675 -0.2570
 6041TIP3    H239539   5.391   4.355   5.647  0.3035 -0.5797  0.3520
 6042TIP3   OH239540   5.393   1.794  16.332 -0.0374 -0.4201  0.6923
 6042TIP3    H139541   5.407   1.886  16.313  0.0368 -0.7383 -0.9439
 6042TIP3    H239542   5.302   1.778  16.306  0.2596 -1.0257 -0.0083
 6043TIP3   OH239543   0.557   5.268  14.329 -0.1974 -0.5652 -0.5438
 6043TIP3    H139544   0.522   5.225  14.251  0.4591 -0.8593 -0.6804
 6043TIP3    H239545   0.507   5.230  14.401 -1.1819  0.0973 -0.8568
 6044TIP3   OH239546   6.526   3.527  11.552  0.2391  0.0232  0.2063
 6044TIP3    H139547   6.608   3.514  11.599  1.3336  0.9055 -1.3523
 6044TIP3    H239548   6.550   3.581  11.477 -1.8516  0.6304 -0.0898
 6045TIP3   OH239549   1.721   6.578   1.535 -0.6021  0.3607 -0.1909
 6045TIP3    H139550   1.740   6.517   1.606  1.1116  1.6763  0.5666
 6045TIP3    H239551   1.648   6.539   1.488 -0.9414 -1.1900  1.5247
 6046TIP3   OH239552   5.708   3.809   4.060 -0.2340  0.2561  0.1681
 6046TIP3    H139553   5.653   3.731   4.052 -0.6929  0.6730 -1.0202
 6046TIP3    H239554   5.797   3.776   4.065 -0.5570 -0.4779  2.8011
 6047TIP3   OH239555   3.603   1.626   4.354 -0.0729  0.1135 -0.2754
 6047TIP3    H139556   3.571   1.580   4.431 -1.2964  0.2795 -0.6713
 6047TIP3    H239557   3.544   1.700   4.343  1.1708  1.1290 -0.3348
 6048TIP3   OH239558   2.384   2.631  16.722 -0.5319  0.6133  0.1954
 6048TIP3    H139559   2.400   2.537  16.726 -1.2613  0.5179  1.1949
 6048TIP3    H239560   2.330   2.643  16.644  1.4515  0.5256 -1.2697
 6049TIP3   OH239561   4.063   2.669   5.974 -0.1751 -0.8415 -0.2653
 6049TIP3    H139562   4.088   2.747   6.023 -0.2958  0.2567 -1.8980
 6049TIP3    H239563   4.146   2.626   5.953 -0.0238 -0.4119 -0.5489
 6050TIP3   OH239564   3.394   0.116  16.031  0.1202  0.3394 -0.0786
 6050TIP3    H139565   3.362   0.186  15.974 -2.4238 -1.5572 -1.2035
 6050TIP3    H239566   3.388   0.037  15.978  1.6917 -0.9622  1.5396
 6051TIP3   OH239567   3.869   4.309  13.758  0.0827 -0.5461 -0.1000
 6051TIP3    H139568   3.819   4.229  13.777 -0.4878 -0.0991  0.2908
 6051TIP3    H239569   3.950   4.299  13.809  0.7944 -1.6428 -1.3473
 6052TIP3   OH239570   4.135   5.453  14.769 -0.2159 -0.1051 -0.0227
 6052TIP3    H139571   4.181   5.396  14.830 -1.3354 -0.1756  0.7714
 6052TIP3    H239572   4.067   5.398  14.730 -1.5943  0.7434  1.0725
 6053TIP3   OH239573   4.491   4.519   3.000  0.1562 -0.0025 -0.2010
 6053TIP3    H139574   4.539   4.519   2.918  0.7130 -0.5452  0.1160
 6053TIP3    H239575   4.557   4.536   3.067 -0.2353  0.0942  0.1659
 6054TIP3   OH239576   2.566   2.795   0.244  0.2896  0.0061  0.0521
 6054TIP3    H139577   2.512   2.851   0.188 -2.1879 -0.8153  1.4226
 6054TIP3    H239578   2.591   2.851   0.318  0.0788  0.0237  0.1109
 6055TIP3   OH239579   5.614   3.952  12.173  0.8310  0.2135  0.6210
 6055TIP3    H139580   5.587   3.941  12.083  0.3339  0.1217  0.7808
 6055TIP3    H239581   5.690   3.894  12.183  1.1128  0.4966  0.1669
 6056TIP3   OH239582   0.292   2.115   4.638 -0.0510 -0.0926  0.3945
 6056TIP3    H139583   0.299   2.174   4.563 -1.1240  0.2714  0.5712
 6056TIP3    H239584   0.210   2.068   4.624  0.7318 -1.4828  0.3119
 6057TIP3   OH239585   3.131   2.068  15.843  0.5132  0.2595  0.2779
 6057TIP3    H139586   3.222   2.043  15.859  1.4635  2.5140 -1.1417
 6057TIP3    H239587   3.096   1.998  15.787  1.3578 -0.5987  0.7922
 6058TIP3   OH239588   4.326   1.736   1.913  0.0880 -0.3433 -0.1826
 6058TIP3    H139589   4.265   1.710   1.844  2.0484 -1.4451 -1.6173
 6058TIP3    H239590   4.407   1.756   1.866  0.6117  1.9483  1.5576
 6059TIP3   OH239591   0.306   4.111   0.389  0.4696  0.0442  0.6771
 6059TIP3    H139592   0.275   4.198   0.416 -0.3869  0.5236 -1.6586
 6059TIP3    H239593   0.369   4.129   0.320  0.6583 -1.1874  0.5149
 6060TIP3   OH239594   0.495   2.047  13.565 -0.5350  0.2021 -0.4028
 6060TIP3    H139595   0.588   2.044  13.545 -0.2378  0.0264  0.9396
 6060TIP3    H239596   0.457   1.974  13.516  0.2348 -0.5036  0.0364
 6061TIP3   OH239597   4.915   3.475  13.528  0.4039  0.5118 -0.4230
 6061TIP3    H139598   4.872   3.465  13.613  1.7854  1.8046  0.4947
 6061TIP3    H239599   4.879   3.405  13.474 -0.4144 -0.4399  1.2787
 6062TIP3   OH239600   4.436   5.627   4.209  0.3742 -0.2572 -0.7283
 6062TIP3    H139601   4.488   5.558   4.249  0.4357 -0.4211 -1.0838
 6062TIP3    H239602   4.367   5.580   4.162  0.5301 -0.0834 -1.1308
 6063TIP3   OH239603   0.696   2.603   2.714 -0.7164 -0.3097 -0.7676
 6063TIP3    H139604   0.707   2.545   2.638 -0.5008  1.4815 -2.1781
 6063TIP3    H239605   0.785   2.634   2.733 -1.0668  1.1819 -1.4184
 6064TIP3   OH239606   6.205   3.389   4.478 -0.3620 -0.5757 -0.0588
 6064TIP3    H139607   6.130   3.332   4.467  0.1755 -1.6646  1.4859
 6064TIP3    H239608   6.254   3.381   4.396 -0.5978 -1.8968 -0.0904
 6065TIP3   OH239609   4.104   4.280  12.652 -0.1202 -0.4660 -0.0781
 6065TIP3    H139610   4.079   4.332  12.729 -2.6402 -1.6613  0.0148
 6065TIP3    H239611   4.044   4.206  12.653  1.1645 -1.6165 -2.0772
 6066TIP3   OH239612   2.701   3.837  11.890  0.1295 -0.2469  0.2628
 6066TIP3    H139613   2.771   3.774  11.872 -0.5519 -0.9389 -0.0221
 6066TIP3    H239614   2.646   3.834  11.811 -0.0110  0.5798  0.3200
 6067TIP3   OH239615   5.881   0.527  11.390 -0.8796  0.2353  0.2057
 6067TIP3    H139616   5.853   0.594  11.453  1.2570  2.3990 -0.9880
 6067TIP3    H239617   5.898   0.575  11.309  1.7404 -1.5182 -0.4281
 6068TIP3   OH239618   1.969   4.052  13.902  0.2434  0.0279 -0.0413
 6068TIP3    H139619   1.883   4.013  13.916  0.7828 -2.5887 -2.8906
 6068TIP3    H239620   1.954   4.119  13.835  0.4001 -0.4765 -0.5898
 6069TIP3   OH239621   5.902   2.208   0.279 -0.3108  0.1982  0.2326
 6069TIP3    H139622   5.945   2.234   0.197  0.2216 -1.0999  0.0718
 6069TIP3    H239623   5.829   2.269   0.288 -0.4772  0.2659 -1.2949
 6070TIP3   OH239624   5.310   3.338   4.229 -0.1012 -0.2396  0.4082
 6070TIP3    H139625   5.241   3.291   4.277 -0.0586  0.0211  0.7283
 6070TIP3    H239626   5.265   3.377   4.154 -0.3218 -0.0009  0.6616
 6071TIP3   OH239627   6.340   0.408  12.427  0.1565  0.2789  0.1967
 6071TIP3    H139628   6.369   0.415  12.336 -0.3202  0.3051  0.0429
 6071TIP3    H239629   6.383   0.329  12.459  0.2190  0.1894 -0.0976
 6072TIP3   OH239630   1.684   4.007   2.392  0.6148  0.0283 -0.4260
 6072TIP3    H139631   1.679   3.914   2.417  0.3269  0.1049 -0.1871
 6072TIP3    H239632   1.704   4.052   2.474 -0.8552  0.3355 -0.2048
 6073TIP3   OH239633   4.055   4.598  13.935 -0.1234  0.2828  0.0672
 6073TIP3    H139634   4.091   4.608  13.846 -1.3380 -0.6780 -0.5616
 6073TIP3    H239635   4.130   4.571  13.988  0.4436  0.0260 -0.8328
 6074TIP3   OH239636   1.956   3.063   2.159 -0.1570  0.2536 -0.3153
 6074TIP3    H139637   2.027   3.115   2.196  0.6119 -0.6733 -0.4542
 6074TIP3    H239638   1.883   3.124   2.152  0.7692  1.3664 -0.6337
 6075TIP3   OH239639   4.407   2.197   1.206 -0.7909 -0.2732  0.0898
 6075TIP3    H139640   4.392   2.277   1.256  0.1859  0.4532 -0.7202
 6075TIP3    H239641   4.495   2.169   1.232 -1.3532 -1.4423  0.8098
 6076TIP3   OH239642   6.368   1.333  11.032 -0.3488 -0.1784 -0.0442
 6076TIP3    H139643   6.282   1.342  11.073 -0.4498 -0.2976 -0.2254
 6076TIP3    H239644   6.424   1.298  11.101 -0.3448  0.2943  0.1953
 6077TIP3   OH239645   3.142   2.452  15.162  0.0933 -1.4853  0.1496
 6077TIP3    H139646   3.054   2.461  15.123 -0.0133 -3.6619 -0.2249
 6077TIP3    H239647   3.127   2.404  15.243  0.7881 -0.3853  0.9556
 6078TIP3   OH239648   6.573   2.820   1.327  0.4640 -0.2963 -0.0269
 6078TIP3    H139649   6.480   2.831   1.346  0.7910 -1.9716  3.1262
 6078TIP3    H239650   6.613   2.901   1.360  0.2280  0.2475 -1.0172
 6079TIP3   OH239651   0.944   1.025  11.435 -0.3182 -0.7441 -0.4575
 6079TIP3    H139652   0.864   1.053  11.480  0.3696  1.1238 -0.3226
 6079TIP3    H239653   0.913   0.983  11.354 -1.4355 -0.0986 -0.3776
 6080TIP3   OH239654   6.299   4.009  12.895  0.3397  0.3729 -0.0498
 6080TIP3    H139655   6.270   3.974  12.811 -1.5147  3.0188 -0.6079
 6080TIP3    H239656   6.227   3.988  12.955  0.6462  0.4597  0.3503
 6081TIP3   OH239657   3.782   1.747   0.475  0.0354  0.0071 -0.1039
 6081TIP3    H139658   3.827   1.766   0.557  0.9847  0.2902 -0.6692
 6081TIP3    H239659   3.736   1.665   0.491  2.2221 -1.2969 -0.0277
 6082TIP3   OH239660   6.696   3.021  13.192 -0.3232 -0.7671 -0.3699
 6082TIP3    H139661   6.603   3.003  13.176 -0.6192 -0.1194  0.5234
 6082TIP3    H239662   6.741   2.943  13.161 -1.0749 -0.7074 -1.7317
 6083TIP3   OH239663   4.972   2.328  15.835  0.4048 -0.0331 -0.1861
 6083TIP3    H139664   5.049   2.302  15.785  0.8881 -2.4599  1.6159
 6083TIP3    H239665   5.002   2.334  15.925 -1.2713  0.1008  0.4062
 6084TIP3   OH239666   4.460   1.272  13.573 -0.3703 -0.2156 -0.1726
 6084TIP3    H139667   4.373   1.307  13.590 -0.4989 -0.4376 -0.3641
 6084TIP3    H239668   4.462   1.256  13.479 -0.0379  0.0113 -0.2038
 6085TIP3   OH239669   1.257   5.173  12.984  0.7528  0.7328  0.1903
 6085TIP3    H139670   1.214   5.092  12.955 -0.3604  0.4874  2.2998
 6085TIP3    H239671   1.315   5.145  13.055  0.9080  1.6943  0.4582
 6086TIP3   OH239672   3.517   2.121   0.853  0.2256 -0.5344  0.1986
 6086TIP3    H139673   3.471   2.060   0.795  2.0679 -1.2491 -0.5939
 6086TIP3    H239674   3.466   2.121   0.934 -1.4714 -0.8010 -0.8461
 6087TIP3   OH239675   3.039   0.903  16.065  0.5406  0.3395 -0.2929
 6087TIP3    H139676   3.057   0.812  16.088 -0.1018  0.1181 -0.6469
 6087TIP3    H239677   3.109   0.953  16.107  0.7180 -0.2867  0.1607
 6088TIP3   OH239678   2.736   0.243  11.000  0.2832  0.0530  0.5698
 6088TIP3    H139679   2.775   0.251  10.913  0.4676  0.0185  0.6487
 6088TIP3    H239680   2.764   0.158  11.032 -0.1145 -0.1064  0.5037
 6089TIP3   OH239681   6.185   1.173  12.789  0.3844  0.4120 -0.3067
 6089TIP3    H139682   6.159   1.081  12.779  0.2259  0.2647  1.1458
 6089TIP3    H239683   6.242   1.173  12.866 -1.3069  1.8238  1.0368
 6090TIP3   OH239684   1.712   2.362   1.229  0.8071  0.3498  0.6421
 6090TIP3    H139685   1.726   2.314   1.147  0.3068  0.3591  0.5510
 6090TIP3    H239686   1.678   2.447   1.201  2.6011  1.1547  0.7325
 6091TIP3   OH239687   0.537   6.757  12.023 -0.5145  0.5394 -0.0812
 6091TIP3    H139688   0.522   6.784  12.113 -2.1042 -1.2621  0.2634
 6091TIP3    H239689   0.597   6.823  11.988  3.2148 -0.6376  3.3221
 6092TIP3   OH239690   3.442   4.007   2.821  0.1133 -0.3923 -0.2504
 6092TIP3    H139691   3.352   4.037   2.835  0.5491  0.6226  0.5226
 6092TIP3    H239692   3.497   4.079   2.853  1.2067 -1.0780 -0.5133
 6093TIP3   OH239693   5.800   2.947  12.929  0.1046 -0.0965  0.0075
 6093TIP3    H139694   5.875   2.980  12.978  0.4078  1.9558 -1.7154
 6093TIP3    H239695   5.761   2.881  12.987  2.7195 -0.6481  1.2822
 6094TIP3   OH239696   2.102   1.280  16.665  0.5773 -0.5615  0.5727
 6094TIP3    H139697   2.012   1.251  16.657  0.2841  0.0546  1.5119
 6094TIP3    H239698   2.104   1.332  16.745  1.9566 -1.2893  1.0553
 6095TIP3   OH239699   4.217   5.337   0.401 -0.1287  0.1626 -0.0325
 6095TIP3    H139700   4.265   5.283   0.338 -3.2371 -1.5075 -1.2530
 6095TIP3    H239701   4.193   5.276   0.471 -0.7481  0.8318  0.3543
 6096TIP3   OH239702   3.131   5.372  14.216 -0.0657  0.0046 -0.2954
 6096TIP3    H139703   3.101   5.288  14.181 -1.9065  0.0349  1.0660
 6096TIP3    H239704   3.214   5.352  14.259 -0.1296 -0.9802 -0.6089
 6097TIP3   OH239705   4.332   0.882  16.037 -0.0018 -0.5818  0.0845
 6097TIP3    H139706   4.423   0.869  16.010 -0.6210 -1.8666 -1.5778
 6097TIP3    H239707   4.330   0.970  16.074  2.0186 -0.7289  0.6591
 6098TIP3   OH239708   3.927   2.024  11.724  0.1915  0.7335 -0.2257
 6098TIP3    H139709   3.883   2.072  11.654  1.4912 -1.2418 -2.5428
 6098TIP3    H239710   4.019   2.049  11.715  0.4984 -0.2071  0.2297
 6099TIP3   OH239711   0.810   6.387  16.543 -0.1121  0.1514 -0.0462
 6099TIP3    H139712   0.778   6.352  16.626 -1.7944  0.6053 -0.4712
 6099TIP3    H239713   0.888   6.437  16.566  0.1112 -0.6804  1.0926
 6100TIP3   OH239714   3.181   2.114   5.954  0.0871  0.1240  0.2310
 6100TIP3    H139715   3.256   2.123   6.012 -0.9110  1.1510  1.4174
 6100TIP3    H239716   3.115   2.070   6.007 -1.4337  2.5765  0.5237
 6101TIP3   OH239717   6.663   6.239  16.565 -0.0961 -0.1002  0.5738
 6101TIP3    H139718   6.661   6.147  16.537  2.0202 -0.3184  0.9616
 6101TIP3    H239719   6.614   6.240  16.648  0.5895 -1.0741  1.0126
 6102TIP3   OH239720   3.769   5.667   5.714 -0.6699  0.0161 -0.3909
 6102TIP3    H139721   3.762   5.572   5.705  1.0343 -0.0973 -0.8266
 6102TIP3    H239722   3.773   5.699   5.624  0.6842  0.2988 -0.2552
 6103TIP3   OH239723   2.849   3.509   5.442 -0.2801 -0.5086  0.5301
 6103TIP3    H139724   2.817   3.426   5.405 -1.7532 -0.0027  0.6043
 6103TIP3    H239725   2.864   3.565   5.366 -1.5582 -0.0783  0.5693
 6104TIP3   OH239726   1.786   6.348   2.169 -0.2082  0.0129  0.0845
 6104TIP3    H139727   1.705   6.374   2.124  0.6819 -0.9108 -2.2371
 6104TIP3    H239728   1.770   6.258   2.197  0.0120 -0.2045 -0.4629
 6105TIP3   OH239729   1.786   5.756  13.610  0.0449  0.1245 -0.0143
 6105TIP3    H139730   1.799   5.707  13.691 -0.9505 -0.3870 -0.1490
 6105TIP3    H239731   1.805   5.847  13.634 -2.0177  0.2712  1.2885
 6106TIP3   OH239732   2.415   2.215  15.258 -0.4230 -0.8107  0.6287
 6106TIP3    H139733   2.379   2.286  15.310 -2.0765 -1.2764  0.1657
 6106TIP3    H239734   2.410   2.246  15.168  1.1159 -0.5752  0.5873
 6107TIP3   OH239735   5.019   6.478  13.047  0.1985  0.5630  0.4573
 6107TIP3    H139736   5.064   6.414  12.991 -0.3131  0.0673  0.6080
 6107TIP3    H239737   4.966   6.530  12.986 -1.6993 -1.0805  0.6251
 6108TIP3   OH239738   2.126   3.535  15.887  0.1933  0.6979 -0.1605
 6108TIP3    H139739   2.155   3.626  15.876 -3.2775  1.9439 -0.0031
 6108TIP3    H239740   2.161   3.510  15.973  0.5146  2.1740  0.1739
 6109TIP3   OH239741   0.271   4.040   5.425  0.3931 -0.3180  0.4572
 6109TIP3    H139742   0.259   3.952   5.460 -1.6498 -0.8372 -1.3527
 6109TIP3    H239743   0.252   4.098   5.499  2.6470 -1.2933  1.9364
 6110TIP3   OH239744   3.445   4.703   3.342  0.3123  0.1469 -0.6576
 6110TIP3    H139745   3.511   4.656   3.292  1.0717  1.0444 -0.5355
 6110TIP3    H239746   3.492   4.777   3.380 -0.5104  0.1519  0.4024
 6111TIP3   OH239747   1.170   3.388  10.197 -0.3528 -0.2109  0.0312
 6111TIP3    H139748   1.138   3.476  10.176 -0.0890 -0.5487 -1.9825
 6111TIP3    H239749   1.102   3.351  10.253 -0.2345  1.4143  1.3209
 6112TIP3   OH239750   3.313   5.216  15.320 -0.1625  0.3408 -0.3572
 6112TIP3    H139751   3.406   5.202  15.336 -0.1623 -2.8165 -2.3048
 6112TIP3    H239752   3.309   5.252  15.232 -0.8054 -0.3456 -0.6170
 6113TIP3   OH239753   0.512   4.408   1.147 -0.7508 -0.6997 -0.1196
 6113TIP3    H139754   0.444   4.436   1.087 -1.0402 -1.1536 -0.0101
 6113TIP3    H239755   0.562   4.488   1.167 -2.7450  0.1827  1.7236
 6114TIP3   OH239756   6.775   2.635  14.415  0.2720  0.1859 -0.1671
 6114TIP3    H139757   6.865   2.647  14.445  0.2107  1.3595 -0.4245
 6114TIP3    H239758   6.724   2.622  14.495  0.6351 -0.3223 -0.0113
 6115TIP3   OH239759   1.011   1.985  11.878 -0.1611 -0.4899  0.5137
 6115TIP3    H139760   0.918   2.002  11.859  0.1797  1.5180  0.4832
 6115TIP3    H239761   1.053   1.985  11.792  0.2511  1.2961  0.6803
 6116TIP3   OH239762   6.172   1.128  13.887 -0.3169 -0.1264  0.2608
 6116TIP3    H139763   6.194   1.118  13.979  0.4055 -0.7748  0.0314
 6116TIP3    H239764   6.216   1.209  13.860 -0.1134 -0.2016  0.3656
 6117TIP3   OH239765   5.377   1.166  10.443 -0.3640 -0.5337  0.7951
 6117TIP3    H139766   5.287   1.139  10.423 -0.8705  0.8576  1.0530
 6117TIP3    H239767   5.428   1.138  10.367 -0.9413 -1.6660  0.8135
 6118TIP3   OH239768   1.618   5.902  11.726 -0.5615  0.1736  0.4203
 6118TIP3    H139769   1.661   5.904  11.640 -0.5728 -2.4955  0.2789
 6118TIP3    H239770   1.540   5.957  11.714  0.0634  0.8450 -0.8854
 6119TIP3   OH239771   5.611   4.704  15.276  0.1030  0.1662  0.1394
 6119TIP3    H139772   5.521   4.702  15.244  0.3063 -0.7544 -0.4216
 6119TIP3    H239773   5.654   4.771  15.224 -0.2434  0.5773  0.3779
 6120TIP3   OH239774   6.064   6.624  12.958 -0.1729 -0.3888  0.3491
 6120TIP3    H139775   6.073   6.716  12.934 -0.5024 -0.6949 -1.0174
 6120TIP3    H239776   5.972   6.615  12.983 -0.2946 -0.4690 -0.1151
 6121TIP3   OH239777   2.729   3.449  14.290 -0.1622 -0.0326  0.3389
 6121TIP3    H139778   2.771   3.494  14.216 -0.8988 -0.1101 -0.1317
 6121TIP3    H239779   2.658   3.399  14.250 -0.1887 -0.5469  1.0328
 6122TIP3   OH239780   3.061   1.800  11.639 -0.6123 -0.0464  0.2853
 6122TIP3    H139781   3.002   1.835  11.706 -2.1677  0.2542 -1.1728
 6122TIP3    H239782   3.042   1.853  11.562  0.0114 -1.3970 -0.8282
 6123TIP3   OH239783   1.175   2.457  10.513  0.1055 -0.0690 -0.0299
 6123TIP3    H139784   1.156   2.390  10.580 -0.2822  0.6935  0.6447
 6123TIP3    H239785   1.098   2.514  10.516  0.6431  0.6652 -0.2788
 6124TIP3   OH239786   1.129   1.578  14.816 -0.2478  0.0318 -0.3678
 6124TIP3    H139787   1.074   1.540  14.747  0.2452 -2.0622  0.3200
 6124TIP3    H239788   1.078   1.651  14.849 -1.8179 -0.7417 -0.9730
 6125TIP3   OH239789   1.630   6.474  15.320 -0.0934 -0.1114  0.3161
 6125TIP3    H139790   1.672   6.405  15.371  0.1558  0.2118  0.5545
 6125TIP3    H239791   1.688   6.550  15.331  0.7990 -0.4394 -1.6778
 6126TIP3   OH239792   4.113   0.105   0.449 -0.1484 -0.1280 -0.0585
 6126TIP3    H139793   4.055   0.120   0.523 -0.1901  1.6353 -0.3990
 6126TIP3    H239794   4.081   0.024   0.409 -2.1923  0.6391 -0.0599
 6127TIP3   OH239795   2.285   6.546  14.029  0.4310  0.4256 -0.0266
 6127TIP3    H139796   2.302   6.629  14.074  0.0319 -0.3710  1.7146
 6127TIP3    H239797   2.193   6.552  14.002  1.1030  1.5649 -2.3239
 6128TIP3   OH239798   2.212   5.100  10.247  0.5063  0.2307  0.0289
 6128TIP3    H139799   2.191   5.121  10.338  0.6697 -0.3435  0.2009
 6128TIP3    H239800   2.199   5.006  10.240 -0.7184  0.4513 -0.8759
 6129TIP3   OH239801   4.953   6.134   3.487  0.2877  0.0390  0.2424
 6129TIP3    H139802   4.937   6.205   3.424 -2.7281 -0.9934 -0.3093
 6129TIP3    H239803   4.955   6.055   3.434  0.9435 -0.5669  1.1419
 6130TIP3   OH239804   4.071   2.888  11.395 -0.3787  0.2858  0.2989
 6130TIP3    H139805   4.017   2.936  11.333 -0.2154 -1.8576 -1.6528
 6130TIP3    H239806   4.160   2.922  11.381 -0.0265 -1.3468 -2.0536
 6131TIP3   OH239807   3.447   1.763   0.214 -0.3547  0.4837  0.0482
 6131TIP3    H139808   3.409   1.770   0.126 -1.8951 -1.0124  0.5365
 6131TIP3    H239809   3.509   1.691   0.208  0.2032  0.9665 -0.0203
 6132TIP3   OH239810   6.813   1.938  15.987 -0.0328 -0.3457  0.5430
 6132TIP3    H139811   6.802   1.880  15.912  2.1696 -0.5823  0.3506
 6132TIP3    H239812   6.787   1.884  16.062  1.1536 -1.3193  0.2824
 6133TIP3   OH239813   5.808   3.047  12.135 -0.3418  0.2920  0.4805
 6133TIP3    H139814   5.844   2.968  12.096 -0.2728  0.7548 -0.4294
 6133TIP3    H239815   5.858   3.119  12.095  0.5568  0.7501  2.3328
 6134TIP3   OH239816   5.678   2.362  16.751  0.1141 -0.4995 -0.1560
 6134TIP3    H139817   5.677   2.367  16.847 -3.4013  0.1024 -0.1068
 6134TIP3    H239818   5.664   2.269  16.732  1.1707 -0.6748 -0.1170
 6135TIP3   OH239819   2.074   2.804  16.538  0.3981  0.2393 -0.1444
 6135TIP3    H139820   1.987   2.833  16.510  0.1928 -1.7787 -1.8646
 6135TIP3    H239821   2.121   2.885  16.559 -2.1098  1.3368  1.6398
 6136TIP3   OH239822   6.580   2.273   4.917  0.2539  0.0411  0.1450
 6136TIP3    H139823   6.506   2.333   4.918  1.2190  1.4980 -3.0199
 6136TIP3    H239824   6.549   2.197   4.868 -0.1617 -1.0052  1.9281
 6137TIP3   OH239825   5.688   2.864   0.995 -0.2153 -0.1250  0.1200
 6137TIP3    H139826   5.737   2.931   1.045 -1.3495  0.1814  0.8663
 6137TIP3    H239827   5.636   2.915   0.933  0.7400 -0.4771 -0.9903
 6138TIP3   OH239828   0.013   4.012   1.919  0.0575 -0.0724  0.1463
 6138TIP3    H139829   0.071   4.030   1.992  2.0032  2.1957 -1.7815
 6138TIP3    H239830   0.070   3.975   1.851 -1.2911 -0.3019 -0.9262
 6139TIP3   OH239831   3.692   4.965  13.863 -0.1728 -0.9685  0.5434
 6139TIP3    H139832   3.657   4.876  13.863  0.5212 -1.2840  2.1757
 6139TIP3    H239833   3.617   5.021  13.886 -0.7076 -1.0434 -0.8971
 6140TIP3   OH239834   1.211   4.469   5.862  0.1040 -0.5836 -0.2927
 6140TIP3    H139835   1.281   4.532   5.877 -0.3284 -0.2984  0.6191
 6140TIP3    H239836   1.176   4.451   5.949  0.5520 -2.4777 -0.4583
 6141TIP3   OH239837   0.541   0.612  12.753 -0.1363  0.2606  0.4676
 6141TIP3    H139838   0.476   0.570  12.697 -0.6227  1.1459  0.3542
 6141TIP3    H239839   0.616   0.553  12.752 -0.9718 -0.8292  0.6840
 6142TIP3   OH239840   6.800   6.620   3.470  0.5152 -0.7829 -0.0072
 6142TIP3    H139841   6.750   6.541   3.491  0.7885 -1.2990 -1.1841
 6142TIP3    H239842   6.877   6.616   3.527  1.6282 -2.5429 -1.5236
 6143TIP3   OH239843   1.856   4.272   2.849  0.1393 -0.0937 -0.4462
 6143TIP3    H139844   1.820   4.210   2.912 -0.5286  0.5763 -0.1474
 6143TIP3    H239845   1.807   4.353   2.864  1.0752  0.5522 -0.7260
 6144TIP3   OH239846   1.509   5.656  11.620 -0.2984  0.0881 -0.1351
 6144TIP3    H139847   1.546   5.711  11.689 -0.4558  0.3961 -0.2957
 6144TIP3    H239848   1.421   5.636  11.651 -0.1822 -0.2121  0.0019
 6145TIP3   OH239849   0.099   2.966   1.616  0.2125 -0.2735 -0.5950
 6145TIP3    H139850   0.120   3.000   1.703 -0.6879  0.5520 -0.6880
 6145TIP3    H239851   0.177   2.987   1.564 -0.2707  1.6052 -0.6219
 6146TIP3   OH239852   5.495   6.595   3.444  0.6142  0.3785  0.8519
 6146TIP3    H139853   5.503   6.683   3.481 -0.0426 -0.0445  2.0373
 6146TIP3    H239854   5.426   6.553   3.496 -1.0101  0.0323 -1.3996
 6147TIP3   OH239855   1.313   0.321  15.996 -0.0129  0.0677 -0.2384
 6147TIP3    H139856   1.278   0.279  15.917 -0.3681 -0.0957  0.0017
 6147TIP3    H239857   1.408   0.306  15.991  0.0886  0.9097 -1.1263
 6148TIP3   OH239858   2.632   3.011   0.409  0.1333 -0.3451  0.8437
 6148TIP3    H139859   2.586   3.072   0.467  0.4656 -2.0388  3.0374
 6148TIP3    H239860   2.690   3.067   0.357 -0.4084  1.2967  1.9144
 6149TIP3   OH239861   5.143   1.590  13.038  0.0579 -0.5992  0.2739
 6149TIP3    H139862   5.124   1.498  13.055 -0.6831 -0.1905  1.8864
 6149TIP3    H239863   5.068   1.637  13.074  0.5507  0.6540 -0.2784
 6150TIP3   OH239864   1.427   5.784   5.870 -0.0350  0.3630  0.2793
 6150TIP3    H139865   1.413   5.829   5.953  4.7805  0.2722  1.3927
 6150TIP3    H239866   1.432   5.692   5.892 -0.8909  0.0894 -0.5587
 6151TIP3   OH239867   6.641   4.303   5.716 -0.4642  0.3286  0.0525
 6151TIP3    H139868   6.616   4.325   5.806 -0.5438  0.7762 -0.0796
 6151TIP3    H239869   6.564   4.324   5.663 -0.2227  0.5928 -0.1950
 6152TIP3   OH239870   2.846   0.884  15.153 -0.1393  0.1258  0.1820
 6152TIP3    H139871   2.768   0.914  15.200 -0.2417  1.8090 -0.9839
 6152TIP3    H239872   2.818   0.802  15.111 -0.8625  0.0221  0.8253
 6153TIP3   OH239873   5.543   3.529   2.581 -0.6901  0.5787 -0.2529
 6153TIP3    H139874   5.617   3.542   2.641  1.4005  0.0281 -2.5226
 6153TIP3    H239875   5.497   3.453   2.615  1.5191 -0.8645 -0.2592
 6154TIP3   OH239876   6.241   6.256  13.994  0.2366 -0.4474 -0.1486
 6154TIP3    H139877   6.305   6.300  13.938 -0.0749  1.7204  1.1005
 6154TIP3    H239878   6.293   6.218  14.064  0.2495  0.8703  0.5850
 6155TIP3   OH239879   5.641   0.029   1.953  0.5674  0.4732  0.8049
 6155TIP3    H139880   5.593   0.091   2.008  1.6405  1.9181  0.1685
 6155TIP3    H239881   5.590   0.024   1.873  0.5101  0.5796  0.8336
 6156TIP3   OH239882   0.420   2.082  16.879  0.0383  0.3149 -0.0750
 6156TIP3    H139883   0.417   2.167  16.835 -2.1804  0.7197  0.7486
 6156TIP3    H239884   0.372   2.024  16.821  1.5344 -0.4252 -0.6249
 6157TIP3   OH239885   0.083   6.328  11.040  0.4344 -0.2929 -0.4889
 6157TIP3    H139886   0.063   6.263  11.106  0.4070  0.9761  0.8011
 6157TIP3    H239887   0.179   6.328  11.033  0.3930 -2.4584 -2.6397
 6158TIP3   OH239888   2.704   5.643  12.556 -0.3810  0.0131 -0.1229
 6158TIP3    H139889   2.644   5.601  12.618 -0.2291 -2.7670 -1.6863
 6158TIP3    H239890   2.783   5.659  12.606 -0.1370 -2.5014  0.4176
 6159TIP3   OH239891   0.503   4.977  15.120  0.2693  0.1871 -0.2916
 6159TIP3    H139892   0.521   4.967  15.214  1.0657 -0.9820 -0.5578
 6159TIP3    H239893   0.589   4.985  15.080 -0.0176 -0.4794 -1.0562
 6160TIP3   OH239894   5.805   5.189  14.485  0.2776  0.0264  0.1142
 6160TIP3    H139895   5.888   5.234  14.469  1.1804 -0.6825  2.3933
 6160TIP3    H239896   5.740   5.259  14.487  0.4562  0.4792 -3.1551
 6161TIP3   OH239897   3.718   4.446   3.830 -0.5498 -0.4212  0.5296
 6161TIP3    H139898   3.679   4.360   3.848 -0.0670 -1.0388 -1.1029
 6161TIP3    H239899   3.745   4.441   3.738 -1.5729  1.9072  0.0331
 6162TIP3   OH239900   2.369   4.111  12.753 -0.6206 -0.3574 -0.1310
 6162TIP3    H139901   2.379   4.016  12.747  2.1431 -0.0429 -3.2379
 6162TIP3    H239902   2.389   4.132  12.844  1.1328 -2.5895  0.0708
 6163TIP3   OH239903   4.814   6.385   4.937 -0.5204 -0.1448 -0.3824
 6163TIP3    H139904   4.813   6.375   4.842  0.8764  0.0906 -0.4448
 6163TIP3    H239905   4.774   6.305   4.970 -0.9009 -0.2836 -1.1607
 6164TIP3   OH239906   3.155   0.028  12.357 -0.4083  0.3118 -0.4131
 6164TIP3    H139907   3.117   0.108  12.321  1.1294  1.7528  0.9643
 6164TIP3    H239908   3.236   0.016  12.307 -1.4702 -1.4478 -1.8088
 6165TIP3   OH239909   3.803   5.938   2.028 -0.0180  0.2655 -0.2787
 6165TIP3    H139910   3.814   6.016   1.974  1.1749  0.4531  0.2017
 6165TIP3    H239911   3.796   5.971   2.118 -1.6297 -0.0648 -0.2532
 6166TIP3   OH239912   3.921   0.493   4.940 -0.7563 -0.0382  0.0595
 6166TIP3    H139913   4.016   0.486   4.932 -0.6095 -0.2931  1.8241
 6166TIP3    H239914   3.907   0.570   4.995 -1.5174 -0.7880  0.9391
 6167TIP3   OH239915   5.767   6.477  16.811  0.3968 -0.0867 -0.4748
 6167TIP3    H139916   5.818   6.421  16.753 -0.6744 -1.1235 -0.4565
 6167TIP3    H239917   5.686   6.429  16.826 -0.2115  1.0999  0.2295
 6168TIP3   OH239918   3.352   2.622  15.129 -0.1940  0.2891  0.5521
 6168TIP3    H139919   3.281   2.558  15.133 -1.3357  1.3416 -1.3613
 6168TIP3    H239920   3.309   2.707  15.126  0.7977  0.8936 -3.5992
 6169TIP3   OH239921   4.677   0.437   3.280  0.3359 -0.4387 -0.6104
 6169TIP3    H139922   4.666   0.398   3.366  0.9183  0.9465  0.1154
 6169TIP3    H239923   4.588   0.450   3.248  0.1132 -2.0577 -0.7802
 6170TIP3   OH239924   5.846   1.074   2.010 -0.0003 -0.6983 -0.2883
 6170TIP3    H139925   5.795   1.024   1.946  2.2546 -1.7993 -1.3391
 6170TIP3    H239926   5.876   1.009   2.074  0.4272 -0.1754  0.0521
 6171TIP3   OH239927   2.488   6.397  15.466  0.2670 -0.6011  0.4670
 6171TIP3    H139928   2.481   6.304  15.485  0.4755 -0.6832  0.1630
 6171TIP3    H239929   2.529   6.400  15.379 -0.7261 -0.2456  0.0041
 6172TIP3   OH239930   6.212   3.355  15.697 -0.4755 -0.3823  0.3169
 6172TIP3    H139931   6.287   3.309  15.733  0.2330  0.2134 -0.3596
 6172TIP3    H239932   6.168   3.291  15.642 -0.5483 -0.7718  0.8220
 6173TIP3   OH239933   4.063   5.210   5.300 -0.3586 -0.3240  0.3610
 6173TIP3    H139934   4.058   5.124   5.258  1.0760 -1.9491  3.2179
 6173TIP3    H239935   4.150   5.244   5.276 -0.4608 -0.1880  0.1785
 6174TIP3   OH239936   0.778   0.817   2.352 -0.6568  0.2351  0.1553
 6174TIP3    H139937   0.695   0.784   2.385 -1.2046  1.4957  0.0963
 6174TIP3    H239938   0.840   0.747   2.369 -1.6169 -0.5060  0.7141
 6175TIP3   OH239939   3.942   5.274  13.609 -0.2992  0.2592  0.3410
 6175TIP3    H139940   3.911   5.349  13.559  1.9745  1.6725  0.8903
 6175TIP3    H239941   3.871   5.211  13.605 -1.6374  1.7833 -1.5332
 6176TIP3   OH239942   4.340   0.150   2.297 -0.3317  0.3725 -0.4191
 6176TIP3    H139943   4.358   0.167   2.389 -0.0002 -0.0819 -0.3991
 6176TIP3    H239944   4.414   0.098   2.266  0.1399  1.4922 -1.2366
 6177TIP3   OH239945   4.152   5.706   5.538 -0.0783 -0.8965  0.2002
 6177TIP3    H139946   4.106   5.764   5.599  0.5996 -0.3549  0.1947
 6177TIP3    H239947   4.141   5.619   5.576 -0.0690 -0.6209  0.8457
 6178TIP3   OH239948   5.569   1.084   2.570  0.2400  0.3223 -0.4188
 6178TIP3    H139949   5.514   1.097   2.648 -0.2730  1.0600 -0.8945
 6178TIP3    H239950   5.658   1.098   2.602  0.1709 -0.7846  0.3371
 6179TIP3   OH239951   4.530   4.704   2.568 -0.4742 -0.7097 -0.7407
 6179TIP3    H139952   4.475   4.650   2.512  1.0729 -1.8260 -1.2564
 6179TIP3    H239953   4.562   4.644   2.635 -1.7995  0.4718  1.0228
 6180TIP3   OH239954   4.528   1.565  11.072 -0.7000 -0.4378  0.0318
 6180TIP3    H139955   4.513   1.502  11.002 -0.0254  0.5792 -1.0732
 6180TIP3    H239956   4.504   1.649  11.034 -1.7191 -0.0084  1.5178
 6181TIP3   OH239957   5.425   3.756  11.587  0.4626  0.0589 -0.5094
 6181TIP3    H139958   5.444   3.708  11.668  0.3669  0.8667  0.0046
 6181TIP3    H239959   5.495   3.821  11.581 -0.3881  1.0288 -0.2398
 6182TIP3   OH239960   2.796   4.160  16.483  0.1279  0.0368  0.1243
 6182TIP3    H139961   2.756   4.133  16.401  0.9755  0.9373 -0.5937
 6182TIP3    H239962   2.777   4.087  16.543 -0.0905 -0.8475 -0.9809
 6183TIP3   OH239963   4.892   6.408   1.567 -0.3408  0.5246 -0.6146
 6183TIP3    H139964   4.949   6.400   1.490  0.4953  1.2366 -0.0848
 6183TIP3    H239965   4.805   6.388   1.533 -0.1535  1.7960 -2.0009
 6184TIP3   OH239966   2.838   4.087   1.162  0.4067  0.1362  0.8230
 6184TIP3    H139967   2.885   4.018   1.115  1.6732 -0.6723  3.1412
 6184TIP3    H239968   2.877   4.168   1.131  1.1946 -0.3739  0.4626
 6185TIP3   OH239969   5.071   6.458   1.365 -0.0573  0.1479 -0.2783
 6185TIP3    H139970   5.146   6.512   1.338  3.5517 -2.4867  3.3182
 6185TIP3    H239971   5.046   6.411   1.285  0.4539  2.7935 -2.1355
 6186TIP3   OH239972   2.309   3.103  11.050 -0.1111  0.1763  0.2606
 6186TIP3    H139973   2.227   3.121  11.096 -1.4300 -1.3623 -1.3537
 6186TIP3    H239974   2.308   3.008  11.036  1.9860  0.1136  0.2278
 6187TIP3   OH239975   2.332   4.640  12.681 -0.3374  0.2732  0.1825
 6187TIP3    H139976   2.347   4.728  12.647 -0.6103 -0.3594 -1.6709
 6187TIP3    H239977   2.416   4.596  12.672 -0.4123  0.0954  0.3414
 6188TIP3   OH239978   5.413   1.233   3.789 -0.4141  0.5543 -0.8077
 6188TIP3    H139979   5.362   1.247   3.869 -0.5478 -1.8452 -0.3977
 6188TIP3    H239980   5.371   1.289   3.724 -0.9093  1.8233  0.5370
 6189TIP3   OH239981   1.631   3.985   5.462 -0.4256  0.0118  0.7890
 6189TIP3    H139982   1.606   4.000   5.553 -0.2843 -3.5288  1.5622
 6189TIP3    H239983   1.547   3.972   5.416 -0.4293 -0.5550  0.9474
 6190TIP3   OH239984   0.207   3.105  12.060 -0.1121 -0.2125 -0.4335
 6190TIP3    H139985   0.206   3.145  12.147  2.1460  2.3735 -1.4497
 6190TIP3    H239986   0.272   3.035  12.067 -0.5251 -0.5449  0.1459
 6191TIP3   OH239987   0.369   1.069   5.454  0.0935  0.4486  0.0538
 6191TIP3    H139988   0.364   1.152   5.502  0.0881 -0.2285  1.2847
 6191TIP3    H239989   0.424   1.013   5.509  2.6426  0.5370 -2.2102
 6192TIP3   OH239990   1.249   2.739   3.246  0.0921 -0.4163  0.0684
 6192TIP3    H139991   1.210   2.669   3.299  1.8613 -1.1973  0.4069
 6192TIP3    H239992   1.287   2.693   3.171  2.6052 -0.0852  1.0534
 6193TIP3   OH239993   4.094   5.055   0.247 -0.3575 -0.1207 -0.0903
 6193TIP3    H139994   4.175   5.077   0.202 -0.3960 -0.4556 -0.3291
 6193TIP3    H239995   4.027   5.108   0.202 -0.0893  1.1413  0.9481
 6194TIP3   OH239996   6.654   3.872  10.846  1.1378  0.3164  0.0055
 6194TIP3    H139997   6.639   3.885  10.752  1.3005  3.6928  0.3318
 6194TIP3    H239998   6.719   3.802  10.850  3.6223  2.2292 -2.6437
 6195TIP3   OH239999   4.298   4.925  15.546 -0.3390 -0.5661  0.0814
 6195TIP3    H140000   4.383   4.888  15.570 -0.2845 -1.1042 -0.8561
 6195TIP3    H240001   4.235   4.878  15.600 -0.2470 -1.9470 -0.9353
 6196TIP3   OH240002   6.212   3.403  11.871 -0.4542 -0.2143 -0.0209
 6196TIP3    H140003   6.198   3.403  11.776 -0.1110 -1.5469 -0.1003
 6196TIP3    H240004   6.293   3.453  11.883 -0.6500  0.2041 -0.3932
 6197TIP3   OH240005   4.536   5.168   2.814  0.6402  0.1767 -0.8461
 6197TIP3    H140006   4.543   5.263   2.812  0.5213  0.3148  1.8808
 6197TIP3    H240007   4.458   5.151   2.866  1.6480 -1.3851  0.2450
 6198TIP3   OH240008   1.301   5.997  11.242  0.2697  0.1077  0.0603
 6198TIP3    H140009   1.302   6.089  11.217 -0.5782  0.5021  1.3449
 6198TIP3    H240010   1.356   5.953  11.178 -1.6397  1.0329 -2.3592
 6199TIP3   OH240011   2.470   2.858  10.374  0.3313  0.8413 -0.4182
 6199TIP3    H140012   2.457   2.764  10.386 -0.9265  0.9439 -0.8203
 6199TIP3    H240013   2.549   2.878  10.424 -0.2017 -0.1654  0.8787
 6200TIP3   OH240014   1.602   0.593   2.912  0.0028 -0.0352 -0.1082
 6200TIP3    H140015   1.568   0.600   2.822 -0.3720  1.1107  0.1042
 6200TIP3    H240016   1.585   0.679   2.950 -0.3216 -0.6777  1.2416
 6201TIP3   OH240017   0.246   0.795   0.425 -0.0585 -0.1025  0.0366
 6201TIP3    H140018   0.331   0.828   0.394 -0.8560  0.6747 -1.4289
 6201TIP3    H240019   0.269   0.730   0.490  1.6793  0.1420 -0.2639
 6202TIP3   OH240020   5.722   0.377   0.895 -0.0224  0.0750  0.0871
 6202TIP3    H140021   5.774   0.454   0.919  2.5627 -1.8093  0.9955
 6202TIP3    H240022   5.718   0.379   0.800  2.1350  0.0874 -0.0442
 6203TIP3   OH240023   0.827   2.353  14.271  0.1244 -0.5378  0.3742
 6203TIP3    H140024   0.749   2.328  14.320  0.7304 -1.5961  0.8174
 6203TIP3    H240025   0.802   2.340  14.179 -0.5218  0.0359  0.4614
 6204TIP3   OH240026   1.217   4.582  13.588  0.7452  0.2625  0.4434
 6204TIP3    H140027   1.298   4.534  13.602  0.2796 -0.8163 -0.3726
 6204TIP3    H240028   1.246   4.670  13.563  1.7812 -0.6016 -1.7625
 6205TIP3   OH240029   5.822   6.363   1.135 -0.5104  0.2277 -0.0836
 6205TIP3    H140030   5.747   6.349   1.193  0.5620 -2.9543  0.7599
 6205TIP3    H240031   5.791   6.331   1.050  0.2495 -2.8145  0.6452
 6206TIP3   OH240032   4.101   3.141   4.745 -0.1732  0.0771  0.1503
 6206TIP3    H140033   4.196   3.152   4.742 -0.3993  3.8939  1.4813
 6206TIP3    H240034   4.080   3.135   4.838 -1.3174  0.5625 -0.0616
 6207TIP3   OH240035   3.763   5.066  12.037  0.0442 -0.5537 -0.1775
 6207TIP3    H140036   3.789   5.148  11.994  0.7480 -0.4426  0.4351
 6207TIP3    H240037   3.836   5.006  12.021 -0.4740 -1.0674 -0.6321
 6208TIP3   OH240038   6.781   6.176  10.568  0.1537 -0.0625  0.4252
 6208TIP3    H140039   6.685   6.172  10.574 -0.3483  2.9747 -2.6831
 6208TIP3    H240040   6.803   6.108  10.504  0.0260 -0.4220  0.7597
 6209TIP3   OH240041   4.897   1.963  10.183 -0.1306  0.1098  0.2482
 6209TIP3    H140042   4.978   1.984  10.230 -0.3397 -1.0986  1.1986
 6209TIP3    H240043   4.833   2.027  10.215  0.3477  0.8507 -0.2501
 6210TIP3   OH240044   1.895   6.594   4.099 -0.1233  0.1726 -0.4401
 6210TIP3    H140045   1.951   6.552   4.033  1.1518  0.4463  0.4317
 6210TIP3    H240046   1.945   6.586   4.181 -1.8331 -0.4868  0.5841
 6211TIP3   OH240047   3.763   3.616  13.209  0.4106  0.3207 -0.4013
 6211TIP3    H140048   3.707   3.665  13.270  1.1499 -2.3511  2.7060
 6211TIP3    H240049   3.704   3.553  13.168  0.7975 -2.1695  2.5155
 6212TIP3   OH240050   3.640   6.831   1.948 -0.8874 -0.3178  0.9436
 6212TIP3    H140051   3.650   6.759   1.886 -0.3732 -0.2222  0.9144
 6212TIP3    H240052   3.635   6.787   2.033 -1.6574 -0.4532  0.8399
 6213TIP3   OH240053   2.131   1.216  13.070  0.3156  0.0410 -0.1578
 6213TIP3    H140054   2.192   1.143  13.056  1.1499  0.5018  0.9347
 6213TIP3    H240055   2.059   1.177  13.119 -0.6462 -0.6528 -1.9998
 6214TIP3   OH240056   4.697   2.278   3.668  0.0952 -0.6470  0.3124
 6214TIP3    H140057   4.719   2.323   3.586 -0.6953 -1.1144 -0.1662
 6214TIP3    H240058   4.677   2.349   3.729  0.6989 -0.2949  0.1129
 6215TIP3   OH240059   4.680   5.048   3.663  0.2809  0.1819  0.3976
 6215TIP3    H140060   4.657   5.129   3.619  0.0879 -0.7944 -1.3948
 6215TIP3    H240061   4.776   5.047   3.662  0.4347  1.7035  3.0665
 6216TIP3   OH240062   6.432   5.211   2.542  0.5241 -0.2368  0.0134
 6216TIP3    H140063   6.436   5.129   2.592  0.0496  0.1347  0.6756
 6216TIP3    H240064   6.481   5.274   2.595  0.8970 -0.0816 -0.4998
 6217TIP3   OH240065   3.875   4.709   5.287 -0.2394 -0.1969  0.6594
 6217TIP3    H140066   3.818   4.693   5.211  0.1633 -1.2090  0.5415
 6217TIP3    H240067   3.839   4.653   5.356  0.6928 -0.9785  0.5302
 6218TIP3   OH240068   3.451   6.595   3.205 -0.2067 -0.2156  0.2474
 6218TIP3    H140069   3.537   6.558   3.184  0.3714  1.9624 -1.6678
 6218TIP3    H240070   3.470   6.686   3.229 -1.8193 -0.2566  1.8752
 6219TIP3   OH240071   2.585   3.981   1.534 -0.1925  0.5202 -0.0323
 6219TIP3    H140072   2.596   3.982   1.438 -0.7020 -1.2554 -0.1545
 6219TIP3    H240073   2.653   4.039   1.566  1.6014 -0.7121 -1.3754
 6220TIP3   OH240074   5.276   0.978   1.961 -0.1163 -0.1388  0.5949
 6220TIP3    H140075   5.258   1.070   1.980  0.4340  0.3782 -1.1308
 6220TIP3    H240076   5.298   0.977   1.867  0.1668 -1.9885  0.6365
 6221TIP3   OH240077   2.069   5.391   0.556  0.2363 -0.2686 -0.5929
 6221TIP3    H140078   2.021   5.320   0.600 -0.0267 -0.4514 -1.1754
 6221TIP3    H240079   2.152   5.351   0.532  0.2615 -0.2512 -0.5363
 6222TIP3   OH240080   1.249   2.784  15.875 -0.8726  0.1331  0.6416
 6222TIP3    H140081   1.332   2.805  15.832 -1.4109 -0.3528 -0.6858
 6222TIP3    H240082   1.194   2.750  15.805 -2.3242  0.7803  1.4389
 6223TIP3   OH240083   0.546   2.433  10.451  1.0596 -0.3305 -0.3303
 6223TIP3    H140084   0.574   2.414  10.361 -0.5126  3.2047 -1.7641
 6223TIP3    H240085   0.453   2.413  10.452  1.0860 -0.4346  0.5425
 6224TIP3   OH240086   3.683   5.333   2.466  0.4202 -0.1570 -0.3635
 6224TIP3    H140087   3.728   5.250   2.483  1.3673  0.0986 -1.4901
 6224TIP3    H240088   3.643   5.322   2.380  0.3030  0.4446 -0.3914
 6225TIP3   OH240089   0.103   0.629  13.648  0.0011  0.0381  0.3006
 6225TIP3    H140090   0.178   0.616  13.590  1.3081  1.1487  1.6614
 6225TIP3    H240091   0.027   0.621  13.591  1.1742 -0.4909 -1.2495
 6226TIP3   OH240092   1.982   1.129   5.661  0.4132 -0.3076 -0.5171
 6226TIP3    H140093   1.947   1.180   5.587  1.8940 -0.1210 -1.1226
 6226TIP3    H240094   2.021   1.195   5.719  1.1769 -0.6289 -0.6563
 6227TIP3   OH240095   6.204   0.296  11.803 -0.3906  0.2612  0.5175
 6227TIP3    H140096   6.263   0.295  11.728 -0.4096  1.6827  0.4648
 6227TIP3    H240097   6.178   0.204  11.814 -0.5249  0.0346 -1.3201
 6228TIP3   OH240098   2.872   4.606   2.357 -0.0888 -0.3412  0.5987
 6228TIP3    H140099   2.811   4.679   2.358 -0.7413 -0.8775  0.5831
 6228TIP3    H240100   2.929   4.622   2.433 -0.2866  0.1261  0.6530
 6229TIP3   OH240101   5.004   2.077  16.911 -0.1509  0.2635  0.0703
 6229TIP3    H140102   5.083   2.043  16.870  0.0988  1.1773 -0.2295
 6229TIP3    H240103   4.935   2.016  16.885  0.3083 -0.0823 -0.3400
 6230TIP3   OH240104   2.389   5.522  13.162  0.0023  0.4490  0.4108
 6230TIP3    H140105   2.425   5.434  13.162  1.1202  0.8812  1.0771
 6230TIP3    H240106   2.297   5.511  13.140  0.4834 -0.7179 -1.2371
 6231TIP3   OH240107   1.683   3.050  11.442 -0.0594 -0.0824 -0.2060
 6231TIP3    H140108   1.702   2.966  11.486  1.5848  0.5103  0.2938
 6231TIP3    H240109   1.667   3.111  11.514  0.2794  0.3691 -0.5108
 6232TIP3   OH240110   0.134   4.761  16.064  0.1875 -0.2508  0.1414
 6232TIP3    H140111   0.182   4.778  15.983 -0.1852 -1.8665 -0.4600
 6232TIP3    H240112   0.055   4.814  16.056 -0.3863 -1.2239 -1.1140
 6233TIP3   OH240113   2.641   0.207  10.327  0.0271  0.1222 -0.4612
 6233TIP3    H140114   2.609   0.117  10.334 -1.5305  0.7411  1.2020
 6233TIP3    H240115   2.597   0.242  10.249 -0.9732  0.0203  0.0400
 6234TIP3   OH240116   0.827   2.015  10.630 -0.4484 -0.6170 -0.0047
 6234TIP3    H140117   0.832   2.107  10.658  0.3232 -1.2715  2.1991
 6234TIP3    H240118   0.907   2.002  10.579 -2.2347  0.7997 -3.5008
 6235TIP3   OH240119   0.507   3.257   0.646 -0.1547 -0.2663 -0.2983
 6235TIP3    H140120   0.474   3.347   0.649  1.0475  0.2450 -1.4374
 6235TIP3    H240121   0.556   3.246   0.728 -0.1399  0.1837 -0.2462
 6236TIP3   OH240122   4.791   1.701  14.653 -0.1440 -0.0260  0.2388
 6236TIP3    H140123   4.849   1.760  14.702 -0.1330 -0.1629  0.3949
 6236TIP3    H240124   4.761   1.753  14.578 -0.4832  0.3248  0.6091
 6237TIP3   OH240125   6.104   3.049   5.391 -0.4060 -0.0565 -0.0419
 6237TIP3    H140126   6.025   3.096   5.364 -1.1185  0.4086  2.5735
 6237TIP3    H240127   6.162   3.117   5.425  0.0313 -0.6807  0.4715
 6238TIP3   OH240128   3.584   0.235  12.320  0.0589 -0.8335  0.2114
 6238TIP3    H140129   3.608   0.317  12.362 -1.3169 -0.3985  0.2056
 6238TIP3    H240130   3.666   0.202  12.283  0.3506  1.4932 -1.4345
 6239TIP3   OH240131   0.294   5.950  14.101 -0.1145 -0.1547  0.0769
 6239TIP3    H140132   0.200   5.940  14.085 -0.0959 -1.6110  0.6818
 6239TIP3    H240133   0.325   6.007  14.031 -1.4368  0.3049 -0.1570
 6240TIP3   OH240134   1.983   1.912   4.750  0.2244  0.4406 -0.0165
 6240TIP3    H140135   2.072   1.876   4.750  0.0646  0.0026 -0.8656
 6240TIP3    H240136   1.995   2.007   4.751  0.6637  0.3924  1.7023
 6241TIP3   OH240137   6.266   3.644   5.283  0.5470  0.5049 -0.3196
 6241TIP3    H140138   6.239   3.582   5.215  0.2162  0.0102  0.2539
 6241TIP3    H240139   6.295   3.589   5.356 -0.1484  1.0046  0.3603
 6242TIP3   OH240140   1.269   0.662  10.783  0.6589  0.1477 -0.1532
 6242TIP3    H140141   1.208   0.616  10.725 -1.3213  1.7197  0.5525
 6242TIP3    H240142   1.341   0.690  10.726  0.2035 -0.8420 -1.2461
 6243TIP3   OH240143   4.306   1.099   2.382 -0.3242  0.2692 -0.0647
 6243TIP3    H140144   4.313   1.139   2.296  2.1244 -2.1086 -1.1222
 6243TIP3    H240145   4.397   1.085   2.410 -0.9566 -2.7997  0.9334
 6244TIP3   OH240146   6.159   1.658  11.352  0.1396  0.6269 -0.2805
 6244TIP3    H140147   6.157   1.751  11.332  0.7940  0.7702  0.2972
 6244TIP3    H240148   6.178   1.654  11.446  1.0187 -0.1060 -0.4780
 6245TIP3   OH240149   5.449   5.015   5.694  0.5113 -0.0970 -0.7154
 6245TIP3    H140150   5.458   4.919   5.693 -1.4220 -0.3132 -0.5583
 6245TIP3    H240151   5.454   5.039   5.787 -0.9889 -0.3008 -0.5555
 6246TIP3   OH240152   2.505   2.939  16.493 -0.0434  0.2860 -0.0800
 6246TIP3    H140153   2.544   2.852  16.507  0.2690  0.4522  0.0949
 6246TIP3    H240154   2.546   2.970  16.412  1.3514  1.0925  0.8846
 6247TIP3   OH240155   2.626   2.364  16.798  0.9264  0.1789 -0.6370
 6247TIP3    H140156   2.537   2.327  16.801  0.9153  0.2645  0.8977
 6247TIP3    H240157   2.675   2.304  16.741 -0.3427  0.7096 -2.3858
 6248TIP3   OH240158   6.139   0.544  11.671  0.2188  0.2321 -0.5490
 6248TIP3    H140159   6.068   0.586  11.719  0.0816  0.4809 -0.9658
 6248TIP3    H240160   6.139   0.453  11.703  0.2734  0.4440  0.0752
 6249TIP3   OH240161   1.159   5.595  11.399  0.3370  0.0103  0.1414
 6249TIP3    H140162   1.128   5.655  11.467  0.2917  0.7932 -0.5462
 6249TIP3    H240163   1.091   5.528  11.393  1.3377 -1.2962  2.3309
 6250TIP3   OH240164   4.447   4.087  15.163  0.1421  0.2667 -0.0534
 6250TIP3    H140165   4.423   4.123  15.078  0.8983 -0.4197 -0.5771
 6250TIP3    H240166   4.536   4.119  15.178 -0.3366  1.2140  0.9675
 6251TIP3   OH240167   4.360   2.708   0.493  0.0218 -0.1215  0.6042
 6251TIP3    H140168   4.417   2.670   0.561 -0.2843  1.2123  1.6653
 6251TIP3    H240169   4.329   2.633   0.443  1.4038 -1.0314  1.0310
 6252TIP3   OH240170   6.018   2.270   5.952  0.5870 -0.0396 -0.3732
 6252TIP3    H140171   6.054   2.196   6.001 -0.2331 -0.2329 -0.0440
 6252TIP3    H240172   5.924   2.253   5.950  0.2293  1.6108  0.7504
 6253TIP3   OH240173   5.312   6.550   1.230  0.2598 -0.1953 -0.3375
 6253TIP3    H140174   5.326   6.456   1.239  1.3297 -0.0817 -0.7111
 6253TIP3    H240175   5.329   6.569   1.138 -1.5890  0.1118 -0.6495
 6254TIP3   OH240176   6.749   6.110  13.443 -0.4240  0.0766  0.1452
 6254TIP3    H140177   6.685   6.178  13.424  0.8610  0.8012 -1.8711
 6254TIP3    H240178   6.705   6.028  13.419 -1.1444  0.3933  0.3431
 6255TIP3   OH240179   2.129   6.624  15.366  0.3260 -0.0328  0.3178
 6255TIP3    H140180   2.091   6.539  15.390 -0.3126  0.6651  1.8783
 6255TIP3    H240181   2.127   6.675  15.447  1.0077  1.3669 -0.5175
 6256TIP3   OH240182   0.261   2.361  15.704 -0.5456  0.1360 -0.3921
 6256TIP3    H140183   0.340   2.377  15.652 -1.3671 -0.1176 -1.7693
 6256TIP3    H240184   0.203   2.434  15.683 -0.4908  0.6328  1.0553
 6257TIP3   OH240185   4.746   3.996   2.961 -0.7299 -0.2254 -0.2651
 6257TIP3    H140186   4.663   3.949   2.950 -0.9744  0.2500 -0.4679
 6257TIP3    H240187   4.720   4.087   2.975 -0.1954  0.2231 -1.9854
 6258TIP3   OH240188   1.425   5.065   4.326 -0.0529  0.2080 -0.2381
 6258TIP3    H140189   1.494   5.009   4.361  0.0191 -0.6499 -1.6767
 6258TIP3    H240190   1.351   5.052   4.386  0.4982 -0.1522  0.3723
 6259TIP3   OH240191   0.993   6.298  12.114 -0.4034  0.6817 -0.0901
 6259TIP3    H140192   1.072   6.245  12.109 -1.4548 -1.0659  0.8529
 6259TIP3    H240193   0.937   6.265  12.044 -1.2362  0.2310  0.7675
 6260TIP3   OH240194   4.027   3.246   0.258 -0.1838  0.0295 -0.5703
 6260TIP3    H140195   4.000   3.162   0.296  0.6420 -1.2445 -2.6062
 6260TIP3    H240196   4.121   3.252   0.276 -0.6586  1.8942  1.8771
 6261TIP3   OH240197   1.983   4.250  10.681  0.3851 -0.3030  0.1649
 6261TIP3    H140198   1.984   4.338  10.644  1.0591  0.0684  1.0604
 6261TIP3    H240199   1.999   4.193  10.606 -0.9493  0.2527 -0.5868
 6262TIP3   OH240200   3.847   6.391   3.739 -0.6367  0.4362  0.2878
 6262TIP3    H140201   3.795   6.466   3.710 -1.2872  0.2914  1.0620
 6262TIP3    H240202   3.937   6.417   3.720 -1.0512  0.0097 -2.6082
 6263TIP3   OH240203   6.813   1.102   0.882  0.2421  0.4114  0.3250
 6263TIP3    H140204   6.857   1.020   0.903 -2.1601 -1.4424 -1.3524
 6263TIP3    H240205   6.862   1.137   0.808  0.5429 -0.1716  0.2438
 6264TIP3   OH240206   2.250   3.383   4.793 -0.6343 -0.3460 -0.4344
 6264TIP3    H140207   2.234   3.292   4.766 -0.1317  0.1637 -2.6022
 6264TIP3    H240208   2.166   3.413   4.828 -0.6174 -1.8385  1.0762
 6265TIP3   OH240209   4.052   2.099  16.574  0.3570 -0.1035  0.3094
 6265TIP3    H140210   4.070   2.191  16.593 -1.3724  0.4351 -0.3977
 6265TIP3    H240211   3.987   2.073  16.639 -0.4088 -0.3024 -0.5074
 6266TIP3   OH240212   5.615   2.986  15.827  0.0579  0.2274 -0.3162
 6266TIP3    H140213   5.625   2.977  15.732  1.0838  0.3213 -0.2335
 6266TIP3    H240214   5.671   2.917  15.863  0.6820  1.0063  0.2268
 6267TIP3   OH240215   0.468   1.598  13.977  0.7323  1.0254 -0.4316
 6267TIP3    H140216   0.510   1.583  13.892  1.8323  1.4046  0.0226
 6267TIP3    H240217   0.439   1.689  13.974 -0.7741  0.5502 -1.0271
 6268TIP3   OH240218   6.743   0.565   0.940 -0.5773 -0.1176 -0.5804
 6268TIP3    H140219   6.720   0.599   0.854 -1.4228 -1.8336 -1.0744
 6268TIP3    H240220   6.723   0.471   0.935  1.6322 -0.7371  0.6967
 6269TIP3   OH240221   3.937   2.195  12.112  0.1406 -0.3483 -0.1064
 6269TIP3    H140222   3.850   2.192  12.072 -0.0444 -2.7547  0.2961
 6269TIP3    H240223   3.921   2.176  12.204  1.0810 -1.0112 -0.0694
 6270TIP3   OH240224   5.533   0.260  12.874 -0.1907 -0.8188  0.6158
 6270TIP3    H140225   5.444   0.226  12.873  0.3106 -2.1749 -0.2249
 6270TIP3    H240226   5.540   0.306  12.958 -1.9269  0.0685  0.3125
 6271TIP3   OH240227   1.869   2.131   3.459 -0.2825 -0.0972 -0.1137
 6271TIP3    H140228   1.904   2.148   3.372 -1.2855 -1.6132 -0.8369
 6271TIP3    H240229   1.855   2.218   3.496  1.6677  0.5753 -0.8096
 6272TIP3   OH240230   3.965   4.189  11.627  0.0965  0.2086  0.5253
 6272TIP3    H140231   4.058   4.179  11.648  0.1552  1.3840  0.9195
 6272TIP3    H240232   3.957   4.154  11.538  1.1522  1.0827  0.0495
 6273TIP3   OH240233   6.413   3.398  16.951  0.4831  0.4529 -0.7270
 6273TIP3    H140234   6.456   3.462  16.894 -1.0236  0.0833 -2.3401
 6273TIP3    H240235   6.325   3.433  16.965 -0.0943 -0.8502 -0.9578
 6274TIP3   OH240236   5.174   6.348   3.327 -0.6671 -0.0265  0.2131
 6274TIP3    H140237   5.201   6.435   3.297 -1.7361  0.7224  1.3229
 6274TIP3    H240238   5.211   6.288   3.263  0.3446  1.2242 -0.4138
 6275TIP3   OH240239   4.660   5.769   4.848  0.0300  0.7988  0.2598
 6275TIP3    H140240   4.603   5.713   4.901  1.3166 -0.4525  0.3988
 6275TIP3    H240241   4.748   5.737   4.866  0.6697  1.7201 -1.0474
 6276TIP3   OH240242   6.162   2.350  14.755  0.0066 -0.3423 -0.3730
 6276TIP3    H140243   6.184   2.299  14.677  2.2147  0.8518 -0.6042
 6276TIP3    H240244   6.107   2.421  14.724 -2.9275 -2.3011 -0.0795
 6277TIP3   OH240245   5.060   5.879  16.400  0.0510  0.2471  0.5158
 6277TIP3    H140246   4.971   5.914  16.396 -0.9755 -2.1315  0.6149
 6277TIP3    H240247   5.072   5.836  16.315  0.8019 -0.1044  0.7945
 6278TIP3   OH240248   5.005   5.630  13.352  0.1736  0.2073  0.1462
 6278TIP3    H140249   5.096   5.602  13.351  0.1850  0.2411  0.2502
 6278TIP3    H240250   4.957   5.553  13.385  0.2104  0.3285  0.4834
 6279TIP3   OH240251   6.670   2.899   0.873 -0.4803 -0.0638 -0.2556
 6279TIP3    H140252   6.582   2.882   0.838 -1.0581 -0.3700  1.2842
 6279TIP3    H240253   6.670   2.857   0.959  1.0088  0.3950 -0.0128
 6280TIP3   OH240254   4.054   4.092   5.780  0.1915 -0.0443 -0.0280
 6280TIP3    H140255   4.085   4.040   5.854 -0.3643  0.6748  0.7148
 6280TIP3    H240256   4.122   4.158   5.767 -0.6672  1.1011  1.1594
 6281TIP3   OH240257   4.688   0.427  14.058 -0.9286 -0.5792 -0.1792
 6281TIP3    H140258   4.759   0.403  14.117 -1.4945 -0.0100  0.7609
 6281TIP3    H240259   4.619   0.363  14.076 -0.7014 -1.0763 -1.0246
 6282TIP3   OH240260   2.115   4.769  13.495 -0.7299  0.4085 -0.0587
 6282TIP3    H140261   2.051   4.752  13.565  1.5343 -1.1766  1.7918
 6282TIP3    H240262   2.120   4.686  13.447  1.0095 -0.0373  0.8195
 6283TIP3   OH240263   6.726   5.272  13.027 -0.2036 -0.5285  0.4856
 6283TIP3    H140264   6.697   5.242  13.113 -1.8698  1.6748  0.7988
 6283TIP3    H240265   6.718   5.368  13.032  1.7352 -0.2086 -1.4238
 6284TIP3   OH240266   5.843   1.380   0.155  0.5860  0.3978  0.0434
 6284TIP3    H140267   5.922   1.406   0.202  0.9724  2.7992 -1.7174
 6284TIP3    H240268   5.775   1.438   0.188 -0.0377 -0.4383  0.2646
 6285TIP3   OH240269   5.483   2.387   2.367 -0.5139 -0.3040 -0.8288
 6285TIP3    H140270   5.435   2.306   2.350  0.2683 -0.8516 -0.4415
 6285TIP3    H240271   5.567   2.359   2.404  0.5281  0.5868 -2.4102
 6286TIP3   OH240272   2.785   1.447   5.510 -0.6986  0.4555 -0.2930
 6286TIP3    H140273   2.799   1.353   5.499  0.0835  0.5448 -0.1162
 6286TIP3    H240274   2.746   1.456   5.597 -0.1554  0.3452 -0.0344
 6287TIP3   OH240275   3.678   6.590   3.674  0.0189  0.5086  0.6837
 6287TIP3    H140276   3.608   6.527   3.692 -0.7789  1.3326  0.5112
 6287TIP3    H240277   3.656   6.628   3.589 -1.0904  3.0602  2.0072
 6288TIP3   OH240278   2.183   2.576  14.142 -0.5673  0.1463 -0.7468
 6288TIP3    H140279   2.135   2.541  14.217  1.3076 -1.6942 -0.3303
 6288TIP3    H240280   2.209   2.499  14.092 -0.2343  1.2427 -2.3682
 6289TIP3   OH240281   5.262   0.502  12.959 -0.8466  0.3944 -0.1209
 6289TIP3    H140282   5.289   0.592  12.978  0.6882 -0.2424  0.9110
 6289TIP3    H240283   5.225   0.470  13.042 -1.1003 -0.0131 -0.3885
 6290TIP3   OH240284   3.470   0.361  15.467 -0.1412  0.0393 -0.6492
 6290TIP3    H140285   3.518   0.326  15.392  0.5670 -2.3225  0.8250
 6290TIP3    H240286   3.378   0.360  15.439  0.0750 -1.1318 -1.3633
 6291TIP3   OH240287   4.068   4.194   4.368 -1.0814  0.2069 -0.2349
 6291TIP3    H140288   4.071   4.153   4.282  0.3461 -0.9733  0.3400
 6291TIP3    H240289   4.052   4.122   4.429  1.1666  0.4418  0.7598
 6292TIP3   OH240290   1.538   5.238  13.954  0.1228 -0.1396 -0.4761
 6292TIP3    H140291   1.504   5.150  13.973  0.2783 -0.4712 -1.6885
 6292TIP3    H240292   1.461   5.286  13.923 -0.1385  0.4153  0.9423
 6293TIP3   OH240293   4.884   5.184   1.487 -0.3911 -0.2702  0.3086
 6293TIP3    H140294   4.791   5.190   1.463 -0.4076  0.7895  0.5896
 6293TIP3    H240295   4.908   5.273   1.512  0.6155 -0.6072  0.5842
 6294TIP3   OH240296   6.732   1.548   3.331 -0.1216  0.1474  0.3025
 6294TIP3    H140297   6.708   1.521   3.420 -2.6380  1.5830  0.1612
 6294TIP3    H240298   6.660   1.517   3.276 -0.7980  2.9096 -0.5249
 6295TIP3   OH240299   4.422   5.275   4.036 -0.0451  0.3103 -0.6981
 6295TIP3    H140300   4.468   5.320   3.965  0.2892  0.5060 -0.3610
 6295TIP3    H240301   4.490   5.224   4.080 -0.1066  0.7696 -0.0654
 6296TIP3   OH240302   4.901   4.619  16.454 -0.0276  0.0781 -0.4195
 6296TIP3    H140303   4.828   4.560  16.473  0.1641  0.2999  1.1751
 6296TIP3    H240304   4.862   4.706  16.454  0.3565  0.3125  1.5960
 6297TIP3   OH240305   5.089   2.629   4.148 -0.1934 -0.5091  0.1244
 6297TIP3    H140306   5.121   2.539   4.154 -0.8914 -0.7453  0.2847
 6297TIP3    H240307   5.087   2.647   4.054  0.9760 -0.2847  0.1270
 6298TIP3   OH240308   3.474   0.632   2.500  0.7420  0.0639  0.2605
 6298TIP3    H140309   3.541   0.607   2.437  1.0948 -1.5705  1.2146
 6298TIP3    H240310   3.391   0.602   2.461  0.7736  0.3951 -0.0703
 6299TIP3   OH240311   1.816   6.109  14.273  0.2674 -0.0518  0.2656
 6299TIP3    H140312   1.776   6.072  14.194 -0.7686 -1.1067  1.2337
 6299TIP3    H240313   1.909   6.117  14.252 -0.0079 -0.1666 -1.0996
 6300TIP3   OH240314   3.715   1.220  12.433 -0.2657 -0.4262  0.0136
 6300TIP3    H140315   3.756   1.303  12.456 -1.1494 -0.3095  1.2904
 6300TIP3    H240316   3.734   1.208  12.340  0.2422  0.9819 -0.0809
 6301TIP3   OH240317   3.195   5.289  16.513 -0.0327 -0.1618  0.0760
 6301TIP3    H140318   3.111   5.249  16.538 -0.7482  0.8164 -0.6647
 6301TIP3    H240319   3.237   5.224  16.458 -1.2647  0.1237 -1.2725
 6302TIP3   OH240320   4.265   0.986   1.407  0.3441  0.0183 -1.0648
 6302TIP3    H140321   4.342   1.004   1.462 -0.8546 -1.2085  1.1424
 6302TIP3    H240322   4.246   0.894   1.422 -1.4166  0.2358 -1.7715
 6303TIP3   OH240323   2.248   3.102  14.951 -0.0280  0.6025 -0.2369
 6303TIP3    H140324   2.250   3.082  15.045  1.8594  1.3609 -0.0806
 6303TIP3    H240325   2.266   3.196  14.946  1.4734  0.2911 -1.4034
 6304TIP3   OH240326   2.889   0.504  10.569  0.6706 -0.2519 -0.6367
 6304TIP3    H140327   2.828   0.566  10.529  1.5718  0.9655 -0.1771
 6304TIP3    H240328   2.933   0.553  10.638  1.8664 -1.2188 -0.6598
 6305TIP3   OH240329   2.411   5.148  15.157 -0.4678 -0.3451 -0.2648
 6305TIP3    H140330   2.363   5.066  15.170 -0.8969  0.1231  1.3863
 6305TIP3    H240331   2.483   5.144  15.220 -0.2858  0.3856 -0.4125
 6306TIP3   OH240332   5.863   6.287  13.626  0.0592 -0.2911 -0.1905
 6306TIP3    H140333   5.933   6.327  13.574  0.9297  0.0122  1.1592
 6306TIP3    H240334   5.905   6.265  13.709 -1.0176 -1.7711  0.0051
 6307TIP3   OH240335   1.739   6.048  10.527  0.5844  0.0732 -0.1749
 6307TIP3    H140336   1.702   6.122  10.478  0.9851 -0.5523 -1.4751
 6307TIP3    H240337   1.710   5.971  10.479  2.5018 -0.4926 -0.5162
 6308TIP3   OH240338   0.985   5.741  14.419 -0.2317  0.0856 -0.4744
 6308TIP3    H140339   0.891   5.750  14.405 -0.4320  0.3014  0.8692
 6308TIP3    H240340   1.020   5.714  14.334 -1.4198  0.6030 -1.1492
 6309TIP3   OH240341   2.812   0.913   4.372  0.4175  0.1961  0.2876
 6309TIP3    H140342   2.758   0.992   4.379  0.8409  0.4105  1.4070
 6309TIP3    H240343   2.772   0.863   4.301 -0.0861  1.2377 -0.1821
 6310TIP3   OH240344   1.191   1.827   0.184 -0.0640  0.2486 -0.3529
 6310TIP3    H140345   1.132   1.772   0.235  2.0269 -0.7936  1.0776
 6310TIP3    H240346   1.210   1.902   0.240  1.0265 -0.1183 -0.2085
 6311TIP3   OH240347   0.563   1.219  16.666 -0.1839 -0.1580 -1.0093
 6311TIP3    H140348   0.546   1.137  16.618  0.8092 -1.1464  0.2606
 6311TIP3    H240349   0.657   1.215  16.687 -0.4245  0.6266  0.3008
 6312TIP3   OH240350   1.908   1.824  12.480 -0.1281  0.4019  0.3046
 6312TIP3    H140351   1.830   1.829  12.425  0.8055 -0.2668 -1.1368
 6312TIP3    H240352   1.913   1.909  12.522 -0.5347  1.1849 -1.1613
 6313TIP3   OH240353   3.590   4.400   3.504 -0.3028 -0.7604  0.4663
 6313TIP3    H140354   3.571   4.385   3.411 -1.4513  0.8501  0.3936
 6313TIP3    H240355   3.578   4.314   3.545 -2.9743 -0.9124 -0.4230
 6314TIP3   OH240356   3.479   2.809  15.896 -0.2728 -0.2710  0.5284
 6314TIP3    H140357   3.423   2.876  15.858  0.4708 -0.1869 -0.4828
 6314TIP3    H240358   3.474   2.736  15.833  2.0261  0.3709 -0.5044
 6315TIP3   OH240359   4.215   0.003   1.090  0.1306 -0.5283  0.2658
 6315TIP3    H140360   4.233  -0.090   1.080 -0.4338 -0.5689 -0.4228
 6315TIP3    H240361   4.210   0.037   1.001 -0.4467  0.0070  0.4917
 6316TIP3   OH240362   2.513   5.603  16.223  0.1742  0.2307  0.1229
 6316TIP3    H140363   2.489   5.689  16.187  1.2410  0.3445 -0.3580
 6316TIP3    H240364   2.604   5.591  16.196  0.4916 -0.4194  1.4218
 6317TIP3   OH240365   1.893   1.285   2.156 -0.2392 -0.3120  0.4779
 6317TIP3    H140366   1.897   1.379   2.173 -2.3599 -0.2701  1.0428
 6317TIP3    H240367   1.818   1.254   2.207 -0.4161 -2.0773 -0.7421
 6318TIP3   OH240368   3.538   3.056   3.992 -0.1142 -0.1593  0.2684
 6318TIP3    H140369   3.594   3.055   3.915 -0.3056 -3.4705  0.0033
 6318TIP3    H240370   3.597   3.037   4.065 -0.2519  0.8602  0.6607
 6319TIP3   OH240371   0.581   5.903  15.021  0.3328 -0.2965  0.0455
 6319TIP3    H140372   0.560   5.986  14.979  0.4691 -0.6461 -0.7244
 6319TIP3    H240373   0.677   5.901  15.025  0.3308 -0.4369  0.0304
 6320TIP3   OH240374   5.748   2.550  12.889  0.3532  0.3545 -0.2768
 6320TIP3    H140375   5.695   2.481  12.929 -1.1025  1.6108  0.0713
 6320TIP3    H240376   5.685   2.620  12.870  1.6808  1.3613 -1.1509
 6321TIP3   OH240377   2.915   1.589   2.144 -0.6737 -0.0081 -0.2094
 6321TIP3    H140378   2.917   1.515   2.205 -1.4709  0.0823 -0.0613
 6321TIP3    H240379   2.882   1.552   2.062 -1.3245  0.2286 -0.0595
 6322TIP3   OH240380   3.736   3.934   5.063 -0.2020 -0.1317 -0.0812
 6322TIP3    H140381   3.790   4.008   5.091  0.9235 -0.3830 -1.4741
 6322TIP3    H240382   3.651   3.972   5.044 -0.1810  0.4817  0.9777
 6323TIP3   OH240383   2.268   1.982   1.556 -0.6490  0.8703  0.2324
 6323TIP3    H140384   2.355   1.990   1.518 -0.6693 -0.5904 -0.1477
 6323TIP3    H240385   2.215   2.046   1.507  0.3311  2.2917  0.9591
 6324TIP3   OH240386   2.295   1.804   2.978 -0.7652 -0.0205 -0.0043
 6324TIP3    H140387   2.204   1.784   2.999 -1.2168  1.6398 -0.1902
 6324TIP3    H240388   2.291   1.886   2.928  0.7859 -0.2394 -0.5563
 6325TIP3   OH240389   4.973   6.220  16.641 -0.4559  0.1260  0.4454
 6325TIP3    H140390   5.063   6.250  16.653  0.3463 -1.4341 -1.1126
 6325TIP3    H240391   4.959   6.156  16.711 -0.8185  1.2705  1.4424
 6326TIP3   OH240392   3.593   5.131   5.971  0.6738 -0.3166  0.3538
 6326TIP3    H140393   3.559   5.094   6.052  1.6362 -0.5638  0.6587
 6326TIP3    H240394   3.606   5.056   5.913  1.0795 -0.2761  0.3875
 6327TIP3   OH240395   2.694   2.432  12.369 -0.9807 -0.0659  0.9007
 6327TIP3    H140396   2.655   2.428  12.282  1.0766  2.5187 -0.2805
 6327TIP3    H240397   2.658   2.512  12.408 -0.2527 -0.0441  1.5516
 6328TIP3   OH240398   3.466   4.833   3.026  0.3522  0.1949  0.3012
 6328TIP3    H140399   3.476   4.833   3.121  0.4521  0.3298  0.2911
 6328TIP3    H240400   3.520   4.906   2.996 -0.7578  1.0476  0.2645
 6329TIP3   OH240401   6.154   2.830   2.244 -0.0309  0.6358 -0.2669
 6329TIP3    H140402   6.111   2.897   2.191  0.4868  0.8183 -0.4651
 6329TIP3    H240403   6.209   2.880   2.305 -1.6358  0.5021  1.4023
 6330TIP3   OH240404   2.970   3.107  14.317  0.1284 -0.0314 -0.2784
 6330TIP3    H140405   3.006   3.066  14.395  1.5424  0.1951 -0.7874
 6330TIP3    H240406   3.045   3.149  14.275 -0.2688 -1.5260 -2.6260
 6331TIP3   OH240407   1.884   2.393   1.481  0.0966  0.0473  0.3439
 6331TIP3    H140408   1.818   2.443   1.433 -1.6298 -1.4044  1.1256
 6331TIP3    H240409   1.844   2.308   1.498  2.2272 -0.9596  0.7421
 6332TIP3   OH240410   5.481   1.278  16.278  0.3959  0.4114 -0.4675
 6332TIP3    H140411   5.474   1.369  16.304 -2.7544  0.7374 -2.0113
 6332TIP3    H240412   5.405   1.235  16.317  1.7141 -1.5607  0.0975
 6333TIP3   OH240413   0.166   6.454   6.027 -0.2967  0.0879 -0.2343
 6333TIP3    H140414   0.076   6.482   6.011  0.3594  1.9322 -1.0048
 6333TIP3    H240415   0.186   6.488   6.114  0.0149  0.7705 -0.5587
 6334TIP3   OH240416   1.974   4.517  16.204 -0.2641 -0.1712 -0.0514
 6334TIP3    H140417   1.979   4.600  16.252  0.9113 -0.5645  0.5633
 6334TIP3    H240418   2.058   4.512  16.158 -1.3593  0.2053 -2.2204
 6335TIP3   OH240419   3.271   6.827   5.861  0.2925  0.3560  0.3755
 6335TIP3    H140420   3.367   6.823   5.856  0.2949  1.3202 -0.6329
 6335TIP3    H240421   3.254   6.841   5.954  1.0712 -0.7487  0.7169
 6336TIP3   OH240422   1.990   5.750   0.281 -0.0340  0.1272 -0.6786
 6336TIP3    H140423   1.923   5.819   0.287 -0.3137 -0.2039  0.0941
 6336TIP3    H240424   2.066   5.794   0.242 -1.1090  0.2102 -2.8772
 6337TIP3   OH240425   2.559   5.285  16.943 -0.3404 -0.6583 -0.1173
 6337TIP3    H140426   2.505   5.271  17.021 -1.4079 -1.2326 -0.9393
 6337TIP3    H240427   2.569   5.198  16.905 -1.5448 -0.1407 -1.7205
 6338TIP3   OH240428   2.563   6.382  10.707 -0.0830 -0.0173  0.3503
 6338TIP3    H140429   2.493   6.333  10.663  0.2517  0.3462 -0.6208
 6338TIP3    H240430   2.635   6.383  10.644  0.5622  0.1801  1.0746
 6339TIP3   OH240431   0.454   1.586  14.885  0.1769 -0.7726 -0.4958
 6339TIP3    H140432   0.489   1.499  14.867  0.6097 -0.9106  0.9013
 6339TIP3    H240433   0.392   1.573  14.957 -0.3306 -0.0307 -0.7791
 6340TIP3   OH240434   2.174   0.847   1.819  0.4144 -0.3567 -0.4209
 6340TIP3    H140435   2.222   0.797   1.753  1.3297 -0.6456  0.4307
 6340TIP3    H240436   2.234   0.918   1.843 -0.8993  1.2229 -1.6614
 6341TIP3   OH240437   1.201   4.985   3.090 -0.7316  0.1325 -0.3954
 6341TIP3    H140438   1.174   5.077   3.095 -0.5051  0.1529  0.8670
 6341TIP3    H240439   1.295   4.987   3.110 -0.8883 -0.4401  0.4586
 6342TIP3   OH240440   6.509   2.482  15.360  0.3012 -0.1010  0.2464
 6342TIP3    H140441   6.417   2.481  15.333  0.5305 -0.1492 -0.5713
 6342TIP3    H240442   6.549   2.413  15.306  0.4952 -1.2198  1.7702
 6343TIP3   OH240443   3.575   2.362   3.601  0.3995 -0.3493  0.3303
 6343TIP3    H140444   3.502   2.303   3.623 -0.6127  0.8457  0.3011
 6343TIP3    H240445   3.652   2.307   3.605 -0.4435 -1.5340  0.9581
 6344TIP3   OH240446   3.627   6.552  16.799 -0.3000  0.2434 -0.1050
 6344TIP3    H140447   3.580   6.629  16.767 -1.8080 -0.5017  0.2572
 6344TIP3    H240448   3.560   6.485  16.809  0.4095 -0.1549  2.7369
 6345TIP3   OH240449   5.565   2.752  12.789  0.6195 -0.1259  0.3119
 6345TIP3    H140450   5.608   2.835  12.809  1.6211 -0.2646 -1.1000
 6345TIP3    H240451   5.495   2.775  12.729  0.6476 -0.2470  0.2313
 6346TIP3   OH240452   6.224   2.402  13.215 -1.0326 -0.0954 -0.5016
 6346TIP3    H140453   6.183   2.315  13.217  0.2764 -0.7280 -0.4383
 6346TIP3    H240454   6.223   2.431  13.307  1.5544 -1.5461  0.0889
 6347TIP3   OH240455   3.228   4.522  12.508  0.5580 -0.1486 -0.3268
 6347TIP3    H140456   3.273   4.567  12.580  0.3878 -0.9645  0.3098
 6347TIP3    H240457   3.139   4.507  12.542  0.6069 -0.9426 -0.5296
 6348TIP3   OH240458   2.360   6.714  13.801 -0.1588 -0.1821  0.2441
 6348TIP3    H140459   2.383   6.632  13.757 -0.6948 -0.4993  0.5495
 6348TIP3    H240460   2.394   6.704  13.890 -0.1455 -0.0318  0.2574
 6349TIP3   OH240461   5.784   2.753  15.452 -0.3513  0.0594  0.1267
 6349TIP3    H140462   5.695   2.787  15.439 -0.1291  0.7754  0.4395
 6349TIP3    H240463   5.797   2.692  15.379 -0.9104  0.3366 -0.2126
 6350TIP3   OH240464   2.159   0.212   3.361  0.2246  0.2130  0.0521
 6350TIP3    H140465   2.168   0.178   3.450 -0.5428  0.1096  0.0973
 6350TIP3    H240466   2.197   0.300   3.365  0.9559 -0.0991  0.2686
 6351TIP3   OH240467   1.777   2.425  12.875  0.1037 -0.0774 -0.0173
 6351TIP3    H140468   1.788   2.419  12.780  2.1806  0.5293  0.1383
 6351TIP3    H240469   1.691   2.388  12.891 -0.2537 -0.3001 -2.1285
 6352TIP3   OH240470   2.309   4.157   0.087 -0.0153  0.0410  0.5158
 6352TIP3    H140471   2.289   4.063   0.095 -1.1491 -0.0333 -2.1025
 6352TIP3    H240472   2.378   4.161   0.021 -0.2077  1.0628  0.3649
 6353TIP3   OH240473   0.334   4.755  12.882  0.1670  0.1884  0.1681
 6353TIP3    H140474   0.339   4.786  12.972 -1.2166  0.6483  0.1133
 6353TIP3    H240475   0.291   4.670  12.887 -1.9464  1.1692 -0.1930
 6354TIP3   OH240476   4.356   5.491  11.662  0.5914 -0.1241  0.0243
 6354TIP3    H140477   4.354   5.563  11.599  0.3107  1.5945  1.9189
 6354TIP3    H240478   4.442   5.450  11.649  0.9811  0.8857 -0.7225
 6355TIP3   OH240479   3.879   5.945  16.790  0.0423  0.1788  0.6047
 6355TIP3    H140480   3.921   5.899  16.718 -1.5829  0.7399 -0.7644
 6355TIP3    H240481   3.919   6.032  16.790  0.3226  0.0502  0.6300
 6356TIP3   OH240482   5.585   4.494   6.284 -0.6573 -0.0520  0.4398
 6356TIP3    H140483   5.598   4.485   6.189 -0.3347  0.5012  0.4280
 6356TIP3    H240484   5.490   4.488   6.296 -0.6309 -1.1184  0.1921
 6357TIP3   OH240485   5.176   0.129   0.595  0.1636  0.7952 -0.0128
 6357TIP3    H140486   5.151   0.221   0.584  1.3759  1.3047  1.2496
 6357TIP3    H240487   5.199   0.121   0.687 -1.0573 -1.0920  0.1745
 6358TIP3   OH240488   2.080   5.942  10.097 -0.1366  0.2518 -0.2197
 6358TIP3    H140489   1.999   5.942  10.046  0.4356 -1.6318 -1.2278
 6358TIP3    H240490   2.127   5.865  10.066  2.8073  2.1527 -0.8034
 6359TIP3   OH240491   1.444   4.265   6.137  0.1334  0.2636 -0.0273
 6359TIP3    H140492   1.489   4.227   6.213  0.1597 -0.6931 -0.5127
 6359TIP3    H240493   1.500   4.339   6.112  0.4159  0.2580  0.5518
 6360TIP3   OH240494   3.171   4.925  12.796  0.2871  0.5634  0.1612
 6360TIP3    H140495   3.143   4.851  12.850  0.4717 -0.2268 -0.7959
 6360TIP3    H240496   3.266   4.929  12.807  0.4192 -0.0878 -0.6971
 6361TIP3   OH240497   5.921   2.007  13.717  0.0255  0.4250  0.3901
 6361TIP3    H140498   5.876   2.080  13.759 -0.3758  0.6121 -0.3529
 6361TIP3    H240499   5.859   1.975  13.651  0.7529  0.3281 -0.2611
 6362TIP3   OH240500   5.111   0.285   6.495 -0.1034  0.0586  0.2596
 6362TIP3    H140501   5.137   0.269   6.404 -1.3155  1.4917 -0.3788
 6362TIP3    H240502   5.195   0.290   6.542  0.5106 -2.4808 -0.3796
 6363TIP3   OH240503   2.269   4.295  11.063  0.3345  0.0410  0.2863
 6363TIP3    H140504   2.252   4.374  11.011  1.4110  0.3364  0.3678
 6363TIP3    H240505   2.361   4.275  11.046  0.6201 -0.0426  1.8272
 6364TIP3   OH240506   4.722   4.138  13.293  0.3314  0.3647  0.0223
 6364TIP3    H140507   4.758   4.053  13.270 -1.1571 -1.5632  3.8696
 6364TIP3    H240508   4.797   4.190  13.321  1.2196  0.3054 -2.0959
 6365TIP3   OH240509   4.620   2.503  14.757 -0.1080 -0.2337 -0.0847
 6365TIP3    H140510   4.575   2.522  14.674  1.2245  0.7447 -0.6247
 6365TIP3    H240511   4.612   2.408  14.767 -1.3975 -0.2153 -0.6564
 6366TIP3   OH240512   0.953   0.963  14.179  0.1522 -0.1212 -0.4337
 6366TIP3    H140513   0.940   0.978  14.085 -1.1110  0.5823 -0.1686
 6366TIP3    H240514   0.865   0.963  14.216  0.6534  0.0198  0.8184
 6367TIP3   OH240515   1.113   1.737   1.395  0.7533 -0.0879 -0.3188
 6367TIP3    H140516   1.204   1.752   1.370  1.0438 -0.4043  0.5437
 6367TIP3    H240517   1.112   1.651   1.437  0.4635  0.8081  1.6244
 6368TIP3   OH240518   1.067   0.614   2.088 -0.3914  0.3244  0.3302
 6368TIP3    H140519   1.013   0.601   2.166  0.2165  1.8241  1.0410
 6368TIP3    H240520   1.016   0.674   2.033 -0.1050  0.5869  0.3434
 6369TIP3   OH240521   0.861   3.709   0.170 -0.0715  0.2268 -0.4089
 6369TIP3    H140522   0.863   3.744   0.259  0.6876  0.0015 -0.3237
 6369TIP3    H240523   0.813   3.626   0.178 -1.1251  0.8202 -0.4559
 6370TIP3   OH240524   4.761   0.122  16.608 -0.4102  0.2243 -0.0170
 6370TIP3    H140525   4.745   0.080  16.692  1.0339 -0.4776 -0.0656
 6370TIP3    H240526   4.725   0.060  16.544 -0.8610  0.4266  0.0333
 6371TIP3   OH240527   2.538   4.045   4.115 -0.2558 -0.1788  0.0142
 6371TIP3    H140528   2.540   3.979   4.184 -0.1721  0.4512  0.6256
 6371TIP3    H240529   2.580   4.122   4.154 -0.4755  0.2812 -0.6344
 6372TIP3   OH240530   0.867   3.210  12.201 -0.5196  0.5559  0.4558
 6372TIP3    H140531   0.859   3.134  12.258 -2.1422  0.1857 -0.2153
 6372TIP3    H240532   0.957   3.205  12.167  0.0693  0.1150  1.9952
 6373TIP3   OH240533   1.863   3.616   4.017  0.3196 -0.2053 -0.1054
 6373TIP3    H140534   1.875   3.699   3.971  1.6769  0.5935  1.5374
 6373TIP3    H240535   1.931   3.559   3.981 -0.9379 -0.8070 -1.5937
 6374TIP3   OH240536   6.495   6.257   0.126  0.3654  0.5248 -0.2231
 6374TIP3    H140537   6.564   6.320   0.108 -0.9952  2.6104  1.3855
 6374TIP3    H240538   6.524   6.211   0.205  0.5034  0.4601 -0.3119
 6375TIP3   OH240539   2.114   5.140   1.610 -0.2166 -0.0700 -0.0417
 6375TIP3    H140540   2.157   5.077   1.667  1.0749  0.1355 -0.7474
 6375TIP3    H240541   2.185   5.177   1.557 -1.0365  1.4946 -0.1052
 6376TIP3   OH240542   6.634   1.892   2.658 -0.1585  0.1048  0.3697
 6376TIP3    H140543   6.592   1.977   2.671 -0.7725 -0.0429 -0.5131
 6376TIP3    H240544   6.608   1.840   2.733 -1.1434  0.1888  0.1004
 6377TIP3   OH240545   3.615   5.514   1.962  0.3580  0.2772 -0.3163
 6377TIP3    H140546   3.550   5.581   1.984  1.7176  1.7008 -0.5305
 6377TIP3    H240547   3.698   5.561   1.957  1.4859 -1.5644  0.2984
 6378TIP3   OH240548   4.600   1.783   4.720  0.0099  0.0743 -0.0244
 6378TIP3    H140549   4.596   1.698   4.677  1.5572  0.1341 -0.3268
 6378TIP3    H240550   4.687   1.786   4.760 -0.0911  1.4393  0.1425
 6379TIP3   OH240551   0.777   2.840   2.500 -0.6904 -1.1704  0.3310
 6379TIP3    H140552   0.793   2.785   2.423  0.8503  0.8752 -0.8978
 6379TIP3    H240553   0.823   2.795   2.571  1.7478 -0.8509 -0.9405
 6380TIP3   OH240554   6.241   1.352  13.492  0.0070 -0.1584  0.4495
 6380TIP3    H140555   6.311   1.318  13.548 -0.7666 -0.8375  1.0242
 6380TIP3    H240556   6.229   1.443  13.521 -1.4207 -0.9308  2.4920
 6381TIP3   OH240557   6.477   3.562  13.694  1.0212  0.2119 -0.5134
 6381TIP3    H140558   6.572   3.547  13.692  0.8448 -1.4496  0.5957
 6381TIP3    H240559   6.447   3.537  13.607  1.1482 -3.7718  0.3641
 6382TIP3   OH240560   5.859   2.131  12.105  0.3954 -0.7054  0.0255
 6382TIP3    H140561   5.767   2.136  12.132 -0.0904 -1.8195 -1.3071
 6382TIP3    H240562   5.906   2.182  12.171 -1.0427 -1.0342  1.3763
 6383TIP3   OH240563   4.797   4.830   1.719  0.7210 -0.2596 -0.1412
 6383TIP3    H140564   4.859   4.800   1.786  0.4179 -2.1019 -0.6269
 6383TIP3    H240565   4.719   4.775   1.732  0.1747  0.2343 -1.1907
 6384TIP3   OH240566   2.571   5.933  16.667 -0.2248 -0.5664 -0.1196
 6384TIP3    H140567   2.549   5.979  16.586 -1.8855 -0.1538  0.5229
 6384TIP3    H240568   2.497   5.951  16.725  1.1108 -0.5229  1.6363
 6385TIP3   OH240569   4.544   1.013  11.551 -0.5347 -0.6075 -0.1517
 6385TIP3    H140570   4.479   0.943  11.555  1.0166 -2.0419  2.4339
 6385TIP3    H240571   4.624   0.971  11.520  0.3548  0.0290  1.1866
 6386TIP3   OH240572   0.096   2.871   5.741  0.3366 -0.2960 -0.2113
 6386TIP3    H140573   0.082   2.877   5.647  0.4125 -1.0834 -0.2830
 6386TIP3    H240574   0.131   2.956   5.767  0.1707 -0.0298 -0.8699
 6387TIP3   OH240575   6.808   4.409  12.064 -0.0775  0.5140  0.1849
 6387TIP3    H140576   6.807   4.483  12.003 -0.9402  1.3112  1.1466
 6387TIP3    H240577   6.884   4.357  12.036  0.1354  1.3787 -0.9380
 6388TIP3   OH240578   2.764   5.569   5.085 -0.4207  0.5140  0.3611
 6388TIP3    H140579   2.737   5.478   5.075 -0.3085  0.6111 -1.0276
 6388TIP3    H240580   2.694   5.619   5.043  0.4374  0.9488 -0.5799
 6389TIP3   OH240581   4.145   2.859   1.296  0.3590 -0.2031 -0.1162
 6389TIP3    H140582   4.177   2.855   1.386 -0.0943 -0.0882  0.0501
 6389TIP3    H240583   4.224   2.874   1.243  1.3380 -4.4196 -0.1970
 6390TIP3   OH240584   2.005   4.762   1.724  0.1278  0.0559 -0.0087
 6390TIP3    H140585   2.038   4.712   1.799  0.7019 -0.1195 -0.3716
 6390TIP3    H240586   1.920   4.795   1.753  0.1875 -0.3004  0.5948
 6391TIP3   OH240587   3.049   2.997  12.124  0.5805 -0.2085 -0.6355
 6391TIP3    H140588   2.962   3.032  12.145 -0.1431 -2.7694  1.1161
 6391TIP3    H240589   3.034   2.940  12.049  0.0979 -2.6726  1.2022
 6392TIP3   OH240590   4.881   0.242   0.776  0.4420  0.0507 -0.3924
 6392TIP3    H140591   4.939   0.263   0.703  0.5951  0.1295 -0.2488
 6392TIP3    H240592   4.935   0.255   0.854  0.8957 -1.9484 -0.3254
 6393TIP3   OH240593   1.447   2.967  13.020  0.2933 -0.6006 -0.0744
 6393TIP3    H140594   1.402   2.883  13.031  0.3542 -0.4989  1.0773
 6393TIP3    H240595   1.398   3.028  13.074  0.7783 -0.0930 -0.1994
 6394TIP3   OH240596   1.912   1.278   2.888 -0.4486  0.0132  0.2605
 6394TIP3    H140597   1.960   1.349   2.932  2.1677 -1.2885 -0.2839
 6394TIP3    H240598   1.895   1.312   2.800  3.1879 -0.8033 -0.9347
 6395TIP3   OH240599   5.627   0.406  11.672  0.4844  0.0041  0.0610
 6395TIP3    H140600   5.711   0.426  11.711  0.5911  3.0165 -1.4262
 6395TIP3    H240601   5.647   0.384  11.581 -0.2941 -0.0098 -0.1205
 6396TIP3   OH240602   4.354   2.605   3.498 -0.2978  0.0679  0.2525
 6396TIP3    H140603   4.324   2.654   3.574 -2.8029  0.2157 -0.7327
 6396TIP3    H240604   4.290   2.534   3.489  2.2883 -2.5017  0.6735
 6397TIP3   OH240605   2.382   3.914  11.406 -0.1471 -0.0184  0.2506
 6397TIP3    H140606   2.397   3.959  11.324  1.8010 -3.1799 -1.3409
 6397TIP3    H240607   2.302   3.863  11.391  1.8517 -3.0612 -1.0992
 6398TIP3   OH240608   1.190   4.838   4.101 -0.8539 -0.3950  0.3531
 6398TIP3    H140609   1.149   4.757   4.073 -0.3123 -0.8751  0.9121
 6398TIP3    H240610   1.238   4.814   4.180 -0.7458  0.4868  0.5611
 6399TIP3   OH240611   5.835   6.178   2.812 -0.3531  0.1855 -0.1959
 6399TIP3    H140612   5.780   6.207   2.885  0.3405  1.4762 -0.1654
 6399TIP3    H240613   5.803   6.089   2.792 -0.3910 -0.2999  1.8231
 6400TIP3   OH240614   6.788   3.692  14.522 -0.1515 -0.2106 -0.0100
 6400TIP3    H140615   6.843   3.715  14.447 -1.7293  2.0715 -0.5859
 6400TIP3    H240616   6.789   3.597  14.525  0.8144 -0.3244 -2.2875
 6401TIP3   OH240617   4.570   4.725   5.174 -0.5410 -0.1538  0.0573
 6401TIP3    H140618   4.540   4.749   5.086  0.3301  0.5125 -0.0616
 6401TIP3    H240619   4.665   4.729   5.169 -0.4664 -0.6613  0.8874
 6402TIP3   OH240620   0.580   5.652  13.312  0.4814  0.1491  0.1898
 6402TIP3    H140621   0.512   5.623  13.372  0.4821  1.8284  1.0753
 6402TIP3    H240622   0.538   5.720  13.259  1.4574  1.3415  0.8763
 6403TIP3   OH240623   3.209   2.290  11.104 -0.5015  0.0754 -0.1140
 6403TIP3    H140624   3.176   2.376  11.129 -0.3472  0.8021 -2.1942
 6403TIP3    H240625   3.297   2.308  11.069 -0.7274 -0.8055 -1.1817
 6404TIP3   OH240626   2.890   0.332  11.848 -0.4179 -0.1271  0.0978
 6404TIP3    H140627   2.949   0.334  11.773  0.2103  2.4641  0.5730
 6404TIP3    H240628   2.855   0.243  11.848  0.4568 -0.5663 -2.5458
 6405TIP3   OH240629   2.441   2.794   4.619  0.5021 -0.4222  0.2075
 6405TIP3    H140630   2.523   2.748   4.638  0.4415 -0.6797 -0.1536
 6405TIP3    H240631   2.434   2.860   4.689  0.7703 -0.7220  0.5218
 6406TIP3   OH240632   2.151   0.817   4.390 -0.0788  0.3245 -0.2359
 6406TIP3    H140633   2.129   0.860   4.307  0.1284 -0.0520 -0.4843
 6406TIP3    H240634   2.134   0.724   4.375  0.8192  0.1346 -0.1460
 6407TIP3   OH240635   2.751   3.052   2.655  0.0118 -0.2303  0.2095
 6407TIP3    H140636   2.656   3.052   2.669  0.2118 -0.0775  1.8185
 6407TIP3    H240637   2.779   3.136   2.691  0.7655 -0.3034 -0.2046
 6408TIP3   OH240638   5.064   4.171  16.543  0.2245 -0.6345 -0.0051
 6408TIP3    H140639   5.125   4.100  16.522 -0.0518 -0.9614  0.2927
 6408TIP3    H240640   5.065   4.177  16.638 -0.5986 -0.9886  0.0318
 6409TIP3   OH240641   1.524   2.691   4.837  0.3083  0.0303 -0.7938
 6409TIP3    H140642   1.572   2.609   4.824 -1.1978 -0.5655 -3.5105
 6409TIP3    H240643   1.519   2.729   4.749 -3.3756  0.4264 -0.5746
 6410TIP3   OH240644   6.029   2.884  10.258 -0.2702 -0.1691  0.8115
 6410TIP3    H140645   6.071   2.869  10.343  0.8076 -2.2350 -0.0118
 6410TIP3    H240646   6.055   2.973  10.234  1.7169 -0.5278  1.4233
 6411TIP3   OH240647   1.771   6.357   0.464  0.2148 -0.5771  0.2350
 6411TIP3    H140648   1.787   6.316   0.549 -0.7812  0.2422  0.8347
 6411TIP3    H240649   1.681   6.334   0.443 -0.0803  0.5824  0.1831
 6412TIP3   OH240650   2.324   4.923  16.727 -0.3877  0.0882 -0.0322
 6412TIP3    H140651   2.413   4.901  16.756 -0.8450 -2.1019 -0.1180
 6412TIP3    H240652   2.284   4.966  16.803  0.5192  0.4881  0.2334
 6413TIP3   OH240653   1.657   4.425   6.044 -0.1560  0.6616  0.2789
 6413TIP3    H140654   1.629   4.461   5.960  1.7116  0.5086 -0.4523
 6413TIP3    H240655   1.726   4.363   6.022 -0.7386 -0.6238  1.8210
 6414TIP3   OH240656   6.349   3.476   5.507  0.2552 -0.6206  0.3061
 6414TIP3    H140657   6.377   3.434   5.426  0.9654 -0.2083  0.3263
 6414TIP3    H240658   6.428   3.520   5.540 -0.2725  0.0515  0.6975
 6415TIP3   OH240659   1.471   4.362   3.805 -0.0808 -0.0447 -0.9927
 6415TIP3    H140660   1.386   4.345   3.765 -0.4229  0.1620 -0.3669
 6415TIP3    H240661   1.528   4.386   3.732 -1.0329  1.6611 -1.2198
 6416TIP3   OH240662   0.255   3.385   6.213  0.1901  0.3434 -0.6248
 6416TIP3    H140663   0.228   3.321   6.148 -0.5344  0.1131 -0.1125
 6416TIP3    H240664   0.320   3.339   6.267  0.8805  0.5744 -1.2504
 6417TIP3   OH240665   5.788   1.654   3.701  0.3382  0.5038  0.3531
 6417TIP3    H140666   5.781   1.748   3.717  1.5357  0.3311  2.2904
 6417TIP3    H240667   5.712   1.616   3.746  0.7060  0.4458  0.9401
 6418TIP3   OH240668   3.526   6.374  15.169 -0.1063  0.1400 -0.6966
 6418TIP3    H140669   3.441   6.418  15.161 -0.0953  0.0965 -1.0576
 6418TIP3    H240670   3.554   6.359  15.078  0.2661  0.1149 -0.5799
 6419TIP3   OH240671   6.492   4.092   2.455  0.4923 -0.0017  0.4533
 6419TIP3    H140672   6.454   4.014   2.496  0.6267 -0.4605 -0.2758
 6419TIP3    H240673   6.416   4.142   2.426  0.3891 -1.1882 -1.5014
 6420TIP3   OH240674   4.958   3.007  12.364  0.3208 -0.0116  0.2057
 6420TIP3    H140675   5.052   3.013  12.383  0.4000 -0.4857 -0.0195
 6420TIP3    H240676   4.953   3.009  12.268  0.3449 -2.8693  0.0827
 6421TIP3   OH240677   5.494   5.253   1.408  0.1291 -0.1642 -0.4938
 6421TIP3    H140678   5.406   5.248   1.371  0.2137 -1.1664 -0.5715
 6421TIP3    H240679   5.498   5.340   1.448 -1.5105 -0.7618  1.0687
 6422TIP3   OH240680   0.207   5.448   4.979 -0.6093  0.1658  0.3721
 6422TIP3    H140681   0.282   5.504   4.963 -1.2363  0.6348 -1.2138
 6422TIP3    H240682   0.225   5.368   4.930 -1.2431  0.3927 -0.2572
 6423TIP3   OH240683   1.172   3.321   2.168 -0.0697  0.0245  0.1272
 6423TIP3    H140684   1.251   3.350   2.122  0.7311 -0.9957  0.8084
 6423TIP3    H240685   1.204   3.257   2.231 -1.1515  1.2267  1.9738
 6424TIP3   OH240686   0.629   4.316  13.026  0.1824 -0.5913  0.1506
 6424TIP3    H140687   0.721   4.298  13.047  0.3382 -0.6612 -0.5891
 6424TIP3    H240688   0.591   4.230  13.008 -0.0524 -0.5691  0.5280
 6425TIP3   OH240689   3.018   5.840   4.886  0.3794  0.0670  0.1598
 6425TIP3    H140690   2.980   5.895   4.954  0.6705 -1.2554  1.4431
 6425TIP3    H240691   3.076   5.780   4.932 -1.4687 -2.7190 -0.8005
 6426TIP3   OH240692   5.922   4.151   5.066  0.2051 -0.3489 -0.1187
 6426TIP3    H140693   5.919   4.110   4.979 -0.0626  0.0991 -0.3263
 6426TIP3    H240694   5.831   4.171   5.086  0.2703 -0.4312  0.2560
 6427TIP3   OH240695   4.949   5.602  11.302  0.3958  0.7066  0.2371
 6427TIP3    H140696   4.888   5.529  11.311  1.4679 -0.2527 -0.0948
 6427TIP3    H240697   4.984   5.615  11.391 -0.9642  1.8928  0.6329
 6428TIP3   OH240698   3.838   0.906   0.382  0.0246  0.4323  0.0637
 6428TIP3    H140699   3.815   0.895   0.290  0.9159  1.5516 -0.3069
 6428TIP3    H240700   3.877   0.993   0.388  1.0219 -0.0531  1.2852
 6429TIP3   OH240701   2.160   3.238  15.858 -0.1377 -0.2851  0.3560
 6429TIP3    H140702   2.177   3.316  15.910  1.8820 -2.2854  2.9804
 6429TIP3    H240703   2.242   3.222  15.811 -0.5482 -0.7951 -0.2106
 6430TIP3   OH240704   3.962   1.213   1.162  0.2467  0.4445  0.4654
 6430TIP3    H140705   4.039   1.203   1.106 -1.0843 -3.5008 -0.9992
 6430TIP3    H240706   3.998   1.220   1.251  2.3719 -1.7102 -0.1270
 6431TIP3   OH240707   0.593   3.315  11.876 -0.2489  0.8746 -0.1559
 6431TIP3    H140708   0.501   3.309  11.851 -1.0292 -5.3874  2.3410
 6431TIP3    H240709   0.592   3.321  11.971  1.2744 -4.6453  0.5966
 6432TIP3   OH240710   6.142   0.091  15.330 -0.7419  0.0463  0.3750
 6432TIP3    H140711   6.090   0.058  15.403 -1.8566  0.5845 -0.1537
 6432TIP3    H240712   6.142   0.020  15.266  0.9238 -0.7479  1.1905
 6433TIP3   OH240713   4.910   3.958  15.521  0.1737 -0.1210 -0.0669
 6433TIP3    H140714   4.991   3.926  15.481  0.4988  1.0497 -0.3887
 6433TIP3    H240715   4.939   4.006  15.598 -0.0470  1.7006 -1.0639
 6434TIP3   OH240716   5.039   0.691   3.333  0.1796 -0.5182 -0.0006
 6434TIP3    H140717   5.053   0.774   3.288  1.5976 -0.6452  0.1448
 6434TIP3    H240718   4.947   0.670   3.317  0.7086 -0.9045 -3.4876
 6435TIP3   OH240719   2.539   5.061   0.733  0.2456 -1.0303  0.5888
 6435TIP3    H140720   2.593   5.130   0.695 -1.4126 -0.1859 -0.3368
 6435TIP3    H240721   2.522   5.001   0.661 -1.1121 -0.5874  0.5202
 6436TIP3   OH240722   1.180   0.681   4.265  0.4756 -0.1733  0.0420
 6436TIP3    H140723   1.104   0.695   4.209  1.5155 -0.5502 -1.5255
 6436TIP3    H240724   1.211   0.593   4.241  1.5058  0.0498  0.5192
 6437TIP3   OH240725   3.354   3.655   4.136  0.0294 -0.4929 -0.1229
 6437TIP3    H140726   3.359   3.745   4.106  0.9879 -0.7530 -0.7925
 6437TIP3    H240727   3.316   3.661   4.224  1.2414  0.6807  0.3545
 6438TIP3   OH240728   2.020   4.637   1.461  0.1522 -0.3790 -0.4678
 6438TIP3    H140729   2.019   4.652   1.555 -0.5154 -0.1221 -0.5085
 6438TIP3    H240730   2.095   4.687   1.429 -0.0954  0.1862 -0.1738
 6439TIP3   OH240731   6.560   0.757  11.810  0.1809 -0.2146 -0.5025
 6439TIP3    H140732   6.593   0.745  11.721 -1.5300  0.0045 -1.1997
 6439TIP3    H240733   6.517   0.842  11.808 -1.8199 -1.1613 -0.1203
 6440TIP3   OH240734   5.103   4.895   0.445  0.2384 -0.0978 -0.1048
 6440TIP3    H140735   5.143   4.818   0.405  3.2091  0.8213  0.8145
 6440TIP3    H240736   5.043   4.928   0.379  0.9290 -1.6639 -1.6025
 6441TIP3   OH240737   2.357   0.239   5.336 -0.1788  0.2625  0.0340
 6441TIP3    H140738   2.283   0.183   5.315  0.4626 -0.5063 -0.2458
 6441TIP3    H240739   2.319   0.313   5.383 -1.2994  0.5785 -1.2965
 6442TIP3   OH240740   2.767   2.153   0.957  0.4171  0.0148 -0.0487
 6442TIP3    H140741   2.674   2.133   0.958  0.4467 -0.1326 -0.3657
 6442TIP3    H240742   2.809   2.074   0.991  0.4893 -0.2476 -0.7336
 6443TIP3   OH240743   2.559   0.448  16.980 -0.4461 -0.9995 -0.4719
 6443TIP3    H140744   2.467   0.460  17.002 -0.2935 -0.7371  0.0242
 6443TIP3    H240745   2.601   0.531  17.003  0.4347 -2.0356  2.0348
 6444TIP3   OH240746   1.147   3.227  13.303  0.1162 -0.6935  0.1827
 6444TIP3    H140747   1.092   3.159  13.264  0.5447 -1.2151  0.4838
 6444TIP3    H240748   1.189   3.270  13.229 -2.2478  1.1186 -0.2586
 6445TIP3   OH240749   2.131   1.630  13.358  0.0992  0.1038  0.0617
 6445TIP3    H140750   2.197   1.689  13.322 -0.4385  1.6485  1.4980
 6445TIP3    H240751   2.064   1.624  13.291 -0.2775  1.9029  0.2290
 6446TIP3   OH240752   3.250   3.199  10.757 -0.7535 -0.2591  0.1583
 6446TIP3    H140753   3.202   3.221  10.837 -1.3881 -3.1981  0.6890
 6446TIP3    H240754   3.251   3.103  10.755 -0.4085 -0.2990 -3.1638
 6447TIP3   OH240755   6.435   5.449  11.013  0.0510  0.0704 -0.1260
 6447TIP3    H140756   6.463   5.388  10.945  0.8938  0.9300 -0.5866
 6447TIP3    H240757   6.368   5.503  10.971  0.7277  0.7443 -0.3586
 6448TIP3   OH240758   4.585   5.448   1.778  1.0643 -0.0089  0.2592
 6448TIP3    H140759   4.619   5.384   1.716  0.5360 -1.4450  1.3995
 6448TIP3    H240760   4.578   5.400   1.861  0.1875  1.3921  1.0314
 6449TIP3   OH240761   3.090   4.533   4.623  0.1604 -0.3699 -0.5993
 6449TIP3    H140762   3.039   4.604   4.662 -0.7722 -0.9719 -0.6924
 6449TIP3    H240763   3.124   4.484   4.698  2.8540  1.5158 -0.4539
 6450TIP3   OH240764   3.231   6.279   1.772  0.0461  0.3980 -0.3528
 6450TIP3    H140765   3.300   6.280   1.706 -0.5046 -1.6702 -1.0389
 6450TIP3    H240766   3.150   6.271   1.721 -0.3266 -2.4764  0.5046
 6451TIP3   OH240767   1.179   4.414   3.395  0.3834  0.0390  0.0708
 6451TIP3    H140768   1.133   4.485   3.350 -0.6197 -1.5973 -1.6118
 6451TIP3    H240769   1.266   4.450   3.414 -0.5313  2.1562  0.5452
 6452TIP3   OH240770   5.878   0.082   6.130  0.3301  0.2293 -0.1949
 6452TIP3    H140771   5.899  -0.003   6.091 -2.7026 -0.6011 -0.3161
 6452TIP3    H240772   5.941   0.093   6.201  3.0745 -0.3775 -2.3756
 6453TIP3   OH240773   1.671   3.035   0.562  0.1034 -0.0808 -0.0062
 6453TIP3    H140774   1.652   2.956   0.511  0.4445  0.1670 -0.5379
 6453TIP3    H240775   1.756   3.065   0.528  0.7778 -0.3999  1.3345
 6454TIP3   OH240776   1.082   0.188  10.698 -0.1113 -0.3709  0.4084
 6454TIP3    H140777   1.131   0.105  10.699 -0.4556 -0.5744  0.3414
 6454TIP3    H240778   1.035   0.187  10.615  0.0097 -0.0313  0.3347
 6455TIP3   OH240779   0.242   3.507   2.032 -0.4106 -0.5769  0.2631
 6455TIP3    H140780   0.227   3.601   2.016 -0.1238 -0.5549  0.1048
 6455TIP3    H240781   0.192   3.488   2.111 -1.5103 -0.5836 -0.4144
 6456TIP3   OH240782   0.100   6.310  14.633  0.3120 -0.3135 -0.4147
 6456TIP3    H140783   0.150   6.341  14.708  0.4109  3.5041 -1.8405
 6456TIP3    H240784   0.038   6.248  14.670  1.1614  0.4730  2.6223
 6457TIP3   OH240785   0.500   1.348   4.962 -0.1968  0.1554 -0.3056
 6457TIP3    H140786   0.494   1.417   4.897  1.5803  0.7162  0.0622
 6457TIP3    H240787   0.592   1.320   4.959 -0.4531 -0.9266  0.8305
 6458TIP3   OH240788   4.671   0.373  16.753  0.0860  0.7930  0.9105
 6458TIP3    H140789   4.746   0.319  16.727  0.2014  0.9476  0.9163
 6458TIP3    H240790   4.621   0.386  16.673 -0.6424 -0.3907  1.1533
 6459TIP3   OH240791   6.330   1.643   1.205 -0.1394  0.0894  0.2268
 6459TIP3    H140792   6.305   1.727   1.166  2.1011  0.9964  0.5751
 6459TIP3    H240793   6.287   1.642   1.290  0.1791  1.1070  0.4105
 6460TIP3   OH240794   4.127   0.200  12.410  0.2195 -0.0997 -0.0023
 6460TIP3    H140795   4.167   0.176  12.327  1.5992  0.6928  0.4032
 6460TIP3    H240796   4.179   0.155  12.477 -0.7061 -0.5173  0.4547
 6461TIP3   OH240797   1.697   3.817  15.243  0.6579 -0.4363 -0.6791
 6461TIP3    H140798   1.638   3.758  15.197  0.9900 -2.0396  0.8035
 6461TIP3    H240799   1.658   3.828  15.330  0.4282  1.8746 -1.0100
 6462TIP3   OH240800   4.698   2.806  14.403  0.3022 -0.0873 -0.7933
 6462TIP3    H140801   4.633   2.776  14.339  0.0002 -0.1154 -0.4742
 6462TIP3    H240802   4.781   2.806  14.355  0.1607 -0.6008 -1.0436
 6463TIP3   OH240803   2.488   1.157  12.941  0.1232 -0.3900  0.0551
 6463TIP3    H140804   2.413   1.121  12.894 -2.0860  1.5927  1.8214
 6463TIP3    H240805   2.509   1.091  13.007  0.2882 -1.1623 -0.7501
 6464TIP3   OH240806   5.620   6.346  14.360 -0.4116  0.0761  0.1398
 6464TIP3    H140807   5.642   6.296  14.281 -3.1190 -0.3098 -0.4519
 6464TIP3    H240808   5.582   6.282  14.420 -0.0146  0.6907  1.0714
 6465TIP3   OH240809   1.528   6.764  13.180  0.0008  0.3197  0.1924
 6465TIP3    H140810   1.535   6.698  13.111 -1.0740  1.0771 -0.6939
 6465TIP3    H240811   1.618   6.790  13.198  0.2883  0.3695 -1.2145
 6466TIP3   OH240812   1.885   4.703  12.022  0.0911  0.5157  0.0333
 6466TIP3    H140813   1.822   4.637  12.051  0.9343 -0.9333 -1.2774
 6466TIP3    H240814   1.840   4.751  11.953  0.0988  0.0552 -0.2982
 6467TIP3   OH240815   5.973   5.430   3.929 -0.3104  0.8486 -0.1955
 6467TIP3    H140816   5.971   5.354   3.987  2.3271 -0.1050 -1.2110
 6467TIP3    H240817   5.905   5.411   3.864  0.6770 -1.0296 -0.7837
 6468TIP3   OH240818   4.050   1.842   5.906  0.2422 -0.3766 -0.6989
 6468TIP3    H140819   4.056   1.923   5.958 -1.0098 -0.6035 -0.1502
 6468TIP3    H240820   3.977   1.794   5.946  1.7137 -2.3404 -0.2377
 6469TIP3   OH240821   4.298   4.586  12.317  0.2221 -0.0989 -0.1496
 6469TIP3    H140822   4.233   4.655  12.325  1.0832  1.1070 -2.4681
 6469TIP3    H240823   4.249   4.510  12.286 -0.6859 -0.5048  2.1362
 6470TIP3   OH240824   6.433   4.163   5.409 -0.1142  0.3695  0.4473
 6470TIP3    H140825   6.419   4.073   5.438  0.1457  0.3252  0.4344
 6470TIP3    H240826   6.518   4.162   5.364 -0.1193  0.6141  0.4273
 6471TIP3   OH240827   0.960   5.849  14.840 -0.7227 -0.2595 -0.0144
 6471TIP3    H140828   0.983   5.942  14.846 -1.7853  0.0006  0.1522
 6471TIP3    H240829   1.030   5.811  14.787 -0.8960  0.8523 -1.0959
 6472TIP3   OH240830   0.153   4.777   1.983 -0.6089  0.0832  0.4110
 6472TIP3    H140831   0.221   4.823   1.934 -1.6122 -0.7896 -1.9414
 6472TIP3    H240832   0.170   4.800   2.074  1.4151  1.7336 -0.2956
 6473TIP3   OH240833   2.887   5.325   4.260 -0.0274 -0.1266  0.4048
 6473TIP3    H140834   2.898   5.395   4.324  1.0679 -0.1281  0.2350
 6473TIP3    H240835   2.913   5.365   4.176  0.8253 -0.7843  0.3413
 6474TIP3   OH240836   3.320   6.220  13.137 -0.4856  0.2245  0.0216
 6474TIP3    H140837   3.345   6.249  13.049  0.1149  1.5292  0.5940
 6474TIP3    H240838   3.341   6.127  13.139  1.9565  0.7021 -0.3786
 6475TIP3   OH240839   2.436   3.241   5.604 -0.0147 -1.0270  0.3148
 6475TIP3    H140840   2.411   3.155   5.638 -1.5347 -0.7337 -0.0055
 6475TIP3    H240841   2.376   3.302   5.645  0.2627 -0.2591 -0.3935
 6476TIP3   OH240842   4.615   2.023   3.485  0.1354  0.3802 -0.1001
 6476TIP3    H140843   4.603   2.097   3.544 -0.3381  0.7709 -0.6727
 6476TIP3    H240844   4.691   1.976   3.519 -0.0806  0.6521  0.7597
 6477TIP3   OH240845   1.494   5.521  17.014 -0.7767  0.1202  0.1220
 6477TIP3    H140846   1.465   5.439  17.054 -1.4221  0.0657 -0.4338
 6477TIP3    H240847   1.414   5.572  17.004 -0.1409  1.6306  2.2062
 6478TIP3   OH240848   1.280   4.581   3.636 -0.9477  0.5784 -0.3474
 6478TIP3    H140849   1.323   4.609   3.555  0.9536 -0.7814  0.1183
 6478TIP3    H240850   1.293   4.654   3.697  0.3081  0.4142 -0.3861
 6479TIP3   OH240851   6.735   3.400   4.569 -0.0684  0.1737 -0.5458
 6479TIP3    H140852   6.827   3.375   4.569 -0.4255 -1.3672 -2.0710
 6479TIP3    H240853   6.735   3.492   4.543  1.0781  0.5479  0.6742
 6480TIP3   OH240854   4.624   2.034   5.092  0.2822 -0.4589 -0.0013
 6480TIP3    H140855   4.554   2.037   5.027  0.2329  0.6205  0.0861
 6480TIP3    H240856   4.703   2.060   5.044  0.5379 -1.1660  0.0217
 6481TIP3   OH240857   2.134   5.123  10.526 -0.0505  0.5329 -0.2255
 6481TIP3    H140858   2.080   5.157  10.597  1.0215  2.1786 -0.1464
 6481TIP3    H240859   2.181   5.050  10.566  0.3031  1.2397  0.6958
 6482TIP3   OH240860   1.967   6.433  16.668 -0.1256  0.2984 -0.0029
 6482TIP3    H140861   1.924   6.362  16.621 -0.4805  0.7457 -0.3668
 6482TIP3    H240862   1.992   6.395  16.752  0.2490 -0.4291 -0.4287
 6483TIP3   OH240863   5.919   6.364   1.679 -0.7196 -0.7104  0.3831
 6483TIP3    H140864   5.947   6.292   1.735  0.7895  0.2830  0.9847
 6483TIP3    H240865   5.829   6.381   1.706 -0.6387 -1.4773  1.1905
 6484TIP3   OH240866   3.124   4.977   5.118  0.3982  0.7533  0.4480
 6484TIP3    H140867   3.040   4.932   5.120  0.7757  0.0627  1.6823
 6484TIP3    H240868   3.189   4.907   5.129  1.0539  1.4423  1.0397
 6485TIP3   OH240869   3.512   3.022  11.682  0.0075  0.5576 -0.8926
 6485TIP3    H140870   3.433   2.967  11.679 -1.0789  2.0447 -1.1348
 6485TIP3    H240871   3.479   3.108  11.708  1.9825  0.5814  1.9113
 6486TIP3   OH240872   0.132   5.113  13.678 -0.8969 -0.0323 -0.3888
 6486TIP3    H140873   0.167   5.063  13.604 -0.0564  0.6761 -0.4835
 6486TIP3    H240874   0.196   5.182  13.693 -2.9102  2.1987 -1.4627
 6487TIP3   OH240875   6.016   0.288  11.436  0.3245  0.1150 -0.3712
 6487TIP3    H140876   6.108   0.314  11.433 -0.4157  2.9592 -0.4522
 6487TIP3    H240877   5.967   0.366  11.412 -2.2004 -0.8698  1.1389
 6488TIP3   OH240878   3.301   4.424   1.807  0.3653 -0.2404 -0.4123
 6488TIP3    H140879   3.217   4.410   1.851  0.8981 -0.5898  0.5286
 6488TIP3    H240880   3.328   4.511   1.836  1.6182 -1.1986  1.5789
 6489TIP3   OH240881   2.318   0.199  16.261  0.0137 -0.2771  0.4601
 6489TIP3    H140882   2.233   0.168  16.293  0.0160 -0.3922  0.3551
 6489TIP3    H240883   2.370   0.212  16.340 -0.6636  1.4513  0.6709
 6490TIP3   OH240884   6.382   4.029  11.979 -0.2606 -0.1568 -0.5485
 6490TIP3    H140885   6.472   4.057  11.995 -0.1548 -0.5054 -0.5296
 6490TIP3    H240886   6.386   3.982  11.895 -0.5463  0.4029 -0.8795
 6491TIP3   OH240887   2.700   3.783   4.082 -0.4259  0.3830 -0.3516
 6491TIP3    H140888   2.657   3.708   4.123 -0.2312 -0.8966 -2.3234
 6491TIP3    H240889   2.670   3.780   3.991  1.5523  1.1923 -1.0780
 6492TIP3   OH240890   2.932   4.268  15.461 -0.1997  0.3123 -0.3999
 6492TIP3    H140891   2.997   4.268  15.390  0.1906  0.2705 -0.0496
 6492TIP3    H240892   2.926   4.359  15.489 -0.1202  0.2817 -0.2806
 6493TIP3   OH240893   5.286   0.585  10.715  0.4373 -0.2141 -0.0574
 6493TIP3    H140894   5.268   0.673  10.682 -0.6937 -0.3137  0.2386
 6493TIP3    H240895   5.321   0.538  10.639  0.0844  0.2161 -0.4943
 6494TIP3   OH240896   4.219   0.473   1.134 -0.4253 -0.0303  0.6889
 6494TIP3    H140897   4.159   0.535   1.175  0.8195 -0.4976  3.4462
 6494TIP3    H240898   4.163   0.404   1.099 -1.6047  0.4083  1.6462
 6495TIP3   OH240899   2.361   5.665  10.359 -0.3860 -0.1461  0.2353
 6495TIP3    H140900   2.341   5.702  10.445  0.4801  0.5493  0.1485
 6495TIP3    H240901   2.433   5.604  10.376 -0.3484 -0.1563  0.0359
 6496TIP3   OH240902   3.464   1.469   3.793 -0.1601 -0.3202  0.3807
 6496TIP3    H140903   3.511   1.423   3.862  0.2003  0.7477  0.8724
 6496TIP3    H240904   3.499   1.558   3.795 -0.8792  0.0054 -0.4982
 6497TIP3   OH240905   4.679   0.186   4.736  0.0827 -0.0437 -0.0213
 6497TIP3    H140906   4.674   0.201   4.641  0.0865 -2.8132 -0.5648
 6497TIP3    H240907   4.595   0.215   4.770 -0.2356  0.2358 -1.0239
 6498TIP3   OH240908   2.880   6.478   2.436  0.1055 -0.0544  0.1073
 6498TIP3    H140909   2.944   6.407   2.437 -1.1920 -1.3146 -1.5212
 6498TIP3    H240910   2.895   6.522   2.352 -0.1620  0.6202  0.4038
 6499TIP3   OH240911   3.951   5.254  14.625 -0.2275 -0.5879 -0.0974
 6499TIP3    H140912   4.012   5.182  14.606 -0.3295 -0.5133 -0.7527
 6499TIP3    H240913   3.866   5.211  14.632 -0.3793 -0.4833 -1.0610
 6500TIP3   OH240914   6.556   6.514   4.855  0.0170  0.0018 -1.4353
 6500TIP3    H140915   6.467   6.544   4.873 -0.3779 -1.7452 -0.1415
 6500TIP3    H240916   6.544   6.424   4.823  1.3334 -0.4717 -0.6571
 6501TIP3   OH240917   2.336   3.478  14.420  0.0936  0.5215 -0.3020
 6501TIP3    H140918   2.288   3.395  14.431  2.4201 -0.9361 -0.5728
 6501TIP3    H240919   2.274   3.535  14.373 -2.6401  0.0063  2.3497
 6502TIP3   OH240920   6.132   0.749   0.684  0.4599 -0.6389  0.1468
 6502TIP3    H140921   6.221   0.713   0.685  0.3663 -0.8677  0.7463
 6502TIP3    H240922   6.120   0.787   0.771  0.1460 -0.1703 -0.0981
 6503TIP3   OH240923   5.947   4.896  14.745 -0.7192  0.3863 -0.3877
 6503TIP3    H140924   5.944   4.911  14.839 -1.6237 -0.1904 -0.3158
 6503TIP3    H240925   5.978   4.806  14.736  1.9902  1.2500 -0.7421
 6504TIP3   OH240926   5.472   4.421  15.679  0.1416  0.1758  0.7528
 6504TIP3    H140927   5.391   4.390  15.638  0.4876 -1.9532  1.5182
 6504TIP3    H240928   5.528   4.446  15.606 -0.5592 -0.0984  0.1107
 6505TIP3   OH240929   2.968   5.588   4.102 -0.4197 -0.3762  0.2055
 6505TIP3    H140930   3.002   5.577   4.013 -0.2957  2.2485 -0.1527
 6505TIP3    H240931   3.036   5.637   4.147 -1.9239  1.4086  0.6676
 6506TIP3   OH240932   5.081   4.844  14.858  0.3651 -0.3148 -0.0296
 6506TIP3    H140933   5.070   4.755  14.824  0.8066 -0.0399 -0.9124
 6506TIP3    H240934   4.992   4.878  14.865  0.2887 -0.1503 -1.5524
 6507TIP3   OH240935   2.096   4.728  16.017 -0.1070 -0.2086 -0.7891
 6507TIP3    H140936   2.067   4.817  15.999 -0.1146  0.2934  1.3818
 6507TIP3    H240937   2.063   4.710  16.105  0.8123 -1.9685 -0.7588
 6508TIP3   OH240938   3.369   6.151  11.148 -0.1044  0.4244 -0.4053
 6508TIP3    H140939   3.347   6.091  11.218 -0.1770  1.7167  0.7194
 6508TIP3    H240940   3.465   6.150  11.145 -0.0884  0.6640 -0.0123
 6509TIP3   OH240941   2.193   4.822   4.862  0.8674  0.3374  0.1607
 6509TIP3    H140942   2.218   4.912   4.883  2.0573 -0.0623  0.5867
 6509TIP3    H240943   2.098   4.820   4.872  0.8863  1.4063  0.6976
 6510TIP3   OH240944   4.420   6.772   3.631 -0.4631  0.4195  0.4067
 6510TIP3    H140945   4.508   6.774   3.594 -0.8208 -1.4816 -0.7040
 6510TIP3    H240946   4.422   6.835   3.702  1.2975  1.6360 -0.6524
 6511TIP3   OH240947   5.176   5.275   5.752  0.0431 -0.2297 -0.5219
 6511TIP3    H140948   5.219   5.305   5.672  0.7149 -2.4650 -1.0658
 6511TIP3    H240949   5.107   5.339   5.768  1.4163  1.5933 -1.5195
 6512TIP3   OH240950   6.470   5.562  10.510  0.2283  0.0337 -0.4509
 6512TIP3    H140951   6.419   5.552  10.590  0.0892 -1.7407 -0.7393
 6512TIP3    H240952   6.439   5.644  10.472  1.1010  1.5495  1.8609
 6513TIP3   OH240953   1.597   3.853   5.088  0.3752 -0.1813 -0.7240
 6513TIP3    H140954   1.530   3.846   5.156  1.6420  2.1952  0.9056
 6513TIP3    H240955   1.640   3.768   5.087 -0.3702 -0.5981  0.6868
 6514TIP3   OH240956   0.386   2.584  14.203  0.5588 -0.1347  0.3581
 6514TIP3    H140957   0.470   2.626  14.186  0.4152 -0.2055 -0.6365
 6514TIP3    H240958   0.349   2.632  14.277  1.4718 -0.1064  0.8046
 6515TIP3   OH240959   6.703   6.683  13.803 -0.5134 -0.2920 -0.4784
 6515TIP3    H140960   6.710   6.647  13.715  2.7374  0.2263 -0.5571
 6515TIP3    H240961   6.662   6.768  13.792 -1.2813 -0.7613 -1.3052
 6516TIP3   OH240962   1.023   1.393   0.736 -0.1381 -0.6824 -0.3920
 6516TIP3    H140963   0.975   1.474   0.722 -1.4108 -1.5938 -1.7220
 6516TIP3    H240964   1.105   1.404   0.687  0.3901  0.3355  0.6823
 6517TIP3   OH240965   5.123   3.368  15.707 -0.4112  0.4215  0.8440
 6517TIP3    H140966   5.067   3.296  15.678  0.3949  0.1102 -0.0277
 6517TIP3    H240967   5.212   3.333  15.700 -0.1096  0.8461  2.3615
 6518TIP3   OH240968   6.165   1.565  13.881  0.2397  0.1095 -0.1647
 6518TIP3    H140969   6.236   1.513  13.843 -1.6247 -2.0319 -0.9799
 6518TIP3    H240970   6.157   1.641  13.824  0.8777 -0.4254 -0.9869
 6519TIP3   OH240971   6.012   1.299  16.341  0.1607  0.1617 -0.2054
 6519TIP3    H140972   5.986   1.376  16.391  0.1291  1.4530 -2.1152
 6519TIP3    H240973   5.929   1.261  16.310  0.2501  1.1119 -1.7182
 6520TIP3   OH240974   3.089   5.042   1.496  0.1540  0.1562  0.9015
 6520TIP3    H140975   3.045   4.988   1.430 -1.0780 -0.0704  1.8769
 6520TIP3    H240976   3.112   5.122   1.449 -0.7597  0.0261  0.1910
 6521TIP3   OH240977   0.333   5.845  11.117  0.1835  0.3328 -0.0371
 6521TIP3    H140978   0.359   5.921  11.169  0.4453 -1.2490  2.2756
 6521TIP3    H240979   0.253   5.813  11.159  1.2529 -1.9104  0.4674
 6522TIP3   OH240980   2.453   4.937  16.442  0.2019  0.3366 -0.1463
 6522TIP3    H140981   2.541   4.972  16.457  0.7028 -1.3561  1.0920
 6522TIP3    H240982   2.413   4.934  16.529 -0.0172 -1.5649 -0.2734
 6523TIP3   OH240983   1.434   5.514   4.467 -0.1175 -0.2461 -0.8567
 6523TIP3    H140984   1.518   5.470   4.451  0.8508  1.1561  0.1713
 6523TIP3    H240985   1.421   5.569   4.389 -0.5358 -1.1204 -1.4153
 6524TIP3   OH240986   2.725   5.300   4.752 -0.3394  0.5575  0.8362
 6524TIP3    H140987   2.695   5.325   4.840 -1.8485  5.3318 -0.7513
 6524TIP3    H240988   2.676   5.220   4.732 -1.3702  0.3838  3.5828
 6525TIP3   OH240989   4.875   2.522  15.125  1.0550 -0.1382  0.4141
 6525TIP3    H140990   4.959   2.543  15.083  0.8310  0.2944  0.1804
 6525TIP3    H240991   4.892   2.531  15.219  0.5837  2.6543  0.3067
 6526TIP3   OH240992   0.245   0.058  12.582  1.1132  0.1563  0.3137
 6526TIP3    H140993   0.273  -0.021  12.536  1.8002  0.5090  0.1232
 6526TIP3    H240994   0.309   0.069  12.652 -0.2778 -0.7407  1.8085
 6527TIP3   OH240995   6.815   3.914   4.802 -0.3130 -0.3157 -0.2052
 6527TIP3    H140996   6.761   3.835   4.808 -2.0178  0.7428 -0.8577
 6527TIP3    H240997   6.811   3.938   4.710 -0.3445  0.8819  0.1032
 6528TIP3   OH240998   4.273   6.305  10.384  0.9014  0.0964 -0.1378
 6528TIP3    H140999   4.315   6.312  10.299  1.5390 -0.3839  0.1278
 6528TIP3    H241000   4.262   6.395  10.414  2.6172  0.2182  0.2012
 6529TIP3   OH241001   1.149   5.779   6.158  0.0710 -0.2835  0.6415
 6529TIP3    H141002   1.120   5.727   6.233 -1.4032  0.4338  0.6197
 6529TIP3    H241003   1.137   5.720   6.083 -1.1150 -0.1252  0.6741
 6530TIP3   OH241004   6.235   3.918   3.613  0.3980 -0.0618 -0.1741
 6530TIP3    H141005   6.260   3.964   3.693 -0.9306  1.1575 -0.4078
 6530TIP3    H241006   6.166   3.973   3.575  0.6639 -0.8691 -1.9082
 6531TIP3   OH241007   4.524   3.877   3.160  0.0749 -0.1343 -0.9797
 6531TIP3    H141008   4.477   3.955   3.131 -0.4226 -0.2029 -0.3581
 6531TIP3    H241009   4.607   3.910   3.194  0.7640 -0.0636 -2.6230
 6532TIP3   OH241010   4.179   6.596  11.468 -0.9018 -0.4823  0.0593
 6532TIP3    H141011   4.208   6.519  11.418 -2.4188  0.1076 -1.8672
 6532TIP3    H241012   4.250   6.659  11.458 -0.8141 -0.6785 -0.6845
 6533TIP3   OH241013   0.815   2.368  13.464  0.5731  0.0796 -0.0039
 6533TIP3    H141014   0.752   2.385  13.533  1.2012 -0.1570  0.6502
 6533TIP3    H241015   0.900   2.388  13.503  0.9726 -0.4000 -0.5903
 6534TIP3   OH241016   1.225   2.915  13.510 -0.1552  0.2616  0.5196
 6534TIP3    H141017   1.298   2.919  13.572  0.8403 -1.3038 -0.4962
 6534TIP3    H241018   1.261   2.950  13.428 -0.5899 -0.3187  0.0691
 6535TIP3   OH241019   3.463   0.383   2.042 -0.2903 -0.2326 -0.6228
 6535TIP3    H141020   3.480   0.476   2.049  0.0827 -0.2650 -1.1008
 6535TIP3    H241021   3.369   0.374   2.061 -0.8150  0.4909 -2.6296
 6536TIP3   OH241022   4.809   6.719   2.162  0.4968 -0.0322 -0.0498
 6536TIP3    H141023   4.799   6.725   2.257  2.3575 -1.8627  0.3397
 6536TIP3    H241024   4.873   6.788   2.140  0.7515 -0.1906  0.1843
 6537TIP3   OH241025   3.266   4.227   5.930  0.5081 -0.3470 -0.6245
 6537TIP3    H141026   3.269   4.282   6.009 -0.2021  1.2919 -1.6828
 6537TIP3    H241027   3.241   4.287   5.860 -1.7914 -2.2871 -1.6183
 6538TIP3   OH241028   0.332   0.850   1.430  0.6173 -0.4814 -0.0469
 6538TIP3    H141029   0.266   0.847   1.499 -0.1084 -1.1504 -0.7594
 6538TIP3    H241030   0.339   0.760   1.399  0.2283 -0.0450 -1.4877
 6539TIP3   OH241031   6.764   1.660   5.318  0.2561 -1.2442  0.1522
 6539TIP3    H141032   6.754   1.748   5.354 -0.4250 -0.6331 -1.4367
 6539TIP3    H241033   6.828   1.670   5.247  1.5894 -2.4138  1.1137
 6540TIP3   OH241034   4.128   2.495  15.363  0.4591  0.0151  0.1096
 6540TIP3    H141035   4.186   2.419  15.362 -0.9401 -1.1147  0.6862
 6540TIP3    H241036   4.103   2.507  15.271  2.6043  1.3786 -0.3616
 6541TIP3   OH241037   3.698   6.531   2.096  0.0342  0.3226  0.1518
 6541TIP3    H141038   3.682   6.447   2.054  0.5421  0.9676 -1.4246
 6541TIP3    H241039   3.614   6.576   2.094  0.3705  0.9377 -1.6211
 6542TIP3   OH241040   6.501   0.955  13.500 -0.2982  0.1187  0.0858
 6542TIP3    H141041   6.485   0.919  13.587  0.0825  1.3129  0.6546
 6542TIP3    H241042   6.458   0.892  13.441 -3.4777  0.9649  1.2825
 6543TIP3   OH241043   5.176   1.488  15.635 -0.0070  0.4515  0.2311
 6543TIP3    H141044   5.203   1.563  15.689  1.0093  1.3733 -1.4803
 6543TIP3    H241045   5.258   1.452  15.603 -0.5928 -0.0137 -0.7713
 6544TIP3   OH241046   1.557   2.957  16.294  0.6401  0.1706 -0.0333
 6544TIP3    H141047   1.569   3.029  16.357  1.5167  0.7104 -0.8035
 6544TIP3    H241048   1.482   2.985  16.241  1.0663  0.5877 -0.4217
 6545TIP3   OH241049   0.584   1.596  13.720 -0.0399  0.2034 -0.0218
 6545TIP3    H141050   0.542   1.543  13.651  1.1921 -1.3982  0.3813
 6545TIP3    H241051   0.678   1.582  13.706  0.3202  1.8961  0.4629
 6546TIP3   OH241052   2.120   0.447   3.592 -0.3134  0.6252  0.1441
 6546TIP3    H141053   2.036   0.430   3.550 -0.4311  1.3020  0.0845
 6546TIP3    H241054   2.105   0.525   3.645 -0.1223 -0.1280  1.3406
 6547TIP3   OH241055   3.037   6.415  12.001 -0.4100 -0.1267  0.2124
 6547TIP3    H141056   3.130   6.392  11.996 -0.8043 -1.8005 -0.1372
 6547TIP3    H241057   3.036   6.502  12.041  1.3177  0.1157 -0.1789
 6548TIP3   OH241058   1.323   2.008  14.553  0.0729  0.0763 -0.4387
 6548TIP3    H141059   1.367   2.028  14.635 -0.5166  3.0552 -0.7002
 6548TIP3    H241060   1.367   1.931  14.519 -0.6831 -2.2615  3.3457
 6549TIP3   OH241061   4.808   6.830   0.441  0.3140  1.2707  0.6360
 6549TIP3    H141062   4.868   6.762   0.473 -1.0371  0.4485  1.5371
 6549TIP3    H241063   4.728   6.816   0.491 -0.3655  2.8576  0.0434
 6550TIP3   OH241064   0.629   6.159  10.843  0.0250  0.7554 -0.1671
 6550TIP3    H141065   0.540   6.145  10.874  0.3201 -0.7678  0.1042
 6550TIP3    H241066   0.622   6.229  10.779 -1.3985  0.5592 -0.2518
 6551TIP3   OH241067   0.946   3.387  12.564 -0.3070 -0.1247  0.7604
 6551TIP3    H141068   0.916   3.403  12.475  0.6398  2.2148  0.7945
 6551TIP3    H241069   0.972   3.473  12.597  3.2649 -1.4012  1.8543
 6552TIP3   OH241070   2.119   1.814   0.112 -0.0600 -0.6512  0.1380
 6552TIP3    H141071   2.107   1.755   0.187 -1.9410  1.7649  1.8617
 6552TIP3    H241072   2.051   1.788   0.050  0.6433 -1.7808 -0.1962
 6553TIP3   OH241073   5.257   1.119  10.822 -0.1920  0.7003  0.0963
 6553TIP3    H141074   5.307   1.121  10.903  1.4396 -1.6405 -0.7591
 6553TIP3    H241075   5.170   1.089  10.847  0.6010 -1.0537  0.8963
 6554TIP3   OH241076   6.154   6.457   0.866  0.0817 -0.4582 -0.2005
 6554TIP3    H141077   6.114   6.370   0.856 -1.5260 -0.0510  1.8445
 6554TIP3    H241078   6.084   6.510   0.904  1.3438  1.4843 -0.4749
 6555TIP3   OH241079   3.751   1.360   4.001 -0.5625 -0.3388 -0.5225
 6555TIP3    H141080   3.805   1.293   4.042 -0.6671 -0.4019 -0.4874
 6555TIP3    H241081   3.670   1.360   4.052 -0.5290 -0.1247 -0.4676
 6556TIP3   OH241082   5.793   0.917   2.374  0.0982 -0.2963 -0.2889
 6556TIP3    H141083   5.749   0.868   2.305 -0.2547  0.2630 -0.4641
 6556TIP3    H241084   5.845   0.851   2.421 -0.9869 -0.9841 -0.0185
 6557TIP3   OH241085   6.262   5.373  15.113  0.6503 -0.3659  0.2285
 6557TIP3    H141086   6.351   5.384  15.147  1.6679  1.4512 -2.6881
 6557TIP3    H241087   6.222   5.460  15.121  0.6271 -0.0932 -2.1873
 6558TIP3   OH241088   4.944   3.352   0.893 -0.1666  0.6298  0.2718
 6558TIP3    H141089   4.955   3.321   0.803 -0.6883  2.2771 -0.3948
 6558TIP3    H241090   4.902   3.437   0.884  0.9866  1.4362  2.0306
 6559TIP3   OH241091   3.910   1.147   4.095 -0.2976  0.0721 -0.1570
 6559TIP3    H141092   3.952   1.148   4.009  2.7784  0.8859  1.1933
 6559TIP3    H241093   3.970   1.095   4.149 -0.8932  1.5128  1.9992
 6560TIP3   OH241094   6.010   3.663   0.994 -0.0262  0.1091 -0.3650
 6560TIP3    H141095   6.100   3.635   0.979  0.2718  0.2536  0.9769
 6560TIP3    H241096   5.956   3.596   0.952  0.7127 -0.3651 -0.5626
 6561TIP3   OH241097   3.960   4.259   5.374  0.5976  0.2463  0.3214
 6561TIP3    H141098   4.030   4.253   5.310  0.4361  1.7858 -0.0395
 6561TIP3    H241099   3.979   4.339   5.424 -1.3138  1.1732 -0.3443
 6562TIP3   OH241100   2.719   4.907  11.220 -0.2579  0.0161  0.0142
 6562TIP3    H141101   2.700   4.919  11.313  0.2445  0.8755  0.0099
 6562TIP3    H241102   2.681   4.821  11.200  0.3222 -0.5474  1.1955
 6563TIP3   OH241103   5.165   2.577   4.964 -0.2831  0.8238 -0.3172
 6563TIP3    H141104   5.175   2.533   5.048  1.2010  0.0633 -0.8581
 6563TIP3    H241105   5.241   2.549   4.913 -0.8813  1.6745 -1.7342
 6564TIP3   OH241106   3.941   2.748  15.961 -0.5889 -0.2072  0.4826
 6564TIP3    H141107   3.953   2.669  16.014 -1.0987 -1.1045 -0.6853
 6564TIP3    H241108   4.026   2.791  15.963 -0.3691 -0.6530  1.3473
 6565TIP3   OH241109   0.599   5.533   5.526 -0.0170  0.5455  0.3250
 6565TIP3    H141110   0.560   5.511   5.442 -0.4280  2.8110 -0.1318
 6565TIP3    H241111   0.524   5.559   5.581  0.3733  0.2617  1.0049
 6566TIP3   OH241112   0.556   1.948  10.870 -0.5170 -0.2962  0.3016
 6566TIP3    H141113   0.505   2.013  10.822  0.1689 -0.6682 -0.9653
 6566TIP3    H241114   0.643   1.952  10.831  0.1920 -0.3249  1.8070
 6567TIP3   OH241115   4.236   1.732   4.982 -0.0049  0.2277 -0.2832
 6567TIP3    H141116   4.146   1.723   5.015 -0.0812  1.0309 -0.2648
 6567TIP3    H241117   4.261   1.643   4.957 -0.9654  0.0669 -0.6984
 6568TIP3   OH241118   1.905   0.498   1.887 -0.2797 -0.4702  0.9506
 6568TIP3    H141119   1.939   0.537   1.807 -1.2426  1.3078  1.3537
 6568TIP3    H241120   1.939   0.409   1.887  0.1560 -0.3493 -1.1712
 6569TIP3   OH241121   4.727   3.786   6.321 -0.4279  0.2155 -0.5373
 6569TIP3    H141122   4.713   3.692   6.318  0.4212  0.0947 -1.1906
 6569TIP3    H241123   4.654   3.820   6.373 -1.7076 -0.6056 -1.7304
 6570TIP3   OH241124   2.428   0.465   0.935 -0.3977  0.3747 -0.1718
 6570TIP3    H141125   2.342   0.506   0.944 -0.2365  0.2988  3.6071
 6570TIP3    H241126   2.488   0.538   0.924 -0.7039  0.6664  0.0397
 6571TIP3   OH241127   2.212   6.163  12.627 -0.5681 -0.5477 -0.0787
 6571TIP3    H141128   2.160   6.118  12.561 -1.5072 -0.8192  0.8181
 6571TIP3    H241129   2.163   6.243  12.646  0.5311  0.3516 -0.8664
 6572TIP3   OH241130   3.559   1.011   2.384  0.0821  0.0702 -0.8860
 6572TIP3    H141131   3.633   1.012   2.444  0.3494 -0.0500 -1.2114
 6572TIP3    H241132   3.569   0.930   2.335 -1.3842 -0.9886  0.4461
 6573TIP3   OH241133   0.021   6.623  14.226 -0.3563  0.3586 -0.8354
 6573TIP3    H141134   0.018   6.573  14.144 -1.3003 -0.4045 -0.3555
 6573TIP3    H241135  -0.005   6.560  14.293 -0.2644  1.1584 -0.0325
 6574TIP3   OH241136   4.349   4.859  13.522  0.4131  0.3609  0.0744
 6574TIP3    H141137   4.286   4.875  13.592  0.3099  0.5251 -0.0568
 6574TIP3    H241138   4.374   4.767  13.533 -4.3182 -1.8139 -3.3545
 6575TIP3   OH241139   0.124   1.034  10.415 -0.2965  0.4097  0.1910
 6575TIP3    H141140   0.126   1.124  10.381  0.7371  1.3822  2.5602
 6575TIP3    H241141   0.216   1.013  10.431 -0.6481 -0.3684  1.3425
 6576TIP3   OH241142   6.042   2.291   0.501 -0.0611 -0.1013 -0.3156
 6576TIP3    H141143   5.998   2.252   0.425 -1.4130  1.3781 -0.3323
 6576TIP3    H241144   5.973   2.339   0.547  1.0565  0.2970  1.0130
 6577TIP3   OH241145   0.536   3.374  12.650 -0.0817 -0.7823  0.1623
 6577TIP3    H141146   0.547   3.466  12.626 -0.8017 -0.6502  0.2970
 6577TIP3    H241147   0.601   3.359  12.718  1.5916 -1.0012 -1.4171
 6578TIP3   OH241148   4.465   6.382   0.906 -0.3387 -0.1139 -0.1570
 6578TIP3    H141149   4.418   6.339   0.835  0.5704 -1.5638  0.0611
 6578TIP3    H241150   4.444   6.330   0.984  0.2558  0.2361  0.2467
 6579TIP3   OH241151   3.986   0.845  14.218  0.0941  0.0119 -0.0070
 6579TIP3    H141152   4.045   0.811  14.151 -0.7058 -2.1144  0.2860
 6579TIP3    H241153   3.967   0.935  14.191  2.6646  0.4569 -0.6227
 6580TIP3   OH241154   5.810   1.832  16.707 -0.2856 -0.1845  0.3996
 6580TIP3    H141155   5.883   1.783  16.745  0.3311  0.6480  0.3060
 6580TIP3    H241156   5.851   1.909  16.667 -1.3130  0.8515  1.2722
 6581TIP3   OH241157   4.964   1.375  15.801  0.2585  0.2012  0.3414
 6581TIP3    H141158   5.034   1.400  15.740 -0.9006 -0.3964 -1.3257
 6581TIP3    H241159   4.891   1.434  15.778 -0.5073 -0.6597  0.5031
 6582TIP3   OH241160   4.627   2.570   4.085  0.0412  0.3818 -0.1493
 6582TIP3    H141161   4.584   2.632   4.026 -0.5120 -0.5281 -0.7289
 6582TIP3    H241162   4.677   2.625   4.145  1.6169  1.3289 -2.1859
 6583TIP3   OH241163   1.790   3.496   2.656 -0.2070  0.0979  0.3396
 6583TIP3    H141164   1.839   3.576   2.638 -0.2604  0.2657  0.9133
 6583TIP3    H241165   1.700   3.518   2.632  0.1076 -0.4875 -1.5381
 6584TIP3   OH241166   3.657   4.843  13.499  0.0296 -0.4384 -0.6173
 6584TIP3    H141167   3.702   4.769  13.539  1.1436 -0.4417 -1.8005
 6584TIP3    H241168   3.570   4.842  13.538  0.6220 -1.2417  0.7592
 6585TIP3   OH241169   4.363   4.851  14.209  0.4258 -0.6209 -0.2711
 6585TIP3    H141170   4.282   4.829  14.255 -0.6475  1.4997 -0.9826
 6585TIP3    H241171   4.404   4.918  14.264  2.0315 -2.0575  0.3631
 6586TIP3   OH241172   0.537   5.621  14.880 -0.7042 -0.1795 -0.1216
 6586TIP3    H141173   0.512   5.712  14.860  1.6421  0.6792  0.4555
 6586TIP3    H241174   0.544   5.579  14.794  1.0086  1.0628 -0.6471
 6587TIP3   OH241175   0.537   3.671  14.004  0.0420  0.3179  0.6204
 6587TIP3    H141176   0.592   3.677  13.926 -0.5982  0.9904  0.2050
 6587TIP3    H241177   0.462   3.619  13.977 -1.8649  3.2731 -0.2869
 6588TIP3   OH241178   0.259   3.646  11.790 -0.3426  0.0490  0.0647
 6588TIP3    H141179   0.295   3.673  11.875 -0.5628  2.1887 -0.4801
 6588TIP3    H241180   0.194   3.579  11.813  2.0665 -2.0899  1.2560
 6589TIP3   OH241181   1.042   3.890  15.539  0.4584  0.0085  0.4002
 6589TIP3    H141182   1.121   3.887  15.594  0.3080 -1.6942  0.5869
 6589TIP3    H241183   0.984   3.951  15.585  1.0745  0.0864  1.1020
 6590TIP3   OH241184   2.636   0.554   3.717  0.0084  0.6252  0.2530
 6590TIP3    H141185   2.569   0.542   3.650 -1.1031  0.5557  1.3423
 6590TIP3    H241186   2.674   0.467   3.729 -0.5900  0.3976  0.5236
 6591TIP3   OH241187   3.800   4.783  11.081  0.3705 -0.6795 -0.1705
 6591TIP3    H141188   3.802   4.859  11.023 -2.3573 -0.7610 -0.5389
 6591TIP3    H241189   3.784   4.708  11.023 -3.5752 -0.6297  0.5664
 6592TIP3   OH241190   4.192   4.340  14.395 -0.6331  0.1978 -1.0156
 6592TIP3    H141191   4.175   4.294  14.312  0.5323 -2.0323 -0.1249
 6592TIP3    H241192   4.111   4.329  14.445 -1.3692  1.6171 -1.8434
 6593TIP3   OH241193   1.215   0.904   4.062 -0.3393 -0.2626  0.3404
 6593TIP3    H141194   1.182   0.946   4.141 -0.7160  0.9049 -0.4093
 6593TIP3    H241195   1.167   0.947   3.990  0.0907 -1.1932 -0.5281
 6594TIP3   OH241196   0.169   3.270  11.839 -0.2234 -0.1954 -0.2824
 6594TIP3    H141197   0.184   3.212  11.913  3.0329  0.1412 -0.5032
 6594TIP3    H241198   0.141   3.212  11.768 -1.5725 -0.7689  0.6715
 6595TIP3   OH241199   1.998   0.111   2.294  0.1108  0.3563  0.0948
 6595TIP3    H141200   2.091   0.130   2.296  0.4446 -1.1682  1.1028
 6595TIP3    H241201   1.958   0.190   2.257  1.7977  0.9563 -0.5500
 6596TIP3   OH241202   6.607   6.285  16.080  0.3449  0.0699  0.4074
 6596TIP3    H141203   6.619   6.220  16.011 -2.0618 -0.9906  0.9093
 6596TIP3    H241204   6.654   6.249  16.155 -0.3218 -0.7517  0.4496
 6597TIP3   OH241205   1.022   0.333   2.458 -0.4949 -0.1514 -0.4744
 6597TIP3    H141206   1.105   0.305   2.496 -1.1457 -0.1516  1.0067
 6597TIP3    H241207   1.022   0.296   2.370  0.8243 -0.6299 -0.2863
 6598TIP3   OH241208   4.920   0.482  12.153  0.6302 -0.0591  0.0401
 6598TIP3    H141209   4.851   0.532  12.196 -1.0204 -2.1863  0.0075
 6598TIP3    H241210   4.959   0.429  12.222  0.3795 -0.8845 -0.4486
 6599TIP3   OH241211   2.016   6.553   2.003 -0.0550 -0.2639  0.1373
 6599TIP3    H141212   2.067   6.627   1.971 -0.4929  0.6249  1.4203
 6599TIP3    H241213   2.017   6.490   1.930 -0.1798  1.2333 -1.2197
 6600TIP3   OH241214   2.804   4.782  15.980  0.1830 -0.1747 -0.3853
 6600TIP3    H141215   2.724   4.761  15.932  0.2012 -1.9446  0.2585
 6600TIP3    H241216   2.778   4.778  16.072  1.3028 -2.5930 -0.0822
 6601TIP3   OH241217   1.638   2.574   4.232  0.0122 -0.2965 -0.4484
 6601TIP3    H141218   1.578   2.648   4.216 -1.3098 -1.3341 -0.4313
 6601TIP3    H241219   1.641   2.566   4.327  0.9218  0.3068 -0.4054
 6602TIP3   OH241220   4.463   5.107   6.008  0.0496  0.4856  0.0936
 6602TIP3    H141221   4.410   5.186   6.019 -0.6000 -0.1227  1.6816
 6602TIP3    H241222   4.535   5.118   6.070  0.8861  0.5760 -0.8831
 6603TIP3   OH241223   6.731   4.858   2.296 -1.0296 -0.0328  0.4383
 6603TIP3    H141224   6.811   4.910   2.285 -0.2085 -1.3217  0.1674
 6603TIP3    H241225   6.760   4.767   2.292 -2.3130 -0.5498  1.7250
 6604TIP3   OH241226   6.651   3.050  12.166  0.2960 -0.0208  0.3895
 6604TIP3    H141227   6.579   3.113  12.173  0.1713 -0.2258  1.0819
 6604TIP3    H241228   6.720   3.085  12.223  1.5776  1.2246 -1.7900
 6605TIP3   OH241229   4.606   0.024  15.413  0.2681  0.1455 -0.6811
 6605TIP3    H141230   4.632  -0.038  15.481 -0.9531 -0.8792 -1.1048
 6605TIP3    H241231   4.666   0.008  15.340  0.2044 -0.2793 -0.6416
 6606TIP3   OH241232   3.819   5.628  10.374  0.3277  0.3786 -0.5591
 6606TIP3    H141233   3.891   5.687  10.352  0.8032 -0.1151 -0.3524
 6606TIP3    H241234   3.855   5.570  10.440  0.2608 -0.9779 -1.6870
 6607TIP3   OH241235   3.805   5.397   4.206  0.0762  0.1037  0.2982
 6607TIP3    H141236   3.823   5.307   4.232 -0.7822 -0.8197 -1.9960
 6607TIP3    H241237   3.849   5.407   4.121 -1.4111  1.1831 -0.3926
 6608TIP3   OH241238   1.639   1.055   1.540  0.1160 -0.1729  0.6079
 6608TIP3    H141239   1.731   1.074   1.558  1.7039 -1.1895 -4.7402
 6608TIP3    H241240   1.626   0.967   1.574  1.5962 -0.5689  0.2105
 6609TIP3   OH241241   4.440   2.210  11.200 -0.3569 -0.2109 -0.1368
 6609TIP3    H141242   4.356   2.255  11.205  0.5238  1.4122  2.6275
 6609TIP3    H241243   4.420   2.119  11.219 -1.4009  0.4716  2.5495
 6610TIP3   OH241244   5.783   4.280   4.488 -0.1487  0.0794 -0.0411
 6610TIP3    H141245   5.742   4.307   4.406 -0.1971 -1.0500 -0.3979
 6610TIP3    H241246   5.877   4.281   4.470 -0.2117 -2.5712 -0.9327
 6611TIP3   OH241247   6.291   1.106   6.000  0.7637 -0.0264 -0.0815
 6611TIP3    H141248   6.241   1.025   6.012  4.6553 -2.8416 -0.8814
 6611TIP3    H241249   6.267   1.161   6.075 -2.7557 -1.4029 -0.0132
 6612TIP3   OH241250   3.425   1.743  15.288 -0.2098 -0.2219  0.0030
 6612TIP3    H141251   3.335   1.772  15.306 -0.2628 -1.0318  1.1590
 6612TIP3    H241252   3.453   1.700  15.369  1.1699 -0.1354 -0.3980
 6613TIP3   OH241253   4.940   3.830   3.103  0.2811  0.6053 -0.2320
 6613TIP3    H141254   4.913   3.751   3.056 -1.0333  0.7431  0.2340
 6613TIP3    H241255   4.889   3.900   3.062 -1.2902  0.6581  1.6584
 6614TIP3   OH241256   4.907   4.625  14.851  0.6169  0.0535  0.6417
 6614TIP3    H141257   4.827   4.674  14.831  0.0473 -0.6109  1.2407
 6614TIP3    H241258   4.929   4.582  14.768  0.0735 -0.1434  0.5928
 6615TIP3   OH241259   1.555   3.652  12.027  0.1579  0.8170  0.0456
 6615TIP3    H141260   1.466   3.626  12.052  0.4684 -0.4361 -0.0854
 6615TIP3    H241261   1.547   3.679  11.935 -0.5775  3.3688  0.7819
 6616TIP3   OH241262   0.514   4.231   4.769 -0.7025  0.1798 -0.3211
 6616TIP3    H141263   0.601   4.267   4.749 -0.3880 -0.4521 -0.1119
 6616TIP3    H241264   0.487   4.276   4.849 -0.4391  0.1658 -0.2238
 6617TIP3   OH241265   3.681   2.216   5.858  0.1422 -0.4605  0.0835
 6617TIP3    H141266   3.607   2.273   5.877  0.7774 -0.0215  1.3147
 6617TIP3    H241267   3.711   2.245   5.771  0.9181  1.6418  0.9774
 6618TIP3   OH241268   6.529   3.799  14.165  0.2220  0.6506  0.0638
 6618TIP3    H141269   6.573   3.775  14.084  0.4642 -1.6720  0.8070
 6618TIP3    H241270   6.591   3.858  14.209  2.0074 -1.3303  0.3759
 6619TIP3   OH241271   4.703   6.318   2.727 -0.0229  0.2836  0.5992
 6619TIP3    H141272   4.775   6.262   2.758  0.0959 -0.0637 -0.2887
 6619TIP3    H241273   4.637   6.310   2.796 -0.1354 -1.2065  0.3521
 6620TIP3   OH241274   6.140   5.182  11.762  0.3178  0.5062 -0.0099
 6620TIP3    H141275   6.100   5.243  11.700 -1.8275  0.7760  1.5245
 6620TIP3    H241276   6.148   5.233  11.843 -0.1830 -0.8064  0.9001
 6621TIP3   OH241277   5.939   0.863  10.793  0.1055  0.1961 -0.2357
 6621TIP3    H141278   6.033   0.843  10.798 -0.0409 -0.2370  1.2486
 6621TIP3    H241279   5.918   0.857  10.700  1.1349 -1.6546 -0.3880
 6622TIP3   OH241280   1.792   5.551  14.615 -0.0787 -0.3092  0.4036
 6622TIP3    H141281   1.844   5.502  14.679  0.6327 -0.9521 -0.6266
 6622TIP3    H241282   1.702   5.527  14.634  0.1235 -0.4453  1.1986
 6623TIP3   OH241283   5.937   5.501   1.407  0.0219  1.1140 -0.0447
 6623TIP3    H141284   5.865   5.562   1.425 -0.8842  0.3926 -1.0646
 6623TIP3    H241285   5.972   5.530   1.323 -0.2988  0.3561 -0.4515
 6624TIP3   OH241286   3.871   0.001   2.539  0.4009 -0.2250  0.0021
 6624TIP3    H141287   3.812   0.046   2.599  1.2872  2.1977 -0.8244
 6624TIP3    H241288   3.958   0.014   2.576  0.8479  0.2860 -1.1730
 6625TIP3   OH241289   4.084   0.383  15.924  0.7013  0.2043  0.3519
 6625TIP3    H141290   4.178   0.394  15.915  1.2978 -3.4559  0.5438
 6625TIP3    H241291   4.058   0.337  15.845 -0.4916 -0.8273  1.3089
 6626TIP3   OH241292   4.214   6.341  12.586  0.3524 -0.0511  0.4341
 6626TIP3    H141293   4.189   6.250  12.573  0.9819  0.0506 -1.8441
 6626TIP3    H241294   4.305   6.338  12.614  1.2027 -0.1112 -2.1154
 6627TIP3   OH241295   2.235   0.937   3.191  0.2121  0.1600 -0.3503
 6627TIP3    H141296   2.268   0.976   3.109  2.2970  0.4046  0.5387
 6627TIP3    H241297   2.204   1.012   3.241  0.4814  0.2111 -0.2577
 6628TIP3   OH241298   0.722   5.546  14.559 -0.0738 -0.1140  0.0814
 6628TIP3    H141299   0.710   5.545  14.464 -0.9340  0.6861  0.1635
 6628TIP3    H241300   0.636   5.523  14.594  0.4295 -1.1361  0.6657
 6629TIP3   OH241301   1.266   5.766  15.153  0.3525 -0.5111 -0.1282
 6629TIP3    H141302   1.211   5.844  15.152 -0.9967 -1.4225 -1.8878
 6629TIP3    H241303   1.354   5.799  15.135 -0.0185  0.6970  0.1467
 6630TIP3   OH241304   1.920   2.677  12.652  0.1578  0.3849 -0.0164
 6630TIP3    H141305   1.871   2.595  12.645  1.1715 -0.1934 -0.4583
 6630TIP3    H241306   1.852   2.745  12.645 -0.6864 -0.3994  0.3051
 6631TIP3   OH241307   3.818   3.005  15.804 -0.1790  0.4824 -0.0103
 6631TIP3    H141308   3.732   3.025  15.767 -0.8001 -1.9639 -0.0543
 6631TIP3    H241309   3.802   2.932  15.865  1.6432  0.9683  1.1432
 6632TIP3   OH241310   5.744   2.290   2.342 -0.0179  0.0733  0.0500
 6632TIP3    H141311   5.768   2.208   2.383 -1.2475 -0.3996 -0.1225
 6632TIP3    H241312   5.817   2.349   2.359  0.6939 -0.9364  0.5198
 6633TIP3   OH241313   5.711   5.061   2.656  0.3266  0.0732  0.0153
 6633TIP3    H141314   5.628   5.102   2.683  0.2111 -0.5180  0.6025
 6633TIP3    H241315   5.778   5.118   2.693  0.1803  0.4562 -0.3048
 6634TIP3   OH241316   2.748   4.520  13.551  0.5489 -0.0020  0.1855
 6634TIP3    H141317   2.702   4.442  13.520 -0.6652  0.2592  1.2221
 6634TIP3    H241318   2.838   4.509  13.521  0.6220 -2.2355  1.0592
 6635TIP3   OH241319   2.507   2.268   0.094  0.3809  0.3907  0.3617
 6635TIP3    H141320   2.600   2.254   0.076  1.0195  1.3487  2.4893
 6635TIP3    H241321   2.493   2.360   0.074 -0.1881  0.1898 -0.1843
 6636TIP3   OH241322   4.064   5.369   0.146  0.0186 -0.7695 -0.1628
 6636TIP3    H141323   4.116   5.343   0.222 -1.1607  0.8111  1.2641
 6636TIP3    H241324   4.005   5.436   0.180 -1.5214 -1.0281 -2.1819
 6637TIP3   OH241325   0.927   2.745  15.663  0.0896 -0.5402  0.4297
 6637TIP3    H141326   0.844   2.713  15.629 -0.5307 -2.0750  3.1353
 6637TIP3    H241327   0.978   2.666  15.681  0.1083  0.0664  3.4903
 6638TIP3   OH241328   4.872   2.562  16.207 -0.0377  0.2539  0.6835
 6638TIP3    H141329   4.789   2.514  16.207 -0.7266  1.3961  0.2453
 6638TIP3    H241330   4.892   2.577  16.115  0.8037 -0.2462  0.7777
 6639TIP3   OH241331   4.120   0.770  15.928  0.5866  0.8795 -0.4845
 6639TIP3    H141332   4.156   0.724  15.852 -1.0955  0.9015 -1.3411
 6639TIP3    H241333   4.197   0.808  15.972  1.8734 -1.2757 -0.6989
 6640TIP3   OH241334   5.156   0.088  15.969  0.8147  0.1973  0.5769
 6640TIP3    H141335   5.184   0.096  16.061  0.6138 -2.2171  0.9060
 6640TIP3    H241336   5.236   0.062  15.922  1.1745  2.4791 -0.1809
 6641TIP3   OH241337   5.745   4.567   5.600 -0.5728  0.0439 -0.0050
 6641TIP3    H141338   5.793   4.548   5.681 -3.1881  3.3612  2.6326
 6641TIP3    H241339   5.707   4.482   5.576  1.0134 -1.2578  1.7031
 6642TIP3   OH241340   1.323   2.052   2.185 -0.0298  0.2806  0.1237
 6642TIP3    H141341   1.323   2.140   2.150 -1.0283 -0.3866 -1.6691
 6642TIP3    H241342   1.312   2.064   2.280  0.7025  2.0634  0.0257
 6643TIP3   OH241343   4.888   3.789   1.329  0.1168  0.3029  0.0797
 6643TIP3    H141344   4.829   3.781   1.404  0.6884  0.0456  0.5112
 6643TIP3    H241345   4.967   3.830   1.364  0.1659  0.7299 -0.5086
 6644TIP3   OH241346   0.249   5.975  13.640 -0.0567  0.1251  0.2771
 6644TIP3    H141347   0.331   5.983  13.590 -0.1908  1.0233  0.1790
 6644TIP3    H241348   0.183   5.955  13.574 -0.0874  0.4586  0.2025
 6645TIP3   OH241349   0.290   5.679  13.240 -0.6444  0.1085  0.0024
 6645TIP3    H141350   0.270   5.586  13.235  0.6231 -0.2002  0.3712
 6645TIP3    H241351   0.240   5.710  13.315 -0.3732 -0.4714  0.4286
 6646TIP3   OH241352   6.565   5.899   5.382  0.2538 -0.3849 -0.0154
 6646TIP3    H141353   6.550   5.909   5.475  0.7143  1.9430 -0.1326
 6646TIP3    H241354   6.660   5.910   5.372  0.1894 -0.4516 -0.7656
 6647TIP3   OH241355   6.297   5.794  16.761  0.1176  0.1840 -0.2371
 6647TIP3    H141356   6.276   5.818  16.851 -1.4511  0.7333 -0.7188
 6647TIP3    H241357   6.356   5.864  16.731 -1.9193  1.8695 -0.6172
 6648TIP3   OH241358   2.434   6.458  13.338  0.1373  0.0326  0.0693
 6648TIP3    H141359   2.381   6.383  13.309  0.4418 -0.6257  1.1662
 6648TIP3    H241360   2.510   6.457  13.281 -0.3060  0.0816 -0.5378
 6649TIP3   OH241361   5.971   3.134   1.681 -0.1240  0.5290  0.0301
 6649TIP3    H141362   6.052   3.104   1.721 -0.1485  1.0309  0.4654
 6649TIP3    H241363   5.910   3.060   1.693  0.2607  0.1641 -0.2788
 6650TIP3   OH241364   5.362   6.443   0.092 -0.0382 -0.7285 -0.4631
 6650TIP3    H141365   5.356   6.382   0.165  0.7786  0.7612  0.9059
 6650TIP3    H241366   5.386   6.526   0.132 -0.6602  0.4048 -2.3193
 6651TIP3   OH241367   3.779   2.002  16.267 -0.0257 -0.0989  0.0926
 6651TIP3    H141368   3.864   1.964  16.243  0.7101 -0.9242  3.5322
 6651TIP3    H241369   3.793   2.097  16.259  1.1379 -0.2268  0.3773
 6652TIP3   OH241370   2.697   3.308   4.588 -1.0674  0.8014  0.4492
 6652TIP3    H141371   2.786   3.342   4.584  0.1610 -2.0224  1.1963
 6652TIP3    H241372   2.648   3.374   4.637  0.4956  2.5801 -0.2709
 6653TIP3   OH241373   2.789   5.137  14.482  0.3674 -0.1228  0.1015
 6653TIP3    H141374   2.825   5.099  14.562 -1.7669 -1.9523  0.2910
 6653TIP3    H241375   2.791   5.232  14.498  2.7586 -0.2801  1.0285
 6654TIP3   OH241376   4.391   5.247   1.267  0.2331  0.6972 -0.1426
 6654TIP3    H141377   4.352   5.324   1.309 -0.3642  0.9513 -1.1309
 6654TIP3    H241378   4.317   5.187   1.254  0.4882  0.4497 -0.4427
 6655TIP3   OH241379   1.980   5.791   4.039  0.1212 -0.4265  0.0089
 6655TIP3    H141380   1.897   5.810   4.082 -0.1363 -0.8511 -0.2886
 6655TIP3    H241381   1.956   5.736   3.964  0.8433 -2.0945  0.9495
 6656TIP3   OH241382   1.025   4.110   1.555 -0.5433 -0.0623  0.4658
 6656TIP3    H141383   1.067   4.026   1.539 -2.0395 -0.9986  1.1794
 6656TIP3    H241384   0.950   4.111   1.496 -0.3527  0.9260  0.2301
 6657TIP3   OH241385   3.335   3.193   5.730 -0.1523 -0.1589  0.0854
 6657TIP3    H141386   3.399   3.184   5.660 -0.7468 -0.6326 -0.4078
 6657TIP3    H241387   3.323   3.287   5.741  2.5996  0.0960  2.0223
 6658TIP3   OH241388   6.034   3.461  14.369  0.1891 -0.2382 -0.7749
 6658TIP3    H141389   5.977   3.438  14.442 -1.1380  1.2514 -1.2856
 6658TIP3    H241390   6.115   3.413  14.386 -0.7129 -1.3405  0.7034
 6659TIP3   OH241391   5.126   0.896  12.774  0.0149 -0.0612  0.1079
 6659TIP3    H141392   5.142   0.969  12.834 -0.7626 -0.5292  0.9289
 6659TIP3    H241393   5.075   0.834  12.827  0.7751 -1.2541 -0.5224
 6660TIP3   OH241394   4.563   3.222  13.638 -0.4617 -0.0403 -0.0261
 6660TIP3    H141395   4.520   3.141  13.664  0.7390 -0.5114  0.5805
 6660TIP3    H241396   4.588   3.264  13.720 -1.0838  0.9680 -0.3350
 6661TIP3   OH241397   6.808   3.156  16.651 -0.4863  0.3252  0.2365
 6661TIP3    H141398   6.782   3.197  16.733  0.9143  0.7121  0.5111
 6661TIP3    H241399   6.735   3.098  16.628 -0.4953 -0.5279  2.2615
 6662TIP3   OH241400   0.319   6.203   2.557 -0.1016 -0.2194 -0.0084
 6662TIP3    H141401   0.376   6.163   2.492  1.1542 -1.0122  1.4993
 6662TIP3    H241402   0.367   6.193   2.640 -2.2497 -0.5141  1.2583
 6663TIP3   OH241403   4.768   4.135  11.064 -0.0201  0.2765 -0.6565
 6663TIP3    H141404   4.812   4.220  11.059  1.5218 -0.3420  1.2011
 6663TIP3    H241405   4.831   4.073  11.028 -0.1332 -0.3823  0.2497
 6664TIP3   OH241406   3.431   0.123   3.827  0.7938  0.6697 -0.4219
 6664TIP3    H141407   3.377   0.118   3.906  1.4446  0.6779  0.0405
 6664TIP3    H241408   3.395   0.057   3.768 -0.0234  1.0256 -0.3221
 6665TIP3   OH241409   1.567   5.508   2.171 -0.5049  0.4135  0.0810
 6665TIP3    H141410   1.492   5.451   2.185 -0.3596 -0.2714 -1.7127
 6665TIP3    H241411   1.615   5.468   2.099  0.7422  1.6847  0.1559
 6666TIP3   OH241412   6.084   2.367  10.020 -0.0135  0.2009 -0.6104
 6666TIP3    H141413   6.166   2.337  10.059 -0.7029 -1.3107 -0.2862
 6666TIP3    H241414   6.083   2.461  10.040  0.9082 -0.0288  0.7322
 6667TIP3   OH241415   5.901   4.573   2.836  0.3517 -0.5720 -0.1124
 6667TIP3    H141416   5.869   4.663   2.827 -2.0764 -1.2428  0.9906
 6667TIP3    H241417   5.860   4.527   2.763  1.2586 -0.8893 -0.4292
 6668TIP3   OH241418   6.085   6.078  16.048  0.1520  0.1359 -0.2213
 6668TIP3    H141419   6.130   6.152  16.008 -0.3510 -0.1475 -1.3313
 6668TIP3    H241420   6.114   6.002  15.999  1.5258 -0.6076  1.6046
 6669TIP3   OH241421   3.819   2.079   6.196  0.4242 -0.0144  0.7967
 6669TIP3    H141422   3.894   2.083   6.137 -0.5324 -0.7909 -0.5383
 6669TIP3    H241423   3.811   2.167   6.232  2.7703 -0.2323  2.0667
 6670TIP3   OH241424   0.805   5.742  10.806 -0.6176 -0.2331 -0.2565
 6670TIP3    H141425   0.819   5.766  10.714 -0.3234 -2.0137 -0.7120
 6670TIP3    H241426   0.783   5.649  10.804 -1.2475 -0.1584  1.4360
 6671TIP3   OH241427   5.012   3.260   5.279  0.2759 -0.4971 -0.0640
 6671TIP3    H141428   5.032   3.184   5.334 -0.0347 -0.6767 -0.2004
 6671TIP3    H241429   4.939   3.303   5.323  0.3833 -0.3332 -0.0431
 6672TIP3   OH241430   5.525   2.889  12.203 -0.2887  0.3371  0.0915
 6672TIP3    H141431   5.531   2.893  12.298  1.0437  0.8156 -0.0008
 6672TIP3    H241432   5.440   2.848  12.186 -0.8392  0.8522  1.4708
 6673TIP3   OH241433   0.648   4.900   4.603 -0.3537  0.6724 -0.1827
 6673TIP3    H141434   0.599   4.833   4.650  0.4097  0.5365  0.4392
 6673TIP3    H241435   0.599   4.981   4.616 -1.6756  0.1314 -1.5359
 6674TIP3   OH241436   0.576   6.506   1.599  0.0470 -0.7027 -0.2407
 6674TIP3    H141437   0.666   6.537   1.598 -0.1755 -0.0271 -0.0748
 6674TIP3    H241438   0.566   6.463   1.684 -0.0189 -0.0338  0.1041
 6675TIP3   OH241439   2.482   5.298   4.453 -0.2899  0.1556  0.0269
 6675TIP3    H141440   2.531   5.377   4.477 -0.3653 -0.3206  1.9551
 6675TIP3    H241441   2.397   5.331   4.425  0.5358  0.8885 -1.7193
 6676TIP3   OH241442   0.476   3.601  11.278  0.1101  0.7543 -0.1320
 6676TIP3    H141443   0.538   3.548  11.328  1.3731  0.3857 -1.9935
 6676TIP3    H241444   0.439   3.662  11.343  2.3170  0.8957  1.0915
 6677TIP3   OH241445   1.437   0.584   3.180 -0.0796  0.3578  0.0085
 6677TIP3    H141446   1.469   0.511   3.127 -0.7639 -1.4380  1.9460
 6677TIP3    H241447   1.512   0.609   3.234 -0.1260  0.4337  0.0377
 6678TIP3   OH241448   3.510   0.682  15.715 -0.0550  0.6030 -0.0051
 6678TIP3    H141449   3.453   0.724  15.780  1.2881  1.6165  0.5619
 6678TIP3    H241450   3.587   0.739  15.710 -0.3989  0.9354 -3.0149
 6679TIP3   OH241451   2.909   2.843  15.626 -0.0105  0.6483 -1.0988
 6679TIP3    H141452   2.960   2.772  15.665  1.5024  2.3609  0.1556
 6679TIP3    H241453   2.838   2.858  15.688 -0.0731  0.5483 -1.1452
 6680TIP3   OH241454   0.514   5.291  11.764 -0.0828  0.0097  0.0775
 6680TIP3    H141455   0.582   5.223  11.764 -0.1570 -0.0740  0.5866
 6680TIP3    H241456   0.551   5.361  11.818 -0.0457  0.3334 -0.3703
 6681TIP3   OH241457   5.818   4.452  14.410  0.2629 -0.0329  0.3034
 6681TIP3    H141458   5.859   4.365  14.403  1.7067  0.5687  0.9815
 6681TIP3    H241459   5.878   4.511  14.365 -1.4760  0.4534 -1.5902
 6682TIP3   OH241460   0.008   6.300  15.027 -0.0326  0.0993 -0.5324
 6682TIP3    H141461  -0.070   6.351  15.050  0.0548 -0.4408  1.0750
 6682TIP3    H241462   0.077   6.337  15.082  0.7126  0.1442 -1.4785
 6683TIP3   OH241463   6.313   0.086  13.525 -0.3029 -0.3720  0.0761
 6683TIP3    H141464   6.326   0.016  13.588 -2.1084 -0.3341  0.5311
 6683TIP3    H241465   6.247   0.052  13.464  0.1251  0.2621 -0.7722
 6684TIP3   OH241466   0.601   2.237  10.868  0.0801 -0.3054 -0.2633
 6684TIP3    H141467   0.671   2.274  10.815  1.6916 -2.3431  0.3138
 6684TIP3    H241468   0.534   2.211  10.805  0.5876  0.1143 -0.9927
 6685TIP3   OH241469   1.175   6.521   0.070 -0.5319  0.1552 -0.6370
 6685TIP3    H141470   1.111   6.471   0.018 -1.4101 -0.0639  0.5943
 6685TIP3    H241471   1.137   6.523   0.158  1.4607 -0.5102  0.2897
 6686TIP3   OH241472   6.060   2.127   1.875  0.1878  0.7670  0.1342
 6686TIP3    H141473   5.976   2.130   1.831 -0.3637 -0.4174  1.0343
 6686TIP3    H241474   6.049   2.184   1.952  0.7637  1.9054 -0.6033
 6687TIP3   OH241475   1.482   6.190  13.590  0.5873 -0.1251 -0.2305
 6687TIP3    H141476   1.473   6.114  13.648  0.3313 -0.5967 -0.8681
 6687TIP3    H241477   1.492   6.265  13.649 -0.4795 -0.4891  0.4347
 6688TIP3   OH241478   1.275   1.799  13.309 -0.4755 -0.6076  0.3068
 6688TIP3    H141479   1.340   1.840  13.252 -0.8339 -1.8987 -1.0931
 6688TIP3    H241480   1.302   1.708  13.316 -0.7825 -0.6145  1.7433
 6689TIP3   OH241481   1.646   4.886   2.931  0.1849  0.7008  0.4910
 6689TIP3    H141482   1.712   4.948   2.900 -0.2609  1.2365  0.5961
 6689TIP3    H241483   1.631   4.911   3.023  1.9016 -1.2244  1.3623
 6690TIP3   OH241484   1.670   2.640  15.053  0.1187  0.6715  0.0692
 6690TIP3    H141485   1.591   2.656  15.105  0.6827  1.1602  0.7989
 6690TIP3    H241486   1.678   2.718  14.998 -0.1386  0.4306 -0.3120
 6691TIP3   OH241487   6.440   4.783  10.679  0.5057  0.3194  0.1892
 6691TIP3    H141488   6.528   4.804  10.648  0.2669  0.4442 -0.4170
 6691TIP3    H241489   6.445   4.691  10.705  0.7017  0.2083 -0.2433
 6692TIP3   OH241490   5.675   2.829   0.344 -0.4069  0.9098  0.0966
 6692TIP3    H141491   5.644   2.800   0.258  0.0552 -0.5249  0.3896
 6692TIP3    H241492   5.597   2.864   0.387 -1.6369 -2.2081  0.6403
 6693TIP3   OH241493   4.367   0.093   4.262  0.0825 -0.0983 -0.5369
 6693TIP3    H141494   4.300   0.095   4.330 -1.4581 -1.3373 -1.9181
 6693TIP3    H241495   4.425   0.022   4.286  1.0981  1.1267  0.7895
 6694TIP3   OH241496   3.603   1.517   0.170 -0.6342  0.3949  0.3334
 6694TIP3    H141497   3.640   1.447   0.223 -2.6133 -0.5994  0.4547
 6694TIP3    H241498   3.590   1.478   0.084  0.2766  1.2862 -0.2314
 6695TIP3   OH241499   5.346   0.339  12.048 -0.3437 -0.2150  0.1366
 6695TIP3    H141500   5.417   0.396  12.077 -0.4381  0.3574 -0.6878
 6695TIP3    H241501   5.389   0.270  11.998 -0.3858  0.4943 -0.9248
 6696TIP3   OH241502   0.552   1.338  14.828 -0.4261  0.4739  0.1096
 6696TIP3    H141503   0.474   1.282  14.827 -2.3398  2.8414  1.9369
 6696TIP3    H241504   0.595   1.317  14.911 -0.0758  0.3972 -0.0890
 6697TIP3   OH241505   6.267   4.923  11.194  0.3959 -0.4980  0.1363
 6697TIP3    H141506   6.315   4.991  11.146 -1.1843  0.6017  0.0356
 6697TIP3    H241507   6.307   4.920  11.280  0.7912  0.2149 -0.0216
 6698TIP3   OH241508   3.855   6.362  12.748  0.3077  0.4760 -0.0819
 6698TIP3    H141509   3.764   6.343  12.727  0.0902  0.7681  0.5484
 6698TIP3    H241510   3.903   6.284  12.720 -0.4714 -0.7946  1.8453
 6699TIP3   OH241511   4.182   3.559  15.432 -0.4391  0.0038 -0.4094
 6699TIP3    H141512   4.144   3.556  15.344 -1.1961 -2.2463 -0.0824
 6699TIP3    H241513   4.274   3.538  15.418 -0.4726  0.0510 -0.7193
 6700TIP3   OH241514   1.183   2.530  11.546  0.1235 -0.0385  0.2245
 6700TIP3    H141515   1.132   2.514  11.626  0.1973  0.4957  0.3834
 6700TIP3    H241516   1.215   2.620  11.556 -1.1472  0.6055 -1.1136
 6701TIP3   OH241517   3.010   4.612  16.674 -0.2074 -0.0887 -0.6092
 6701TIP3    H141518   3.082   4.669  16.647 -0.2160  1.1370  1.6406
 6701TIP3    H241519   3.002   4.628  16.768 -1.7572 -2.1274 -0.3297
 6702TIP3   OH241520   3.422   5.880  16.036 -0.1324 -0.1945 -0.5011
 6702TIP3    H141521   3.448   5.806  16.091 -1.5986 -0.2789  0.1615
 6702TIP3    H241522   3.475   5.953  16.068 -0.0180 -0.5470  0.1476
 6703TIP3   OH241523   4.966   5.351  12.522 -0.2283 -0.2067  0.1297
 6703TIP3    H141524   5.036   5.351  12.587 -1.1705  0.3024  1.1822
 6703TIP3    H241525   5.007   5.380  12.441  1.0042 -1.0043  0.4473
 6704TIP3   OH241526   1.048   1.005  15.591 -0.8547  0.0709  0.0568
 6704TIP3    H141527   1.092   1.018  15.507 -0.6017 -1.1828 -0.0246
 6704TIP3    H241528   1.105   0.945  15.639 -0.4495  1.5723  1.5732
 6705TIP3   OH241529   5.497   4.806  11.751  0.0637 -0.0362 -0.2172
 6705TIP3    H141530   5.573   4.815  11.808  0.4283 -0.9205 -0.5289
 6705TIP3    H241531   5.422   4.812  11.809  0.3136  1.7618 -0.0222
 6706TIP3   OH241532   3.929   3.041  16.161 -0.4168 -0.1814 -0.2295
 6706TIP3    H141533   3.910   3.128  16.127  0.9055 -0.6457 -2.3572
 6706TIP3    H241534   3.876   2.982  16.108 -0.3693 -0.7606  0.3538
 6707TIP3   OH241535   5.235   1.989  13.167  0.1063  0.0418 -0.2839
 6707TIP3    H141536   5.140   1.998  13.171  0.0323 -0.9455  0.6778
 6707TIP3    H241537   5.251   1.895  13.158  0.9967 -0.0993  2.0295
 6708TIP3   OH241538   2.415   1.294   1.732 -0.1423  0.2148  0.4126
 6708TIP3    H141539   2.455   1.321   1.649 -0.2059 -1.1881 -0.1094
 6708TIP3    H241540   2.477   1.322   1.799  1.0386 -0.6263 -0.2813
 6709TIP3   OH241541   3.671   0.451  13.512 -0.0219  0.5016  0.1055
 6709TIP3    H141542   3.691   0.544  13.528 -0.8992  0.6504  0.3589
 6709TIP3    H241543   3.601   0.430  13.573 -1.5336  0.3412 -1.5878
 6710TIP3   OH241544   2.636   5.120  14.262  0.4950 -0.1811 -0.1520
 6710TIP3    H141545   2.567   5.186  14.277 -0.0017 -0.8839  0.7281
 6710TIP3    H241546   2.688   5.121  14.342 -0.9263 -2.4989  0.8895
 6711TIP3   OH241547   3.069   2.070  10.954 -0.6353  0.1744 -0.3914
 6711TIP3    H141548   3.002   2.096  11.017 -0.0989 -2.0950  1.2467
 6711TIP3    H241549   3.143   2.129  10.972 -0.7885  0.0992  0.5493
 6712TIP3   OH241550   4.320   5.447   0.042 -0.4903 -0.1951 -0.0157
 6712TIP3    H141551   4.363   5.383   0.098 -1.3771 -0.5104  0.3340
 6712TIP3    H241552   4.226   5.429   0.054 -0.7609  1.2986  0.2344
 6713TIP3   OH241553   2.209   5.447  10.242 -0.0980 -0.0237  0.0533
 6713TIP3    H141554   2.270   5.380  10.272 -0.3165 -0.9665 -1.5369
 6713TIP3    H241555   2.254   5.530  10.260  1.8220 -0.7023 -1.3849
 6714TIP3   OH241556   3.759   5.326   0.791 -0.0635 -0.0628  0.1929
 6714TIP3    H141557   3.842   5.353   0.752 -0.2738  0.4047  0.0579
 6714TIP3    H241558   3.782   5.294   0.878  0.4091 -1.0961 -0.2969
 6715TIP3   OH241559   6.031   5.836  10.786  0.2028  0.0832 -0.2699
 6715TIP3    H141560   6.052   5.917  10.832  2.6993 -0.9025  0.4844
 6715TIP3    H241561   5.984   5.865  10.708 -1.2192  2.0347  1.2182
 6716TIP3   OH241562   3.054   2.655  12.354  0.3295  0.0560 -0.0213
 6716TIP3    H141563   3.025   2.670  12.264 -0.3619  1.2409  0.3718
 6716TIP3    H241564   2.974   2.634  12.402  0.7673 -1.0942  0.2301
 6717TIP3   OH241565   4.152   3.522  13.501 -0.2839  0.0195 -0.1185
 6717TIP3    H141566   4.187   3.519  13.412 -0.8881 -0.3653 -0.3503
 6717TIP3    H241567   4.230   3.524  13.558  0.1041  0.7141 -0.6620
 6718TIP3   OH241568   4.457   5.473   4.827  0.3136 -0.1616 -0.1524
 6718TIP3    H141569   4.534   5.482   4.884 -1.0664 -1.2932  2.0619
 6718TIP3    H241570   4.417   5.390   4.854 -1.4419  0.1576 -1.5398
 6719TIP3   OH241571   3.271   4.025  15.164  0.1371  0.4716 -0.5106
 6719TIP3    H141572   3.204   3.975  15.209  1.1573  0.7206  1.3623
 6719TIP3    H241573   3.354   3.992  15.198  0.8589  3.1717  0.6335
 6720TIP3   OH241574   5.337   6.656  14.828 -0.5880 -0.6957  0.3250
 6720TIP3    H141575   5.367   6.566  14.818 -0.6104 -0.5090 -1.8112
 6720TIP3    H241576   5.269   6.651  14.895  0.1539 -2.0653  1.0295
 6721TIP3   OH241577   6.365   1.613   2.582  0.8815 -0.1781  0.1357
 6721TIP3    H141578   6.319   1.536   2.616  2.7548 -1.3124  0.2523
 6721TIP3    H241579   6.333   1.623   2.493  0.7646 -1.2334  0.0490
 6722TIP3   OH241580   4.318   3.552   5.119  0.6465  0.9200 -0.0671
 6722TIP3    H141581   4.322   3.508   5.204 -0.8280  2.8832  1.0833
 6722TIP3    H241582   4.307   3.645   5.140 -1.3204  1.2990 -2.3612
 6723TIP3   OH241583   4.618   2.428  15.385 -0.0812 -0.0053  0.2453
 6723TIP3    H141584   4.619   2.369  15.309  0.2480 -3.0456  2.4060
 6723TIP3    H241585   4.707   2.460  15.392  0.7208 -2.2360  1.0528
 6724TIP3   OH241586   2.599   6.285  13.708 -0.2305 -0.1634 -0.2935
 6724TIP3    H141587   2.677   6.330  13.740 -0.7901 -0.2894  1.3186
 6724TIP3    H241588   2.611   6.194  13.736 -0.3625 -0.4638 -1.1851
 6725TIP3   OH241589   4.379   2.892   2.964 -0.4003  0.1197  0.5334
 6725TIP3    H141590   4.447   2.956   2.986 -1.0528  1.1876 -0.4715
 6725TIP3    H241591   4.355   2.853   3.049 -0.3256  1.5533  1.2476
 6726TIP3   OH241592   4.134   0.606   0.329  0.5527  0.1036  0.0768
 6726TIP3    H141593   4.162   0.515   0.343 -1.5583 -0.5724  0.2062
 6726TIP3    H241594   4.123   0.641   0.418 -1.4752 -0.4804  0.0958
 6727TIP3   OH241595   1.089   6.747   1.272  0.6785  0.2088  0.1881
 6727TIP3    H141596   1.093   6.653   1.257  2.5884  0.2432  0.1945
 6727TIP3    H241597   1.104   6.786   1.186  3.9263  0.4313  0.7321
 6728TIP3   OH241598   4.484   1.707  12.855 -0.2158 -0.3669  0.7009
 6728TIP3    H141599   4.391   1.724  12.847 -0.1589 -0.6467 -0.8745
 6728TIP3    H241600   4.519   1.721  12.767  1.2431 -0.2036  1.2686
 6729TIP3   OH241601   2.574   3.628   5.283  0.0156  0.1767 -0.4489
 6729TIP3    H141602   2.572   3.533   5.269  2.8822 -0.1403  0.6084
 6729TIP3    H241603   2.593   3.664   5.196  0.9297 -0.4165 -0.5189
 6730TIP3   OH241604   0.476   2.632   3.277 -0.5014 -0.4658 -0.3299
 6730TIP3    H141605   0.459   2.623   3.370 -0.7050  0.2505 -0.2859
 6730TIP3    H241606   0.435   2.555   3.237  0.2472 -1.1710  0.2317
 6731TIP3   OH241607   2.444   1.645  14.288 -0.5975  0.1303  0.2875
 6731TIP3    H141608   2.474   1.702  14.217 -1.6859  1.4487  0.8515
 6731TIP3    H241609   2.434   1.704  14.363  0.6954 -1.2544  1.6259
 6732TIP3   OH241610   4.848   5.037  16.880 -0.2869  0.0104  0.0133
 6732TIP3    H141611   4.814   5.036  16.790 -1.2432  1.4400  0.3265
 6732TIP3    H241612   4.775   5.069  16.932  0.9387  1.3217  0.9997
 6733TIP3   OH241613   4.499   0.795   0.631 -0.2274 -0.1405 -0.1350
 6733TIP3    H141614   4.473   0.717   0.581 -1.1702 -0.7961  1.2895
 6733TIP3    H241615   4.448   0.866   0.593 -1.7941 -0.8383  0.5628
 6734TIP3   OH241616   3.571   0.310   1.543 -0.4788  0.3607 -0.2729
 6734TIP3    H141617   3.528   0.359   1.613  1.6958  0.3551  1.1748
 6734TIP3    H241618   3.556   0.218   1.565  1.1750  0.3260  0.9524
 6735TIP3   OH241619   3.806   1.685   4.162  0.0751 -0.1501 -0.4041
 6735TIP3    H141620   3.746   1.666   4.234 -0.2902  0.1717 -0.6220
 6735TIP3    H241621   3.826   1.778   4.172  0.3493 -0.1989 -0.4784
 6736TIP3   OH241622   1.127   1.538  11.808 -0.3758 -0.0577  0.2756
 6736TIP3    H141623   1.180   1.606  11.766 -2.1299  1.5099  0.4541
 6736TIP3    H241624   1.154   1.539  11.900  0.0117 -0.0027  0.1604
 6737TIP3   OH241625   0.607   1.516   9.740 -0.0876  0.3454 -0.0316
 6737TIP3    H141626   0.615   1.474   9.655 -0.4025  1.8966 -0.8648
 6737TIP3    H241627   0.697   1.543   9.762 -0.1168  0.6266 -0.2487
 6738TIP3   OH241628   0.864   3.588  14.636  0.6484 -0.3634 -0.1572
 6738TIP3    H141629   0.897   3.674  14.664  0.1610 -0.0178 -0.6357
 6738TIP3    H241630   0.769   3.597  14.637  0.6056 -0.6649 -0.9146
 6739TIP3   OH241631   3.096   0.534  15.596 -0.7947 -0.2533 -0.1858
 6739TIP3    H141632   3.172   0.585  15.570 -0.9834 -0.1317 -0.5051
 6739TIP3    H241633   3.043   0.595  15.647  0.3898 -0.9553  2.0246
 6740TIP3   OH241634   4.777   4.446   3.613  0.5498  0.5431  0.2363
 6740TIP3    H141635   4.780   4.534   3.576  0.2629 -0.4016 -2.1834
 6740TIP3    H241636   4.718   4.454   3.688  1.6994  2.6985  1.0009
 6741TIP3   OH241637   2.060   3.128   5.202  0.7846  0.2412  0.4470
 6741TIP3    H141638   1.992   3.118   5.135 -0.7509  1.2768  1.7714
 6741TIP3    H241639   2.138   3.090   5.163  0.6349  2.9604 -2.9856
 6742TIP3   OH241640   5.438   2.963   1.988 -0.4042 -0.1939 -0.2343
 6742TIP3    H141641   5.505   2.930   2.048  1.1230 -0.6950 -2.1052
 6742TIP3    H241642   5.488   2.996   1.913 -2.1110  2.2526 -0.4255
 6743TIP3   OH241643   1.049   6.694  14.648  0.0479  0.5167 -0.1117
 6743TIP3    H141644   1.029   6.787  14.640  0.5014  0.6438  0.2304
 6743TIP3    H241645   1.144   6.689  14.650  0.0398  0.0099 -0.5085
 6744TIP3   OH241646   2.141   1.788  15.583 -0.5969 -0.5529  0.4650
 6744TIP3    H141647   2.131   1.874  15.542 -1.0031 -1.0824 -0.5738
 6744TIP3    H241648   2.053   1.750  15.581 -0.2047 -1.4629 -0.1663
 6745TIP3   OH241649   4.749   4.473  15.838  0.3496 -0.1663  0.6374
 6745TIP3    H141650   4.681   4.419  15.798  2.4443 -1.6615 -1.1940
 6745TIP3    H241651   4.743   4.557  15.792  0.8152 -0.8762 -0.7818
 6746TIP3   OH241652   4.832   1.822  16.867 -0.8947  0.4654  0.0277
 6746TIP3    H141653   4.778   1.749  16.897 -0.3360  0.4712  1.1293
 6746TIP3    H241654   4.775   1.872  16.809 -0.5734 -2.1802 -2.8738
 6747TIP3   OH241655   3.895   5.448   5.379  0.0511  0.1006 -0.0587
 6747TIP3    H141656   3.944   5.379   5.425  0.3394  0.3719  0.0445
 6747TIP3    H241657   3.831   5.478   5.443  0.7808  0.8248  0.3499
 6748TIP3   OH241658   5.240   3.186   0.116 -0.1064  0.2239 -0.5794
 6748TIP3    H141659   5.236   3.242   0.039  1.7701 -0.0668 -0.9270
 6748TIP3    H241660   5.239   3.097   0.082  0.1991  0.0874 -0.2349
 6749TIP3   OH241661   0.855   0.100   4.962 -0.4772  0.1202 -0.6052
 6749TIP3    H141662   0.940   0.125   5.000 -0.5585  0.2311 -0.4951
 6749TIP3    H241663   0.802   0.072   5.037 -1.1621  1.8203 -0.4030
 6750TIP3   OH241664   0.070   2.038   2.315 -0.0991 -0.3573 -0.0792
 6750TIP3    H141665   0.071   1.986   2.395 -1.5346  0.3825  0.4575
 6750TIP3    H241666  -0.012   2.016   2.272 -0.4967  1.0572 -0.0972
 6751TIP3   OH241667   4.407   3.602   6.005 -0.3261 -0.4702  0.0597
 6751TIP3    H141668   4.322   3.584   6.045 -0.5978 -0.4453 -0.5046
 6751TIP3    H241669   4.470   3.563   6.066 -0.6705  0.4315  1.0227
 6752TIP3   OH241670   3.844   0.452   1.717 -0.3633  0.5029  0.0046
 6752TIP3    H141671   3.762   0.501   1.723 -0.0394  0.9694  0.8070
 6752TIP3    H241672   3.888   0.490   1.641 -0.5467  0.7991  0.0421
 6753TIP3   OH241673   2.346   3.810   0.734 -0.6153  0.6192 -0.0009
 6753TIP3    H141674   2.360   3.899   0.765  0.1372  0.6030 -0.2935
 6753TIP3    H241675   2.381   3.755   0.804  0.3823  0.5755 -0.5253
 6754TIP3   OH241676   2.936   3.185   3.874  0.6248  0.7461  0.4933
 6754TIP3    H141677   2.939   3.259   3.812  1.5568  0.4057  0.1025
 6754TIP3    H241678   2.965   3.223   3.957 -1.2090  1.3457  0.9145
 6755TIP3   OH241679   3.626   2.612  15.145 -0.1407  0.0318 -0.1670
 6755TIP3    H141680   3.531   2.614  15.133 -0.2519 -1.5642  0.2643
 6755TIP3    H241681   3.646   2.694  15.189 -1.5809 -0.4209  1.4497
 6756TIP3   OH241682   3.283   5.407  11.074  0.2660  0.2446 -0.2185
 6756TIP3    H141683   3.302   5.470  11.142  1.6678 -0.6681  0.2707
 6756TIP3    H241684   3.204   5.441  11.030 -0.1275  1.2968  1.2578
 6757TIP3   OH241685   3.998   3.051  11.177  0.5261  0.4757 -0.2497
 6757TIP3    H141686   4.040   2.982  11.125  0.0612  1.1042 -1.4896
 6757TIP3    H241687   3.990   3.125  11.118  0.6284  1.4782  0.9425
 6758TIP3   OH241688   0.214   0.069   3.650  0.3534  0.6150  0.2578
 6758TIP3    H141689   0.165   0.102   3.575 -0.0147  1.7320  0.9646
 6758TIP3    H241690   0.203  -0.026   3.646  0.4325  0.6395 -1.1515
 6759TIP3   OH241691   4.614   2.704   6.066  0.1634  0.3977 -0.3235
 6759TIP3    H141692   4.673   2.703   5.991 -0.1913 -1.4006 -0.6287
 6759TIP3    H241693   4.653   2.766   6.127  0.9388  1.2083 -1.6119
 6760TIP3   OH241694   2.616   3.107  14.272 -0.5875  0.5848  0.0097
 6760TIP3    H141695   2.689   3.153  14.315 -1.2103  0.8685  0.7931
 6760TIP3    H241696   2.572   3.174  14.220  0.5361  0.1106 -1.6349
 6761TIP3   OH241697   2.637   2.468  15.985  0.3216  0.4251  0.5821
 6761TIP3    H141698   2.543   2.458  15.968  0.3042  0.1348  0.8449
 6761TIP3    H241699   2.655   2.408  16.057  0.6750  0.6116  0.6514
 6762TIP3   OH241700   3.758   3.404  14.343 -0.4263  0.0823  0.3993
 6762TIP3    H141701   3.808   3.441  14.271  0.3496  1.3287  1.5501
 6762TIP3    H241702   3.823   3.382  14.410 -1.1860 -0.4858  0.9846
 6763TIP3   OH241703   1.653   0.372   1.553  0.0048  0.4790 -0.3974
 6763TIP3    H141704   1.620   0.424   1.479  1.0670  1.9031  0.0818
 6763TIP3    H241705   1.688   0.293   1.514 -2.2365 -0.2493 -1.1008
 6764TIP3   OH241706   0.050   1.926  13.526  0.2139 -0.3026 -0.0208
 6764TIP3    H141707   0.085   1.972  13.450  2.4631 -1.4121  0.2711
 6764TIP3    H241708   0.103   1.956  13.599 -0.2419 -1.1490  0.6773
 6765TIP3   OH241709   4.888   6.160  11.650 -0.1363 -0.7631  0.0863
 6765TIP3    H141710   4.822   6.202  11.705  0.7630 -0.9452  1.3481
 6765TIP3    H241711   4.920   6.087  11.703 -0.2036 -1.7933 -1.2467
 6766TIP3   OH241712   0.590   6.824  14.098 -0.5177  0.2915 -0.6519
 6766TIP3    H141713   0.510   6.870  14.073  0.3461  2.3566  0.1918
 6766TIP3    H241714   0.651   6.842  14.026  0.4943  2.3410  0.6370
 6767TIP3   OH241715   6.586   2.953  16.658  0.7373 -0.5161  0.0433
 6767TIP3    H141716   6.502   2.951  16.704  1.5164  0.0828  1.5651
 6767TIP3    H241717   6.567   2.916  16.572 -1.2938  0.4958  0.0033
 6768TIP3   OH241718   4.325   4.254   1.020 -0.1445  0.0284 -0.0190
 6768TIP3    H141719   4.242   4.300   1.030  0.0416  0.6665 -1.2327
 6768TIP3    H241720   4.392   4.319   1.038  0.1243  0.3656 -1.9769
 6769TIP3   OH241721   3.669   6.824  10.779  0.2559  0.3068  0.0439
 6769TIP3    H141722   3.761   6.831  10.802 -0.0518 -0.4830  1.6840
 6769TIP3    H241723   3.638   6.915  10.774  1.2089  0.5897 -1.0131
 6770TIP3   OH241724   4.816   3.613   0.859 -0.4511 -0.4504  0.0479
 6770TIP3    H141725   4.732   3.658   0.852 -0.2518 -0.0235  0.3932
 6770TIP3    H241726   4.855   3.647   0.939  0.5769  0.2416 -0.7173
 6771TIP3   OH241727   2.136   5.906   5.396  0.2988  0.0074 -0.0179
 6771TIP3    H141728   2.193   5.963   5.344  1.0144  0.1335  0.8768
 6771TIP3    H241729   2.184   5.893   5.478 -0.9127  0.0260  0.7136
 6772TIP3   OH241730   4.087   6.084   0.670  0.6745 -0.1386  0.3268
 6772TIP3    H141731   4.124   6.008   0.714 -0.3709 -0.4834  0.6443
 6772TIP3    H241732   3.999   6.093   0.707  1.3067  2.1854  1.5167
 6773TIP3   OH241733   0.091   5.071  13.072  0.1698  0.3903 -0.0966
 6773TIP3    H141734   0.167   5.094  13.018 -0.5724 -1.1548 -1.9107
 6773TIP3    H241735   0.019   5.122  13.035 -0.5617 -1.4349 -1.3144
 6774TIP3   OH241736   0.194   6.499   5.129 -0.0338 -0.1775 -0.1790
 6774TIP3    H141737   0.177   6.461   5.042  2.4736 -1.7707 -0.0714
 6774TIP3    H241738   0.209   6.423   5.185  0.3863  0.8943  1.2109
 6775TIP3   OH241739   4.959   2.705   1.677 -0.1124 -0.1905 -0.2515
 6775TIP3    H141740   5.028   2.769   1.690 -0.3610  0.4015 -1.6747
 6775TIP3    H241741   4.882   2.743   1.719 -0.1597  0.2769 -0.7524
 6776TIP3   OH241742   2.228   6.697  14.620 -0.5466  0.3330 -0.3152
 6776TIP3    H141743   2.271   6.732  14.542  2.0491 -0.4545  0.6382
 6776TIP3    H241744   2.206   6.607  14.596  2.8174 -0.8835  0.5742
 6777TIP3   OH241745   0.787   2.855  15.010 -0.7327 -0.2502 -0.2038
 6777TIP3    H141746   0.748   2.920  14.952 -0.9431 -0.1803  0.0153
 6777TIP3    H241747   0.768   2.771  14.968 -0.4242 -0.1673 -0.5061
 6778TIP3   OH241748   2.300   6.425  14.631  0.0966  0.4596  0.4467
 6778TIP3    H141749   2.212   6.387  14.630  1.3046 -2.6420 -0.3217
 6778TIP3    H241750   2.338   6.393  14.712  0.5367  1.8414  0.8055
 6779TIP3   OH241751   6.618   6.494   2.813 -0.3531  0.1888 -0.2478
 6779TIP3    H141752   6.630   6.563   2.748 -0.5115  1.7115  1.2648
 6779TIP3    H241753   6.699   6.494   2.864 -1.1210  0.6534  1.0140
 6780TIP3   OH241754   2.305   1.556  11.387 -0.1397  0.0456 -0.3196
 6780TIP3    H141755   2.272   1.551  11.297 -1.6830 -0.0617  0.2233
 6780TIP3    H241756   2.312   1.465  11.415  2.3748 -0.0556 -0.9700
 6781TIP3   OH241757   2.102   3.803   4.105 -0.0474 -0.5804 -0.1102
 6781TIP3    H141758   2.018   3.801   4.059 -0.1827  0.9858  0.0127
 6781TIP3    H241759   2.167   3.810   4.035 -0.1185 -0.3169 -0.1520
 6782TIP3   OH241760   5.348   2.797   5.153  0.0199 -0.1373 -0.2466
 6782TIP3    H141761   5.348   2.766   5.063  0.5549 -2.7440  0.5573
 6782TIP3    H241762   5.428   2.849   5.161 -0.2642  0.5165 -1.3416
 6783TIP3   OH241763   0.152   3.978   5.193  0.0489 -0.9572  0.4361
 6783TIP3    H141764   0.170   4.020   5.277 -0.2088 -1.5496  0.7908
 6783TIP3    H241765   0.111   3.894   5.216 -1.5286 -0.4265 -0.2970
 6784TIP3   OH241766   4.193   3.998   1.664 -0.5115 -0.0963  0.0215
 6784TIP3    H141767   4.142   3.919   1.680 -1.4117  0.4146 -0.2577
 6784TIP3    H241768   4.129   4.069   1.669 -0.0005  0.4780 -1.3093
 6785TIP3   OH241769   0.325   1.745  14.702 -0.6986 -0.5475 -0.2336
 6785TIP3    H141770   0.351   1.699  14.782 -0.5538  0.6839  0.4520
 6785TIP3    H241771   0.372   1.699  14.633 -0.6779 -1.5217  0.3984
 6786TIP3   OH241772   1.870   5.013  16.321 -0.1941  0.1892 -0.0923
 6786TIP3    H141773   1.853   5.015  16.226 -0.2036 -1.5714 -0.1629
 6786TIP3    H241774   1.785   5.031  16.361 -0.5448 -0.6152 -0.4445
 6787TIP3   OH241775   0.607   4.695  14.724  0.5642 -0.4764  0.4441
 6787TIP3    H141776   0.580   4.750  14.650  0.9070 -0.8595  0.0296
 6787TIP3    H241777   0.664   4.629  14.686  0.7776 -0.6595  1.0604
 6788TIP3   OH241778   6.658   2.851   2.060 -0.4328 -0.2363 -0.5904
 6788TIP3    H141779   6.634   2.915   2.127 -2.4824  0.0061 -1.4655
 6788TIP3    H241780   6.642   2.766   2.102 -0.7614 -0.1042 -0.4403
 6789TIP3   OH241781   3.036   6.819   1.681  0.1827  0.5598 -0.6795
 6789TIP3    H141782   3.046   6.732   1.643 -0.1596  1.4608 -3.0053
 6789TIP3    H241783   2.972   6.863   1.625 -0.2036  2.0690  0.8729
 6790TIP3   OH241784   2.990   4.531  13.453 -0.6581  0.0411 -0.1722
 6790TIP3    H141785   2.988   4.601  13.388  1.1049  0.8792  0.6155
 6790TIP3    H241786   3.020   4.455  13.404  1.7957  0.9357 -0.1762
 6791TIP3   OH241787   2.198   4.581  13.246  0.0374  0.0284 -0.7211
 6791TIP3    H141788   2.252   4.598  13.169 -0.7699 -1.2449 -1.6057
 6791TIP3    H241789   2.259   4.541  13.309  1.1479  2.7629  0.1072
 6792TIP3   OH241790   3.818   6.359   0.224 -0.2507  0.0004 -0.5554
 6792TIP3    H141791   3.754   6.335   0.158 -2.3305  0.2334  1.2635
 6792TIP3    H241792   3.899   6.315   0.197 -1.0797 -0.1056 -3.0556
 6793TIP3   OH241793   6.725   6.387   1.163 -0.1772 -0.4033  0.1245
 6793TIP3    H141794   6.685   6.425   1.241 -4.1114  0.1887 -1.8929
 6793TIP3    H241795   6.737   6.460   1.103 -0.3008 -1.2479 -0.9716
 6794TIP3   OH241796   3.318   3.620  11.020 -0.7572  0.0389 -0.3548
 6794TIP3    H141797   3.235   3.572  11.020 -0.5998 -0.2500  0.3605
 6794TIP3    H241798   3.371   3.577  10.952  1.1721 -4.0819  3.1728
 6795TIP3   OH241799   1.268   2.205   1.487  0.2109 -0.1595 -0.3753
 6795TIP3    H141800   1.239   2.146   1.556 -0.1051 -0.1219 -0.4770
 6795TIP3    H241801   1.254   2.157   1.405 -2.0051  0.8059 -0.6282
 6796TIP3   OH241802   3.887   2.891   2.453  0.1305  0.2357  0.0976
 6796TIP3    H141803   3.947   2.853   2.389  0.8945  0.8739  0.4137
 6796TIP3    H241804   3.943   2.945   2.509 -0.4123 -0.7743  1.6869
 6797TIP3   OH241805   4.914   5.636   0.615  0.3110  0.1373 -0.1424
 6797TIP3    H141806   4.992   5.602   0.571 -0.4974 -2.8809  0.5397
 6797TIP3    H241807   4.852   5.653   0.544  0.1837 -1.4406 -0.4374
 6798TIP3   OH241808   1.250   1.795  11.639  0.1945 -0.6162  0.1907
 6798TIP3    H141809   1.162   1.830  11.652 -0.1892 -1.9844  1.5971
 6798TIP3    H241810   1.296   1.863  11.591 -0.9039  1.2215  1.5992
 6799TIP3   OH241811   1.035   5.131   4.234 -0.3815  0.0817 -0.2624
 6799TIP3    H141812   0.942   5.147   4.250 -0.7650 -1.4100 -0.8381
 6799TIP3    H241813   1.047   5.150   4.141 -0.3909 -0.8860 -0.4708
 6800TIP3   OH241814   4.615   5.741  11.193 -0.1510  0.1616  0.4575
 6800TIP3    H141815   4.594   5.686  11.118  2.1231 -0.1561 -0.0286
 6800TIP3    H241816   4.695   5.787  11.168 -0.8995  2.2466  1.6134
 6801TIP3   OH241817   3.799   1.197  16.567  0.1221 -0.3463 -0.4605
 6801TIP3    H141818   3.830   1.168  16.482  0.1728 -0.1025 -0.5246
 6801TIP3    H241819   3.862   1.161  16.629 -0.6300 -1.6378 -0.4036
 6802TIP3   OH241820   3.534   1.342   1.165  0.6127 -0.0068  0.6295
 6802TIP3    H141821   3.614   1.290   1.173  0.1217 -0.8674  0.0128
 6802TIP3    H241822   3.464   1.281   1.186  0.1025  0.7462  1.1661
 6803TIP3   OH241823   0.559   2.925  16.147 -0.3570 -0.1168 -0.7399
 6803TIP3    H141824   0.554   2.927  16.243  0.0966 -0.3627 -0.7109
 6803TIP3    H241825   0.468   2.912  16.119 -0.4427 -0.4216 -0.3304
 6804TIP3   OH241826   3.836   5.834  10.950  0.6866  0.0795  0.3273
 6804TIP3    H141827   3.886   5.795  11.021  0.2597 -1.8291 -0.3831
 6804TIP3    H241828   3.746   5.808  10.966  0.1912  1.6839  0.3949
 6805TIP3   OH241829   3.403   4.923   4.576  0.1289 -0.4796 -0.2787
 6805TIP3    H141830   3.364   4.837   4.559  1.1324 -0.8039 -1.0673
 6805TIP3    H241831   3.491   4.903   4.607  0.2582  0.2560 -0.1583
 6806TIP3   OH241832   2.461   0.211   0.846 -0.0943  0.2121  0.3213
 6806TIP3    H141833   2.366   0.199   0.845 -0.1700  0.6649  1.2931
 6806TIP3    H241834   2.473   0.298   0.884  0.7261  0.0002  0.5496
 6807TIP3   OH241835   3.677   3.685  14.093 -0.1403 -0.3224  0.4616
 6807TIP3    H141836   3.726   3.645  14.022  0.2761  0.9929 -0.0242
 6807TIP3    H241837   3.674   3.779  14.071  0.2292  0.1653  2.2930
 6808TIP3   OH241838   2.558   3.562  13.941  0.1803 -0.1466 -0.1501
 6808TIP3    H141839   2.583   3.641  13.988 -0.5533  0.1070 -0.1583
 6808TIP3    H241840   2.631   3.502  13.952  0.1677  0.0350  1.0182
 6809TIP3   OH241841   2.314   5.753  10.082  0.1284 -0.3135 -0.3816
 6809TIP3    H141842   2.405   5.738  10.055  0.5968 -0.3909  1.1580
 6809TIP3    H241843   2.311   5.724  10.173 -0.7713  2.1077  0.4431
 6810TIP3   OH241844   1.492   2.054   2.973  0.2499  0.0773  0.0539
 6810TIP3    H141845   1.445   2.131   3.004 -0.5190  0.1128 -1.1282
 6810TIP3    H241846   1.565   2.090   2.921 -0.1447  0.0232 -0.5486
 6811TIP3   OH241847   5.002   4.463   5.455 -0.5833 -0.4485 -0.4075
 6811TIP3    H141848   4.970   4.533   5.399 -1.3072 -0.2798  0.2152
 6811TIP3    H241849   4.960   4.477   5.539  2.9350  1.2552  1.2691
 6812TIP3   OH241850   4.992   5.973  15.176  0.4225  0.2595 -0.3050
 6812TIP3    H141851   5.010   5.997  15.085 -1.4461 -0.3202 -0.8769
 6812TIP3    H241852   4.923   6.033  15.204  0.9085  0.3640  0.6925
 6813TIP3   OH241853   5.659   3.591  16.942 -0.5527 -0.1902  0.4956
 6813TIP3    H141854   5.663   3.686  16.946  1.5763 -0.2498  0.9409
 6813TIP3    H241855   5.593   3.572  16.875 -2.1068  1.5374  1.4435
 6814TIP3   OH241856   3.076   4.603  12.253 -0.0401  0.1750 -0.2568
 6814TIP3    H141857   3.127   4.664  12.199  0.9109 -0.7383 -0.4370
 6814TIP3    H241858   3.134   4.582  12.327 -1.1488  1.0542  0.9055
 6815TIP3   OH241859   6.562   1.654  15.361  0.0956  0.2421  0.2139
 6815TIP3    H141860   6.467   1.646  15.367  0.0658  0.8512  0.6734
 6815TIP3    H241861   6.577   1.719  15.293  0.2659 -1.6885 -1.6867
 6816TIP3   OH241862   5.075   2.909  13.551  0.7799  0.4109 -0.2440
 6816TIP3    H141863   5.000   2.932  13.606 -0.8119 -0.6477 -1.8347
 6816TIP3    H241864   5.059   2.955  13.468  1.1705 -0.8725 -1.0666
 6817TIP3   OH241865   3.828   0.820   4.065  0.2006  0.4301  0.7464
 6817TIP3    H141866   3.916   0.790   4.084  0.2822  0.5010  0.4878
 6817TIP3    H241867   3.784   0.824   4.150  0.6489  1.0436  0.9485
 6818TIP3   OH241868   6.423   3.712   3.595  0.0592 -0.1005  0.2073
 6818TIP3    H141869   6.364   3.787   3.603 -1.0540 -0.8402 -0.8331
 6818TIP3    H241870   6.370   3.636   3.617  0.1529 -0.9345 -2.2008
 6819TIP3   OH241871   4.899   1.974   4.142  0.2328 -0.1082 -0.1983
 6819TIP3    H141872   4.857   1.893   4.112 -0.0876  0.0373 -0.1460
 6819TIP3    H241873   4.886   2.036   4.071  0.0133  0.0538 -0.0172
 6820TIP3   OH241874   0.358   2.304   0.106  0.0880  0.4690 -0.3899
 6820TIP3    H141875   0.427   2.250   0.144  0.3213  1.3681  0.5206
 6820TIP3    H241876   0.395   2.339   0.025 -0.5599 -1.8092 -1.7672
 6821TIP3   OH241877   2.207   2.550  16.509  0.4538 -0.0213  0.0852
 6821TIP3    H141878   2.164   2.635  16.517  1.8711  0.5782  2.0827
 6821TIP3    H241879   2.136   2.489  16.491 -0.8810  1.3080  0.6207
 6822TIP3   OH241880   4.932   6.384  10.996  0.6663  0.3626  0.1509
 6822TIP3    H141881   4.922   6.455  11.059  0.3958  0.1187  0.3833
 6822TIP3    H241882   4.920   6.426  10.911 -2.3941  0.1289  0.3803
 6823TIP3   OH241883   0.087   3.081   1.869 -0.1195 -0.3216 -0.0163
 6823TIP3    H141884   0.027   3.148   1.902  0.5475 -0.1513  0.8709
 6823TIP3    H241885   0.163   3.087   1.925  0.8391 -0.3899 -1.2601
 6824TIP3   OH241886   1.162   2.783  12.797 -0.1229 -0.2359  0.4189
 6824TIP3    H141887   1.130   2.706  12.844  0.9720 -1.5394 -0.8506
 6824TIP3    H241888   1.250   2.758  12.768 -0.3584  0.8545 -1.4069
 6825TIP3   OH241889   1.121   3.359   3.652 -0.7091  0.2130  0.0096
 6825TIP3    H141890   1.124   3.269   3.621 -0.9163 -0.1493  0.9819
 6825TIP3    H241891   1.054   3.401   3.599  1.2112  0.5494 -2.2800
 6826TIP3   OH241892   4.623   0.046   6.558 -0.3590 -0.3823 -0.2955
 6826TIP3    H141893   4.586   0.044   6.647 -1.1187  0.0610 -0.5942
 6826TIP3    H241894   4.598   0.132   6.524 -0.1590 -0.5968 -0.9867
 6827TIP3   OH241895   5.490   0.812  10.966 -0.1589 -0.7294 -0.4325
 6827TIP3    H141896   5.494   0.894  11.015  1.1958 -1.1123  0.1272
 6827TIP3    H241897   5.580   0.780  10.964 -0.5208 -1.7647 -1.4163
 6828TIP3   OH241898   1.464   3.016   4.419  0.5046  0.4763 -0.5045
 6828TIP3    H141899   1.473   3.109   4.399  1.7876  0.6371  0.6361
 6828TIP3    H241900   1.370   3.001   4.425  0.1746  1.1719 -2.9222
 6829TIP3   OH241901   2.853   1.635   6.083 -0.7674 -0.5720  0.3047
 6829TIP3    H141902   2.859   1.555   6.030 -0.9987 -1.6643  1.8488
 6829TIP3    H241903   2.943   1.651   6.111 -0.5344  0.3876 -0.8942
 6830TIP3   OH241904   2.263   1.161  11.983 -0.1218  0.4832 -0.3236
 6830TIP3    H141905   2.346   1.201  11.957 -0.3121  2.0774  1.3142
 6830TIP3    H241906   2.238   1.208  12.062 -2.0006 -0.7898 -0.1048
 6831TIP3   OH241907   3.056   0.611   5.307 -0.3656  0.1049  0.5733
 6831TIP3    H141908   2.967   0.640   5.323  0.1300  2.5491 -0.6300
 6831TIP3    H241909   3.084   0.660   5.229  0.7388 -3.4879 -1.5132
 6832TIP3   OH241910   5.418   2.857   0.793  0.3925 -0.2350  1.0551
 6832TIP3    H141911   5.490   2.890   0.739 -2.6566  1.0168 -2.6992
 6832TIP3    H241912   5.391   2.933   0.845 -0.6846  0.5667 -0.5923
 6833TIP3   OH241913   1.484   2.718  15.266  0.1617  0.0316 -0.3288
 6833TIP3    H141914   1.435   2.655  15.318  1.0435 -0.2467  0.1764
 6833TIP3    H241915   1.417   2.761  15.212 -0.5295 -0.8791 -0.2212
 6834TIP3   OH241916   3.136   3.571   1.726 -0.3863 -0.2359 -0.3066
 6834TIP3    H141917   3.220   3.597   1.688 -0.0583 -1.3085 -0.3519
 6834TIP3    H241918   3.080   3.555   1.650 -0.3672 -0.3649 -0.2928
 6835TIP3   OH241919   0.826   0.795  14.733 -0.1150 -0.1972  0.0996
 6835TIP3    H141920   0.898   0.826  14.788  0.1397 -1.2035  0.3489
 6835TIP3    H241921   0.802   0.871  14.680  0.5092  0.4137  0.6695
 6836TIP3   OH241922   0.533   3.132   3.868 -0.4634 -0.0187  0.4208
 6836TIP3    H141923   0.579   3.189   3.929  0.2030 -1.4262  1.2689
 6836TIP3    H241924   0.495   3.192   3.803 -0.5135  1.4426  1.7492
 6837TIP3   OH241925   6.812   0.621   2.158  0.0503  0.3953  0.3399
 6837TIP3    H141926   6.718   0.616   2.175 -0.1940  1.3663 -0.5946
 6837TIP3    H241927   6.819   0.626   2.063  1.2323 -2.5409  0.1577
 6838TIP3   OH241928   0.873   1.490  16.313 -0.3281  0.2278 -0.3235
 6838TIP3    H141929   0.821   1.560  16.274 -0.6349  0.5861  0.6972
 6838TIP3    H241930   0.909   1.528  16.393  0.2504 -0.4971 -0.2229
 6839TIP3   OH241931   3.424   0.723  11.655  0.2270 -0.3388 -0.3008
 6839TIP3    H141932   3.339   0.685  11.677  0.7030 -1.4794 -0.3562
 6839TIP3    H241933   3.477   0.648  11.629  1.3098  0.3437 -0.0877
 6840TIP3   OH241934   6.076   1.828  10.896  0.5257 -0.0605 -0.4943
 6840TIP3    H141935   6.057   1.784  10.813  1.8156 -0.3091 -0.6743
 6840TIP3    H241936   6.061   1.761  10.963 -0.0978  0.0188 -0.5416
 6841TIP3   OH241937   2.647   2.265  13.478 -0.3579 -0.0103 -0.0006
 6841TIP3    H141938   2.626   2.256  13.385 -0.2644 -0.5615  0.0269
 6841TIP3    H241939   2.609   2.349  13.503 -0.7910 -0.0729 -0.4279
 6842TIP3   OH241940   6.227   3.243   2.289 -0.3445  0.3144 -0.2826
 6842TIP3    H141941   6.291   3.314   2.286  0.6057 -0.5381 -1.5068
 6842TIP3    H241942   6.142   3.286   2.281  0.0187  1.4885  1.6890
 6843TIP3   OH241943   6.802   4.926  14.008 -0.2352  0.4910 -0.3786
 6843TIP3    H141944   6.838   4.874  13.937  0.0596 -1.4563  1.1222
 6843TIP3    H241945   6.878   4.956  14.058 -0.5036  0.4994  0.0288
 6844TIP3   OH241946   5.203   1.121  14.637  0.2465 -0.0813 -0.4441
 6844TIP3    H141947   5.249   1.184  14.581  0.5529  0.3185  0.2405
 6844TIP3    H241948   5.112   1.150  14.636  0.6286  1.3485  1.0916
 6845TIP3   OH241949   5.663   1.252   1.405  0.0690  0.1473 -0.0474
 6845TIP3    H141950   5.617   1.185   1.456  1.4184  0.0349  1.0658
 6845TIP3    H241951   5.639   1.233   1.314 -0.8207 -0.8697  0.3766
 6846TIP3   OH241952   3.554   6.554  15.774 -0.1774 -0.1445 -0.1985
 6846TIP3    H141953   3.625   6.491  15.783 -0.7600 -0.8258 -0.3138
 6846TIP3    H241954   3.556   6.579  15.682  0.3854  0.4202 -0.0461
 6847TIP3   OH241955   2.867   4.936  11.540 -0.8738 -0.3451 -0.6498
 6847TIP3    H141956   2.929   5.005  11.564 -0.4086 -1.0863  0.3035
 6847TIP3    H241957   2.790   4.984  11.508 -0.5271  0.6182 -0.0881
 6848TIP3   OH241958   0.460   2.170  12.685  0.4044 -0.0898 -0.7755
 6848TIP3    H141959   0.427   2.191  12.773 -0.4993 -0.8561 -0.9131
 6848TIP3    H241960   0.441   2.249  12.633 -0.6402 -0.2569 -0.6808
 6849TIP3   OH241961   0.661   5.445   2.790  0.1340 -0.1249  0.1736
 6849TIP3    H141962   0.609   5.437   2.711  0.7559  1.3088 -0.4154
 6849TIP3    H241963   0.598   5.438   2.862 -1.0731  2.5095 -0.5238
 6850TIP3   OH241964   0.938   2.062   1.300  0.5012 -0.0285 -0.0483
 6850TIP3    H141965   0.963   1.981   1.344 -0.2700  0.2961  1.0294
 6850TIP3    H241966   1.001   2.127   1.332  2.3227 -0.5393 -2.3524
 6851TIP3   OH241967   1.505   1.269  13.750  0.4084 -0.0331 -0.0636
 6851TIP3    H141968   1.489   1.287  13.842  0.5468 -0.0680 -0.0329
 6851TIP3    H241969   1.583   1.213  13.749  1.0258  0.8191 -0.2641
 6852TIP3   OH241970   0.715   4.581   2.832  0.5114 -0.2777  0.1016
 6852TIP3    H141971   0.696   4.630   2.913  0.6500  0.4058 -0.2698
 6852TIP3    H241972   0.753   4.647   2.774  0.2168 -0.7228 -0.5962
 6853TIP3   OH241973   3.158   2.174   5.240  0.0805 -0.3005 -0.2578
 6853TIP3    H141974   3.239   2.182   5.290  0.1825  0.5554 -0.5333
 6853TIP3    H241975   3.110   2.104   5.283  2.0322 -2.6022 -1.5694
 6854TIP3   OH241976   3.368   5.104  15.783  0.2086  0.5039 -0.0075
 6854TIP3    H141977   3.289   5.109  15.836  0.2288  2.1089 -0.0816
 6854TIP3    H241978   3.439   5.090  15.845  0.0354  0.6405  0.2206
 6855TIP3   OH241979   4.896   6.781  13.448 -0.3483 -0.1858 -0.7431
 6855TIP3    H141980   4.971   6.722  13.461 -1.7534 -1.7110  0.7959
 6855TIP3    H241981   4.915   6.856  13.504 -0.7233 -1.3407  0.9970
 6856TIP3   OH241982   3.663   2.294   0.722 -0.0140  0.0573 -0.7748
 6856TIP3    H141983   3.627   2.287   0.634 -0.3637 -0.4912 -0.5942
 6856TIP3    H241984   3.624   2.221   0.770 -0.1316  0.5646 -0.0656
 6857TIP3   OH241985   1.940   5.683   3.254 -0.6518 -0.3433  0.2896
 6857TIP3    H141986   2.012   5.673   3.191 -1.6941 -1.7750 -0.7546
 6857TIP3    H241987   1.914   5.593   3.273 -2.1358  0.1483  0.6777
 6858TIP3   OH241988   1.656   6.478   5.197 -0.1267 -0.1639 -0.4512
 6858TIP3    H141989   1.568   6.441   5.202 -0.2601 -0.3177 -2.8785
 6858TIP3    H241990   1.647   6.565   5.237 -1.3607 -0.1999 -0.6076
 6859TIP3   OH241991   6.141   5.333  14.864  0.3252 -0.9122  0.5408
 6859TIP3    H141992   6.138   5.342  14.959  1.0609 -2.1917  0.7102
 6859TIP3    H241993   6.051   5.347  14.836  0.1262 -0.3921  1.4156
 6860TIP3   OH241994   0.089   1.515   1.265 -0.2815  0.1636  0.1913
 6860TIP3    H141995   0.037   1.437   1.287 -0.4534  0.1074 -0.4046
 6860TIP3    H241996   0.163   1.482   1.215  0.5474  0.2034  1.3423
 6861TIP3   OH241997   6.656   4.913   4.348  0.0010  0.5940  0.3471
 6861TIP3    H141998   6.573   4.928   4.393  0.0916  1.3721  0.2758
 6861TIP3    H241999   6.721   4.905   4.418 -0.0095  0.8164  0.3827
 6862TIP3   OH242000   4.709   0.690  12.611  0.2724  0.2853  0.0738
 6862TIP3    H142001   4.732   0.683  12.704  0.4576 -0.3155 -0.0121
 6862TIP3    H242002   4.753   0.770  12.581 -0.8279  1.1982  0.7975
 6863TIP3   OH242003   4.479   4.562   0.638  0.1159  0.0675  0.6549
 6863TIP3    H142004   4.514   4.650   0.622  1.0542 -0.2950  0.6404
 6863TIP3    H242005   4.385   4.570   0.622  0.2816  0.9223  0.0429
 6864TIP3   OH242006   5.670   3.298   1.848  0.1958 -0.2163 -0.1610
 6864TIP3    H142007   5.716   3.247   1.916  0.7328 -0.0268 -0.3730
 6864TIP3    H242008   5.577   3.283   1.865  0.2238 -3.9750 -2.1576
 6865TIP3   OH242009   1.501   0.881  16.907  0.4789 -0.0696  0.8940
 6865TIP3    H142010   1.591   0.894  16.878  0.6095 -2.3268  0.1160
 6865TIP3    H242011   1.498   0.923  16.993  2.2103  0.1984  0.8674
 6866TIP3   OH242012   0.905   0.644  11.555  0.7058 -0.5323 -0.0849
 6866TIP3    H142013   0.879   0.651  11.463 -1.8465  0.6032  0.6126
 6866TIP3    H242014   0.996   0.671  11.557 -0.0587  2.6970 -1.9440
 6867TIP3   OH242015   5.541   4.675   3.401  0.0826  0.6194  0.2919
 6867TIP3    H142016   5.517   4.751   3.349 -0.3009  0.9017  0.8784
 6867TIP3    H242017   5.470   4.664   3.463  1.0267  0.9323  1.4759
 6868TIP3   OH242018   3.293   6.727   4.841 -0.0528  0.0832  0.3259
 6868TIP3    H142019   3.311   6.684   4.925  0.0815 -0.4538  0.0225
 6868TIP3    H242020   3.224   6.790   4.861 -0.2991 -0.3195  0.7577
 6869TIP3   OH242021   4.945   1.277  11.336  0.1838 -0.1067 -0.5403
 6869TIP3    H142022   4.912   1.264  11.425  0.5434 -2.6845 -0.7330
 6869TIP3    H242023   5.035   1.247  11.339  0.3295  0.1571 -1.7106
 6870TIP3   OH242024   2.553   3.370  13.460 -0.2350 -0.4743 -0.2695
 6870TIP3    H142025   2.459   3.358  13.474 -0.3215 -1.1583 -1.3170
 6870TIP3    H242026   2.578   3.298  13.401  0.4240  1.1658 -2.1025
 6871TIP3   OH242027   0.828   5.545  13.910  0.1961  0.2060  0.1411
 6871TIP3    H142028   0.744   5.499  13.903  0.4224 -0.0660 -1.0110
 6871TIP3    H242029   0.851   5.539  14.003  0.0368 -1.7156  0.1081
 6872TIP3   OH242030   4.986   6.070  14.663 -0.4797  0.1883 -0.0764
 6872TIP3    H142031   5.013   6.051  14.752  0.9160 -1.2373 -0.7445
 6872TIP3    H242032   4.897   6.034  14.657 -0.3775 -0.1934  0.5910
 6873TIP3   OH242033   2.586   5.950  15.217 -0.2005 -0.4402 -0.0594
 6873TIP3    H142034   2.632   6.019  15.169 -1.2267 -0.3062 -0.9019
 6873TIP3    H242035   2.524   5.913  15.153  0.8453 -2.6944  0.1330
 6874TIP3   OH242036   0.848   3.823   5.022  0.2183  0.4245 -0.5874
 6874TIP3    H142037   0.760   3.791   5.042  0.3796  0.8884  0.9990
 6874TIP3    H242038   0.845   3.917   5.042  1.1585  0.3758 -0.1573
 6875TIP3   OH242039   0.107   0.764  16.160  0.9742 -0.4200  0.3590
 6875TIP3    H142040   0.172   0.800  16.099  1.6699 -1.5910  0.3846
 6875TIP3    H242041   0.151   0.691  16.202  0.0528 -0.4498  1.3244
 6876TIP3   OH242042   3.860   1.782  15.540 -0.2781 -0.6021  0.4415
 6876TIP3    H142043   3.782   1.802  15.591  0.5797  1.9143  0.9012
 6876TIP3    H242044   3.908   1.719  15.594 -1.0804 -0.7387  1.0182
 6877TIP3   OH242045   0.658   3.318  13.905  0.2701 -0.5966  0.3510
 6877TIP3    H142046   0.675   3.364  13.823 -2.2657 -0.4089 -0.1471
 6877TIP3    H242047   0.729   3.345  13.963  0.8688  1.0570 -1.0700
 6878TIP3   OH242048   3.969   2.132   3.289 -0.2559 -0.7109  0.1365
 6878TIP3    H142049   3.936   2.157   3.203  0.1951 -0.9003 -0.1003
 6878TIP3    H242050   3.923   2.051   3.310  0.2730 -1.1514 -0.3371
 6879TIP3   OH242051   5.181   3.605  13.716 -0.8284 -0.2139 -0.1298
 6879TIP3    H142052   5.267   3.606  13.758  0.0455 -1.5732 -1.7634
 6879TIP3    H242053   5.119   3.598  13.789  0.3741  1.3791  1.1157
 6880TIP3   OH242054   5.033   4.184  15.122 -0.0158 -0.2176  0.5991
 6880TIP3    H142055   5.090   4.141  15.059 -0.9698  0.1795 -0.5585
 6880TIP3    H242056   4.971   4.116  15.148  0.6988 -0.5375  1.5656
 6881TIP3   OH242057   2.135   0.837  11.078  0.2983  0.1270 -0.4390
 6881TIP3    H142058   2.059   0.789  11.113  1.5938 -1.8159 -0.1156
 6881TIP3    H242059   2.098   0.916  11.039 -2.0240 -1.3091 -1.3191
 6882TIP3   OH242060   2.192   5.830  10.920 -0.4575 -0.3620 -0.2717
 6882TIP3    H142061   2.274   5.878  10.930 -0.8701  0.1234  0.8953
 6882TIP3    H242062   2.124   5.890  10.951 -1.4855 -0.1247 -2.7135
 6883TIP3   OH242063   2.935   6.313   3.014 -0.1338  0.6619  0.0816
 6883TIP3    H142064   2.938   6.283   2.923 -0.4523  0.9900 -0.0388
 6883TIP3    H242065   3.011   6.272   3.055  0.8736  1.6586 -0.6997
 6884TIP3   OH242066   6.422   3.312   5.306  0.0933  0.1448  0.3052
 6884TIP3    H142067   6.456   3.250   5.371  1.7797  1.4408  0.7337
 6884TIP3    H242068   6.449   3.275   5.222  1.0222  0.2444  0.5511
 6885TIP3   OH242069   5.527   0.201  15.734 -0.3216 -0.0791  0.2309
 6885TIP3    H142070   5.475   0.263  15.786 -0.3319  0.4623 -0.4094
 6885TIP3    H242071   5.497   0.215  15.644  0.6723 -0.0214 -0.1028
 6886TIP3   OH242072   0.369   3.993  11.076  0.3080  0.5322 -0.3327
 6886TIP3    H142073   0.432   3.922  11.063 -0.2047 -0.4596  2.0088
 6886TIP3    H242074   0.303   3.978  11.008 -0.1180 -1.6745  0.4734
 6887TIP3   OH242075   3.188   1.444   1.252 -0.3795  0.1714 -0.0146
 6887TIP3    H142076   3.252   1.472   1.318  0.6885 -0.4746 -0.7566
 6887TIP3    H242077   3.116   1.507   1.260  0.4170  1.0020  0.7301
 6888TIP3   OH242078   1.311   3.204  16.940  0.3336  0.0197 -0.2492
 6888TIP3    H142079   1.352   3.267  17.000 -0.9872 -1.0625  1.9253
 6888TIP3    H242080   1.233   3.174  16.987 -0.3900 -1.4258 -2.2586
 6889TIP3   OH242081   4.470   1.598   4.189  0.0832 -0.0704  0.1803
 6889TIP3    H142082   4.518   1.675   4.159  1.6348 -1.0599 -0.0003
 6889TIP3    H242083   4.379   1.628   4.197  0.6356  1.7554  0.1112
 6890TIP3   OH242084   2.914   5.146   3.717 -0.2175  0.5365 -0.3639
 6890TIP3    H142085   2.979   5.176   3.652 -0.3240 -1.3813 -1.4314
 6890TIP3    H242086   2.964   5.139   3.798  0.5699  0.5184 -0.8313
 6891TIP3   OH242087   1.441   5.816  14.191  0.3741 -0.1886 -0.0804
 6891TIP3    H142088   1.415   5.907  14.178 -1.7817 -0.7363 -0.0143
 6891TIP3    H242089   1.480   5.815  14.278 -1.7948  0.2937  0.9633
 6892TIP3   OH242090   5.469   3.618   2.310 -0.2984 -0.0606  0.1585
 6892TIP3    H142091   5.428   3.643   2.393 -2.6687  1.6916 -1.3946
 6892TIP3    H242092   5.403   3.566   2.265  0.5927 -0.2443 -0.9889
 6893TIP3   OH242093   3.105   0.652  16.156 -0.3433 -0.3537 -0.5096
 6893TIP3    H142094   3.153   0.569  16.148 -0.0414 -0.5052  2.1562
 6893TIP3    H242095   3.066   0.649  16.243 -1.3361  1.8055 -0.8244
 6894TIP3   OH242096   1.057   2.367   1.751 -0.3621  0.3555  0.1032
 6894TIP3    H142097   1.060   2.274   1.730 -0.7189  0.5869 -1.0612
 6894TIP3    H242098   1.055   2.370   1.846 -0.3024 -0.8210  0.1598
 6895TIP3   OH242099   0.899   3.190   0.494 -0.4435  0.2122  0.5465
 6895TIP3    H142100   0.882   3.191   0.589 -0.1228 -1.0890  0.6451
 6895TIP3    H242101   0.991   3.162   0.487 -0.8692 -1.0595 -0.1695
 6896TIP3   OH242102   1.379   5.891  12.624 -0.1971  0.6018 -0.0980
 6896TIP3    H142103   1.412   5.980  12.627  1.2097  0.0940  0.4181
 6896TIP3    H242104   1.458   5.836  12.619 -1.0141 -0.6261 -0.0782
 6897TIP3   OH242105   6.053   0.854  15.809  0.3538  0.0483  0.3054
 6897TIP3    H142106   6.080   0.764  15.827 -0.5068 -0.0654  1.0784
 6897TIP3    H242107   5.960   0.857  15.830  0.8152  1.6605  2.5603
 6898TIP3   OH242108   2.647   1.274   2.323 -0.6446 -0.4071 -0.0726
 6898TIP3    H142109   2.609   1.308   2.242 -0.0538  1.3117  0.3390
 6898TIP3    H242110   2.578   1.284   2.388 -0.4062  0.2090  0.0904
 6899TIP3   OH242111   3.931   4.464  10.419  0.3693  0.2407  0.2660
 6899TIP3    H142112   3.881   4.401  10.471 -0.1591 -0.4005 -0.9750
 6899TIP3    H242113   4.007   4.484  10.473 -0.6166  0.3239  1.6777
 6900TIP3   OH242114   5.267   0.639   2.973  0.0233  0.3690 -0.2456
 6900TIP3    H142115   5.320   0.631   3.053  0.8236 -1.9253 -0.9240
 6900TIP3    H242116   5.189   0.588   2.990  0.7990 -1.2721 -1.3376
 6901TIP3   OH242117   3.117   1.581  10.834  0.1306 -0.3668 -0.3970
 6901TIP3    H142118   3.210   1.594  10.850  0.0139 -0.0283  0.0173
 6901TIP3    H242119   3.096   1.641  10.762  0.0640  0.1558  0.0497
 6902TIP3   OH242120   2.516   1.674   1.236  0.0770 -0.4076  0.5073
 6902TIP3    H142121   2.507   1.766   1.212  1.5943 -0.3382  0.1274
 6902TIP3    H242122   2.450   1.661   1.305 -0.2024  0.9346  0.5223
 6903TIP3   OH242123   5.083   3.895   5.766 -0.3958 -0.2156 -0.7602
 6903TIP3    H142124   5.055   3.806   5.787 -0.2426  0.6226  4.2264
 6903TIP3    H242125   5.004   3.948   5.776 -0.2414  0.4114 -2.5353
 6904TIP3   OH242126   0.122   5.225  15.204  0.1989 -0.6331  0.4860
 6904TIP3    H142127   0.049   5.217  15.142 -1.2642 -2.4420  2.2584
 6904TIP3    H242128   0.196   5.256  15.152 -1.3480 -0.5586 -1.7917
 6905TIP3   OH242129   5.521   1.082   1.586 -0.2749 -0.5567 -0.0238
 6905TIP3    H142130   5.492   1.016   1.649 -1.1357  0.6275  0.8505
 6905TIP3    H242131   5.445   1.139   1.574  0.3271  0.0507 -1.0724
 6906TIP3   OH242132   4.007   1.935   5.171  0.1701  0.1117  0.4741
 6906TIP3    H142133   4.000   1.961   5.079  1.5606 -2.4018 -0.4291
 6906TIP3    H242134   3.925   1.966   5.211 -0.7227  0.7615 -1.7071
 6907TIP3   OH242135   4.402   4.338   3.873 -0.2694 -0.0715 -0.4300
 6907TIP3    H142136   4.353   4.257   3.885  1.2075 -1.1124 -1.1070
 6907TIP3    H242137   4.438   4.332   3.785 -0.2986  1.4380 -0.5731
 6908TIP3   OH242138   6.236   4.630   1.621 -0.5876  0.4695  1.1264
 6908TIP3    H142139   6.216   4.694   1.689  0.1849 -0.9610  2.7991
 6908TIP3    H242140   6.293   4.566   1.665 -1.9813 -1.8073 -0.1928
 6909TIP3   OH242141   5.800   2.628   4.247  0.2859  0.0964 -0.4844
 6909TIP3    H142142   5.759   2.713   4.260  0.4185  0.2861 -1.2665
 6909TIP3    H242143   5.732   2.565   4.269  0.7452  0.3636  1.9213
 6910TIP3   OH242144   4.282   1.156  12.415  0.0904  0.3014  0.6362
 6910TIP3    H142145   4.202   1.165  12.466 -1.0599 -1.5505 -0.7042
 6910TIP3    H242146   4.275   1.221  12.345 -0.6032 -0.3399  0.1038
 6911TIP3   OH242147   4.969   1.717  13.187 -0.1447 -0.3794 -0.3215
 6911TIP3    H142148   4.937   1.720  13.277 -0.5013  0.0373 -0.4575
 6911TIP3    H242149   4.896   1.749  13.134  0.2091 -0.2047 -0.7166
 6912TIP3   OH242150   1.991   5.805  13.305 -0.0424  0.1899 -0.4259
 6912TIP3    H142151   2.036   5.808  13.220 -0.2715  0.9201 -0.5305
 6912TIP3    H242152   2.053   5.842  13.367 -0.6744  1.7841 -0.6730
 6913TIP3   OH242153   0.793   6.716   0.446  0.1447 -0.3060  0.0215
 6913TIP3    H142154   0.842   6.793   0.415 -0.7096  0.0967 -0.3516
 6913TIP3    H242155   0.797   6.722   0.541 -0.0345  0.2772 -0.0036
 6914TIP3   OH242156   1.744   5.955  16.394 -0.3859 -0.3086  0.6774
 6914TIP3    H142157   1.736   5.928  16.302  0.6456 -0.3624  0.5858
 6914TIP3    H242158   1.816   5.901  16.427 -1.9711 -1.6879  2.0647
 6915TIP3   OH242159   2.537   5.770   4.547  0.1643 -0.2676  0.3308
 6915TIP3    H142160   2.578   5.683   4.542 -0.9765 -0.8175  0.1081
 6915TIP3    H242161   2.570   5.816   4.470 -0.1298 -0.9398 -0.2161
 6916TIP3   OH242162   3.944   1.641  11.438  0.4069  0.0075 -0.2013
 6916TIP3    H142163   4.008   1.711  11.448  1.7007 -1.1268 -0.1366
 6916TIP3    H242164   3.878   1.676  11.378  2.4752  0.3378 -2.4423
 6917TIP3   OH242165   1.946   1.631   2.821 -0.3671 -0.8261 -0.2398
 6917TIP3    H142166   1.994   1.626   2.903 -2.7978  1.6447  1.4924
 6917TIP3    H242167   1.869   1.576   2.835 -0.2880 -1.2400 -1.3083
 6918TIP3   OH242168   3.650   0.149  16.660 -0.5627  0.5150  0.2459
 6918TIP3    H142169   3.660   0.233  16.616  1.9778  0.5575  0.7598
 6918TIP3    H242170   3.710   0.153  16.735 -0.2305 -1.8048  0.1803
 6919TIP3   OH242171   6.058   2.502  11.028 -0.1497  0.2166  0.2696
 6919TIP3    H142172   6.028   2.549  10.950  1.7717 -0.2131 -0.7980
 6919TIP3    H242173   6.128   2.557  11.063 -0.3181 -0.0954  1.1028
 6920TIP3   OH242174   5.275   2.339  11.699 -0.2341  0.2510 -0.2813
 6920TIP3    H142175   5.290   2.293  11.616 -1.0365 -1.0658  0.2705
 6920TIP3    H242176   5.359   2.334  11.745  0.8176  2.6444 -1.7230
 6921TIP3   OH242177   1.763   3.080   4.065  0.3405  0.0293 -0.3191
 6921TIP3    H142178   1.747   3.160   4.015 -1.0580 -0.5036 -0.7779
 6921TIP3    H242179   1.748   3.105   4.156 -1.3798  0.0172 -0.5693
 6922TIP3   OH242180   2.042   3.116  11.180 -0.1673  0.2980  0.1926
 6922TIP3    H142181   1.995   3.040  11.146 -0.4793  0.2467  0.7390
 6922TIP3    H242182   2.005   3.131  11.267  2.2374 -1.0297  1.5572
 6923TIP3   OH242183   3.134   0.621   0.693  0.0877 -0.3847  0.2544
 6923TIP3    H142184   3.153   0.603   0.785 -0.9501 -2.0532  0.1876
 6923TIP3    H242185   3.174   0.706   0.676 -0.2878  0.2861  2.4323
 6924TIP3   OH242186   6.792   2.691  10.492 -0.3361  0.0896 -0.3180
 6924TIP3    H142187   6.746   2.741  10.560 -0.3056 -0.9842  0.5079
 6924TIP3    H242188   6.760   2.729  10.410 -0.4117  1.3790  0.2681
 6925TIP3   OH242189   1.520   3.125   5.383  0.3260  0.1634  0.2008
 6925TIP3    H142190   1.563   3.100   5.465  0.2736  0.1638  0.2283
 6925TIP3    H242191   1.592   3.150   5.325  0.5776 -2.0760 -0.5521
 6926TIP3   OH242192   5.045   4.521   0.879  0.7144  0.6369 -0.1592
 6926TIP3    H142193   5.023   4.608   0.912 -1.3552  0.0365  0.1853
 6926TIP3    H242194   5.035   4.528   0.784 -0.1164  0.6384 -0.0825
 6927TIP3   OH242195   1.059   3.453   2.370  0.3824  0.4447 -0.0399
 6927TIP3    H142196   1.066   3.405   2.288 -0.5299 -1.1141  0.7558
 6927TIP3    H242197   1.015   3.535   2.346  0.3388  0.1144 -1.1389
 6928TIP3   OH242198   1.089   4.162  16.825 -0.0782  0.0399 -0.4576
 6928TIP3    H142199   1.138   4.081  16.841  0.5684  0.2329 -1.4542
 6928TIP3    H242200   1.016   4.135  16.769  0.3463  0.2162 -1.0919
 6929TIP3   OH242201   2.822   6.138  10.741  0.7757  0.4172  0.2723
 6929TIP3    H142202   2.748   6.085  10.771  0.5205  1.1920  1.1049
 6929TIP3    H242203   2.803   6.156  10.649 -0.6832  1.4980  0.7234
 6930TIP3   OH242204   0.506   1.513  11.771 -0.0585 -0.6215 -0.4193
 6930TIP3    H142205   0.499   1.508  11.867 -0.8581  0.0487 -0.4299
 6930TIP3    H242206   0.421   1.484  11.740  0.0243 -0.3391 -0.9125
 6931TIP3   OH242207   1.843   1.302  14.965  0.0531  0.7778  0.3385
 6931TIP3    H142208   1.828   1.209  14.977  0.2100  0.7869  0.6186
 6931TIP3    H242209   1.836   1.339  15.053  0.1518  1.0056  0.2518
 6932TIP3   OH242210   6.628   5.591   2.478  0.0070  0.1881  0.4309
 6932TIP3    H142211   6.700   5.535   2.506 -0.3095 -0.6376 -0.3249
 6932TIP3    H242212   6.668   5.675   2.458  0.5279  0.1774  1.4064
 6933TIP3   OH242213   2.665   1.199  16.732  0.7707 -0.0656 -0.1765
 6933TIP3    H142214   2.705   1.282  16.709  1.6060 -0.7820 -1.4404
 6933TIP3    H242215   2.628   1.166  16.650  1.0568 -1.2453  0.1437
 6934TIP3   OH242216   6.609   2.961  13.914  0.1313 -0.4321 -0.5822
 6934TIP3    H142217   6.671   3.006  13.971  0.4560 -1.6709  0.0642
 6934TIP3    H242218   6.577   2.887  13.966  1.8811 -2.7845 -2.5977
 6935TIP3   OH242219   6.393   6.125  16.866  0.1623 -0.1004  0.1085
 6935TIP3    H142220   6.402   6.063  16.938 -0.0837  0.6680  0.8174
 6935TIP3    H242221   6.307   6.164  16.878 -0.2011 -0.5065 -1.0611
 6936TIP3   OH242222   3.674   4.443   1.320 -0.2799 -0.1305  0.0404
 6936TIP3    H142223   3.715   4.378   1.377  1.5368 -0.2866 -1.3703
 6936TIP3    H242224   3.712   4.526   1.348  0.5489 -0.1963 -0.8327
 6937TIP3   OH242225   4.474   5.894  16.404 -0.3934  0.4783  0.0050
 6937TIP3    H142226   4.470   5.972  16.349  2.0295 -0.1168 -1.1712
 6937TIP3    H242227   4.408   5.835  16.366  0.1752  0.6696 -1.3242
 6938TIP3   OH242228   2.109   4.777   4.560  0.5260 -0.1128  0.1461
 6938TIP3    H142229   2.020   4.784   4.596 -0.5966  0.7032 -2.5173
 6938TIP3    H242230   2.154   4.855   4.593  0.3294 -0.5759  1.5941
 6939TIP3   OH242231   0.869   0.506   1.602 -0.3572  0.4194  0.1925
 6939TIP3    H142232   0.902   0.431   1.652 -2.0066 -0.4008  0.1303
 6939TIP3    H242233   0.799   0.542   1.656 -1.1664  0.4398 -0.8314
 6940TIP3   OH242234   0.429   4.948   1.529 -0.3276  0.1431 -0.1307
 6940TIP3    H142235   0.479   5.000   1.593  1.1696  0.3150 -1.3739
 6940TIP3    H242236   0.339   4.977   1.540  0.1798  1.5673  0.5789
 6941TIP3   OH242237   5.671   2.369   0.300 -0.2968  0.0160 -0.4637
 6941TIP3    H142238   5.614   2.342   0.372 -0.0947 -0.8981 -0.6375
 6941TIP3    H242239   5.643   2.458   0.280  1.1998  1.2431  2.3295
 6942TIP3   OH242240   4.783   2.001  13.691 -0.4456  0.3216 -0.4375
 6942TIP3    H142241   4.764   2.082  13.737 -0.8972 -0.1011  0.1388
 6942TIP3    H242242   4.811   1.940  13.760 -0.4651 -0.1188 -0.8091
 6943TIP3   OH242243   3.363   4.617  12.781  0.3958  0.3865  0.7204
 6943TIP3    H142244   3.285   4.606  12.836  0.1994 -0.5591  0.2805
 6943TIP3    H242245   3.436   4.597  12.839  0.3967  2.2839  1.4129
 6944TIP3   OH242246   4.532   4.233  12.800  0.5067 -0.3012  0.3075
 6944TIP3    H142247   4.481   4.310  12.824  0.9794  0.1769 -0.1742
 6944TIP3    H242248   4.543   4.184  12.882  1.2942  0.8097  0.8849
 6945TIP3   OH242249   4.640   4.133  12.464  0.2217  0.1040 -0.1093
 6945TIP3    H142250   4.559   4.102  12.505 -0.0540 -0.5731 -1.1336
 6945TIP3    H242251   4.668   4.207  12.519  0.3686 -1.3165  1.8483
 6946TIP3   OH242252   4.926   5.370  11.654 -0.1731 -0.2270 -0.4343
 6946TIP3    H142253   4.981   5.444  11.680  0.5032 -0.4421 -1.2338
 6946TIP3    H242254   4.965   5.294  11.698  0.6507 -0.5051 -1.6197
 6947TIP3   OH242255   3.231   1.626   0.020 -0.4057 -0.1722 -0.0937
 6947TIP3    H142256   3.150   1.676   0.008 -0.9673 -0.6316  1.5552
 6947TIP3    H242257   3.202   1.535   0.027  0.3572 -0.4499 -0.4294
 6948TIP3   OH242258   5.509   2.585   0.238  0.5367  0.3025 -0.2880
 6948TIP3    H142259   5.445   2.518   0.215 -1.2468  1.6260  0.5358
 6948TIP3    H242260   5.525   2.632   0.156  0.2306  0.1438 -0.4389
 6949TIP3   OH242261   5.965   3.050   6.376 -0.3074 -1.0275  0.6856
 6949TIP3    H142262   6.013   2.967   6.379  1.1430 -0.2097  0.7875
 6949TIP3    H242263   6.031   3.117   6.397 -0.9686  0.3579 -1.3387
 6950TIP3   OH242264   3.674   1.885   6.078 -0.3164 -0.0737 -0.8198
 6950TIP3    H142265   3.741   1.818   6.068 -0.2314 -0.4125  1.3499
 6950TIP3    H242266   3.722   1.965   6.100 -0.5260 -0.6201  2.1492
 6951TIP3   OH242267   1.010   0.471  13.829 -0.6667 -0.2736  0.0768
 6951TIP3    H142268   0.966   0.489  13.912 -0.0186 -2.2236  0.8971
 6951TIP3    H242269   0.939   0.458  13.766 -1.2046 -0.7564  0.7763
 6952TIP3   OH242270   1.123   2.101  14.691 -0.3201 -0.0491 -0.5415
 6952TIP3    H142271   1.117   2.197  14.691  1.9401  0.2083  1.3091
 6952TIP3    H242272   1.198   2.082  14.635 -0.7285 -0.7292 -0.8595
 6953TIP3   OH242273   2.466   6.527   3.384  0.2586 -0.0073  0.3634
 6953TIP3    H142274   2.415   6.452   3.417 -0.0257  0.9885  2.3050
 6953TIP3    H242275   2.539   6.535   3.445  1.8589 -0.3766 -1.4370
 6954TIP3   OH242276   5.854   2.303  12.520  0.0996 -0.2429 -0.4391
 6954TIP3    H142277   5.820   2.227  12.568  2.2440 -1.2978 -0.4997
 6954TIP3    H242278   5.780   2.364  12.518 -1.0174 -1.4152  1.5061
 6955TIP3   OH242279   5.536   1.421   2.686  0.7799  0.3800  0.5705
 6955TIP3    H142280   5.448   1.425   2.722  0.0369  1.0027 -1.1832
 6955TIP3    H242281   5.561   1.329   2.693  0.3730  0.3595  1.9204
 6956TIP3   OH242282   2.922   0.625   1.779  0.1537 -0.4958 -0.2766
 6956TIP3    H142283   2.976   0.650   1.704  0.6219  0.6980  0.4280
 6956TIP3    H242284   2.836   0.662   1.760 -0.1673 -1.5370 -0.9324
 6957TIP3   OH242285   6.440   0.148  10.696  0.3663 -0.1766 -0.2737
 6957TIP3    H142286   6.468   0.076  10.639 -0.4814 -0.5727 -0.1997
 6957TIP3    H242287   6.347   0.158  10.679  0.2231  0.0969  0.6080
 6958TIP3   OH242288   2.559   2.092  10.475  0.0649  0.3122  0.1005
 6958TIP3    H142289   2.569   1.999  10.457 -1.2161  0.1087  0.3674
 6958TIP3    H242290   2.536   2.097  10.567  1.4774  1.0126  0.4533
 6959TIP3   OH242291   6.575   5.375   0.998 -0.4919  0.0037  0.2114
 6959TIP3    H142292   6.571   5.311   1.069 -0.2935 -0.1976  0.0443
 6959TIP3    H242293   6.668   5.378   0.974 -0.3979  0.8355  0.6544
 6960TIP3   OH242294   1.724   5.215  12.644 -0.4102  0.1452 -0.1258
 6960TIP3    H142295   1.653   5.222  12.708  0.6323  1.6149  0.9125
 6960TIP3    H242296   1.766   5.301  12.645  0.7078 -0.3511 -1.5382
 6961TIP3   OH242297   0.118   4.775  16.330 -0.3361  0.0943 -0.3285
 6961TIP3    H142298   0.119   4.777  16.234 -1.1472 -1.0407 -0.3676
 6961TIP3    H242299   0.154   4.689  16.353  1.1964  0.8864  0.4472
 6962TIP3   OH242300   6.433   6.029  12.417 -0.2756 -0.3500 -0.1008
 6962TIP3    H142301   6.469   6.104  12.465 -1.7851 -1.0448  2.3241
 6962TIP3    H242302   6.506   5.996  12.365  0.9163  1.7002  0.1613
 6963TIP3   OH242303   2.920   5.423  11.638  0.0865  0.3693 -0.7454
 6963TIP3    H142304   2.893   5.480  11.566 -1.5644  2.4681  1.3459
 6963TIP3    H242305   2.863   5.449  11.711  1.7885 -1.4759  1.3818
 6964TIP3   OH242306   3.775   3.445   5.893  0.4288  0.2215  0.4087
 6964TIP3    H142307   3.757   3.380   5.961 -0.1289  1.2252  1.2591
 6964TIP3    H242308   3.786   3.527   5.941  2.5594  0.5277 -0.5106
 6965TIP3   OH242309   5.744   2.225   4.545 -1.3123  0.4487  0.0065
 6965TIP3    H142310   5.760   2.298   4.485 -0.2410 -0.0102 -0.2820
 6965TIP3    H242311   5.818   2.166   4.532 -0.2525  1.0025  2.7926
 6966TIP3   OH242312   2.200   6.486   0.009 -1.1004  1.0825 -0.0996
 6966TIP3    H142313   2.122   6.434  -0.010  0.3344 -1.5848  0.6433
 6966TIP3    H242314   2.189   6.515   0.099 -0.8584 -0.2109  0.3817
 6967TIP3   OH242315   3.905   5.571   3.140 -0.1792  0.1996  0.3346
 6967TIP3    H142316   3.874   5.573   3.049  0.1216  0.7138  0.2415
 6967TIP3    H242317   3.923   5.663   3.161  2.9423 -0.1788 -0.1778
 6968TIP3   OH242318   4.747   2.332   4.149  0.1809  0.2691 -0.3807
 6968TIP3    H142319   4.777   2.283   4.072  0.3693 -0.1420 -0.0451
 6968TIP3    H242320   4.714   2.415   4.113  1.2374  0.5177 -0.8055
 6969TIP3   OH242321   4.920   5.665  10.020  0.0840  0.1955  0.4369
 6969TIP3    H142322   4.831   5.638   9.999  0.7687 -0.6763 -1.6592
 6969TIP3    H242323   4.971   5.584  10.015  1.3651  1.0375 -0.8717
 6970TIP3   OH242324   6.072   6.155  16.379 -0.0783  0.0318 -0.2098
 6970TIP3    H142325   5.983   6.190  16.386  0.8953  2.5682  0.4632
 6970TIP3    H242326   6.071   6.078  16.437 -1.5191  0.7195  0.7437
 6971TIP3   OH242327   2.779   0.627  13.733 -0.0262  0.2590  0.6196
 6971TIP3    H142328   2.814   0.716  13.733 -0.0729  0.3029 -0.7364
 6971TIP3    H242329   2.770   0.605  13.825  0.6638  1.3908  0.9831
 6972TIP3   OH242330   4.984   0.705   1.520  0.2535 -0.2158  0.0249
 6972TIP3    H142331   4.906   0.655   1.542 -0.4357  0.2000 -1.3298
 6972TIP3    H242332   4.966   0.793   1.553 -0.9865  0.5336 -2.3854
 6973TIP3   OH242333   2.821   6.152  11.106 -0.2329 -0.4046  0.4394
 6973TIP3    H142334   2.731   6.168  11.078 -0.3178 -0.3578  0.7307
 6973TIP3    H242335   2.837   6.060  11.084 -0.4307 -0.4769  0.5962
 6974TIP3   OH242336   2.556   4.742  10.992 -0.1466  0.2737  0.8128
 6974TIP3    H142337   2.642   4.700  10.992  0.7213  1.9651  0.3334
 6974TIP3    H242338   2.513   4.709  10.913  0.8088  0.8062  0.0510
 6975TIP3   OH242339   6.240   4.787   3.134 -0.3680  0.3794  0.0553
 6975TIP3    H142340   6.210   4.714   3.188  1.0368 -1.1498 -1.1253
 6975TIP3    H242341   6.249   4.860   3.195 -1.0955 -0.6260  1.4194
 6976TIP3   OH242342   1.059   4.594  15.565  0.1242 -0.0946 -0.5141
 6976TIP3    H142343   1.013   4.592  15.481  1.4453  0.4323 -1.2733
 6976TIP3    H242344   1.134   4.650  15.550  1.1817 -1.1436  0.6201
 6977TIP3   OH242345   5.199   2.675  16.716  0.1521  0.2188 -0.2198
 6977TIP3    H142346   5.188   2.669  16.811  1.2749  0.3393 -0.0658
 6977TIP3    H242347   5.218   2.585  16.689 -2.0824 -0.1920 -0.6311
 6978TIP3   OH242348   1.634   4.457  16.342  0.2146 -0.5420 -0.1304
 6978TIP3    H142349   1.628   4.519  16.415 -1.0674 -2.3611  1.3892
 6978TIP3    H242350   1.583   4.498  16.272  0.4559  0.6771  0.3738
 6979TIP3   OH242351   1.779   0.401   3.021  0.5391  0.4709 -0.3350
 6979TIP3    H142352   1.716   0.465   2.986  0.8329  1.0312  0.1330
 6979TIP3    H242353   1.845   0.454   3.066  0.3586 -0.1876  0.7656
 6980TIP3   OH242354   2.409   0.187  10.830  0.4280  0.3149 -0.5957
 6980TIP3    H142355   2.490   0.138  10.813  0.5304  0.6498 -1.1091
 6980TIP3    H242356   2.417   0.266  10.776 -1.0761 -0.5335 -2.1609
 6981TIP3   OH242357   2.200   5.889  14.806  0.0264  0.3257  0.4090
 6981TIP3    H142358   2.217   5.826  14.736  0.4311  1.0172 -0.1145
 6981TIP3    H242359   2.127   5.942  14.774 -0.1148  0.3295  0.7264
 6982TIP3   OH242360   5.843   4.454   2.082  0.5587  0.2628  0.0737
 6982TIP3    H142361   5.792   4.390   2.033 -0.1484  0.9870 -0.1571
 6982TIP3    H242362   5.926   4.461   2.034  1.2318 -1.5096  0.8980
 6983TIP3   OH242363   0.003   3.936   3.218 -0.3984 -0.2954  0.0435
 6983TIP3    H142364   0.065   3.867   3.194  0.4236  0.5115 -0.2202
 6983TIP3    H242365  -0.019   3.918   3.309 -0.2669 -0.9521 -0.0465
 6984TIP3   OH242366   5.344   3.665  15.194 -0.3455  0.0870  0.1781
 6984TIP3    H142367   5.366   3.755  15.168 -0.4827 -0.4231 -1.8703
 6984TIP3    H242368   5.423   3.633  15.237  0.2823  0.6888 -0.4877
 6985TIP3   OH242369   2.433   6.393   5.451  0.3513  0.2045  0.1316
 6985TIP3    H142370   2.528   6.392   5.461  0.3818  2.0297  0.2882
 6985TIP3    H242371   2.417   6.457   5.382 -0.8100  0.4208  0.5807
 6986TIP3   OH242372   6.477   1.194   2.809  0.1636  0.1051  0.4769
 6986TIP3    H142373   6.449   1.139   2.882 -0.5015  0.7726  0.7347
 6986TIP3    H242374   6.508   1.131   2.743 -0.6863 -0.5894  0.7145
 6987TIP3   OH242375   3.781   3.330  12.577  0.3490 -0.2281  0.4684
 6987TIP3    H142376   3.760   3.282  12.498  1.3737  0.7338 -0.4345
 6987TIP3    H242377   3.805   3.263  12.641 -0.6152 -1.0189  0.0145
 6988TIP3   OH242378   5.556   2.244   0.763  0.7304  0.5272  0.4574
 6988TIP3    H142379   5.582   2.184   0.833  0.8723  1.7938  1.5321
 6988TIP3    H242380   5.480   2.202   0.723  1.2544 -0.7087  0.6993
 6989TIP3   OH242381   5.200   2.741  13.051  0.3895  0.3116  0.6518
 6989TIP3    H142382   5.270   2.806  13.061  0.5709 -0.0170  1.6972
 6989TIP3    H242383   5.237   2.661  13.089  0.6961 -0.8218 -1.8974
 6990TIP3   OH242384   2.331   6.319   1.098  0.2789  0.3657  0.0111
 6990TIP3    H142385   2.323   6.374   1.021 -1.9200  0.8498  0.5326
 6990TIP3    H242386   2.334   6.380   1.171  0.4752 -0.1486  0.4427
 6991TIP3   OH242387   4.369   4.670  13.033 -0.0064  0.6672  0.2864
 6991TIP3    H142388   4.361   4.583  12.994  0.1202  0.3920  0.8522
 6991TIP3    H242389   4.346   4.656  13.125  0.9053  1.0526  0.5838
 6992TIP3   OH242390   4.498   2.743   5.303 -0.4776 -0.3581 -0.2607
 6992TIP3    H142391   4.583   2.743   5.260  0.3507  0.3598  1.2738
 6992TIP3    H242392   4.472   2.835   5.304 -0.4180 -0.3429  0.8419
 6993TIP3   OH242393   2.272   5.584  14.211  0.3475 -0.0553 -0.1763
 6993TIP3    H142394   2.360   5.612  14.235  1.1583 -1.8880 -0.8139
 6993TIP3    H242395   2.250   5.637  14.134  0.8227  0.5005  0.0587
 6994TIP3   OH242396   3.389   0.218  11.364  0.2670 -0.2498  0.0698
 6994TIP3    H142397   3.395   0.214  11.269 -1.4604 -2.5054 -0.0192
 6994TIP3    H242398   3.460   0.163  11.395 -0.9160 -1.9276 -0.0634
 6995TIP3   OH242399   3.114   1.938   5.369 -0.3358  0.1562 -0.4022
 6995TIP3    H142400   3.130   1.916   5.277  1.0105  1.1806 -0.4478
 6995TIP3    H242401   3.170   1.878   5.418  0.5549  0.9842 -0.3691
 6996TIP3   OH242402   1.142   5.239   0.365  0.0189  0.5251  0.3370
 6996TIP3    H142403   1.072   5.304   0.366 -1.0055 -0.5583  1.0593
 6996TIP3    H242404   1.193   5.257   0.444 -1.0816 -0.3830  1.2826
 6997TIP3   OH242405   6.710   1.363  12.203 -0.0371 -0.0417 -0.3715
 6997TIP3    H142406   6.755   1.333  12.124 -0.4997 -2.4494  0.1996
 6997TIP3    H242407   6.618   1.341  12.188 -0.4857  1.5292 -0.0545
 6998TIP3   OH242408   1.600   4.158   0.092  0.2370 -0.5537 -0.1404
 6998TIP3    H142409   1.599   4.251   0.072 -0.8632 -0.4737  0.2165
 6998TIP3    H242410   1.525   4.145   0.150  1.8402 -1.1954  1.9164
 6999TIP3   OH242411   6.629   0.472   5.788 -0.0115  0.3247  0.1187
 6999TIP3    H142412   6.679   0.490   5.708 -0.4171  1.0694  0.0196
 6999TIP3    H242413   6.693   0.437   5.849  0.2433 -0.5778 -0.6372
 7000TIP3   OH242414   5.351   6.485  13.194  0.1325  0.9152 -0.0508
 7000TIP3    H142415   5.338   6.400  13.153  0.3852  0.2611  1.1928
 7000TIP3    H242416   5.445   6.502  13.187  0.1811  0.7875  0.2843
 7001TIP3   OH242417   3.543   5.845   2.886 -0.3710  0.6939 -0.1337
 7001TIP3    H142418   3.500   5.764   2.860 -0.0699  0.2669  0.6902
 7001TIP3    H242419   3.516   5.859   2.977 -0.0627  1.2846 -0.1271
 7002TIP3   OH242420   3.926   2.611   1.107 -0.4436 -0.0914 -0.4494
 7002TIP3    H142421   3.889   2.689   1.150 -1.9885  0.0707 -1.9750
 7002TIP3    H242422   3.996   2.645   1.051  0.1700 -0.0539  0.3234
 7003TIP3   OH242423   2.780   5.426   0.926  0.8464 -0.4400 -0.2108
 7003TIP3    H142424   2.687   5.433   0.946  0.5363  1.2858 -1.9453
 7003TIP3    H242425   2.824   5.455   1.006 -0.1699  0.8256 -0.0659
 7004TIP3   OH242426   3.078   1.234   4.248 -0.0637 -0.1648 -0.2552
 7004TIP3    H142427   3.099   1.178   4.174  1.1192  1.3175 -1.0959
 7004TIP3    H242428   3.163   1.265   4.279 -0.6111  0.0963  1.0466
 7005TIP3   OH242429   6.245   4.102  14.778  0.4967 -0.1453  0.4770
 7005TIP3    H142430   6.171   4.155  14.751  0.1233 -1.2968 -0.8965
 7005TIP3    H242431   6.321   4.159  14.769  0.4241 -0.3757 -3.1896
 7006TIP3   OH242432   2.928   0.713  15.748 -0.0387 -0.5302 -0.1153
 7006TIP3    H142433   2.856   0.673  15.698 -1.4544  1.8783 -0.1290
 7006TIP3    H242434   2.886   0.748  15.826  1.1492  0.8145 -0.0492
 7007TIP3   OH242435   6.680   3.766  10.467 -0.3337 -0.2912  0.5367
 7007TIP3    H142436   6.624   3.715  10.525  1.6816 -0.0800  2.8388
 7007TIP3    H242437   6.676   3.855  10.503  0.8440 -0.1242  0.3000
 7008TIP3   OH242438   2.721   4.484  15.481  0.3056  0.8247 -0.3939
 7008TIP3    H142439   2.710   4.573  15.447 -4.9967  0.8022  0.3852
 7008TIP3    H242440   2.730   4.429  15.403  0.2441  1.7527 -1.0709
 7009TIP3   OH242441   4.351   5.810   3.438  0.0054  0.7096 -0.0292
 7009TIP3    H142442   4.422   5.799   3.375  0.2219 -2.0584  0.5976
 7009TIP3    H242443   4.294   5.735   3.425 -1.2545  1.3405  1.4606
 7010TIP3   OH242444   5.157   1.301   4.776 -0.6853  0.3341 -0.2239
 7010TIP3    H142445   5.180   1.241   4.847 -1.4357  0.3007  0.0068
 7010TIP3    H242446   5.171   1.388   4.813 -3.6652  0.4260  0.9948
 7011TIP3   OH242447   5.086   4.574   0.600  0.2798  0.6292  0.0277
 7011TIP3    H142448   5.115   4.530   0.521 -0.3708 -1.5807  0.9395
 7011TIP3    H242449   5.156   4.638   0.619  0.5114  1.1134 -2.1753
 7012TIP3   OH242450   3.128   0.286  11.697  0.6790  0.3022 -0.2559
 7012TIP3    H142451   3.197   0.296  11.762  0.2418 -0.9622  0.4368
 7012TIP3    H242452   3.159   0.336  11.621  1.5317  1.1905  0.6489
 7013TIP3   OH242453   5.136   6.070  11.535  0.5751 -0.9436  0.0085
 7013TIP3    H142454   5.154   6.164  11.546  0.3297 -0.6552 -1.7603
 7013TIP3    H242455   5.044   6.060  11.557  1.0884 -1.2022  2.3241
 7014TIP3   OH242456   2.100   0.515  16.699  0.2381  0.5487  0.6241
 7014TIP3    H142457   2.052   0.585  16.655  1.7324  0.4554 -1.2873
 7014TIP3    H242458   2.154   0.559  16.764 -1.2231  0.7941  1.7290
 7015TIP3   OH242459   6.534   1.093   6.220 -0.2609  0.0927 -0.4875
 7015TIP3    H142460   6.495   1.143   6.148 -2.3925  0.7394  1.0322
 7015TIP3    H242461   6.567   1.160   6.280 -0.4949 -0.3954  0.1901
 7016TIP3   OH242462   5.871   2.397   3.769 -0.3818  0.5287 -0.1978
 7016TIP3    H142463   5.828   2.414   3.685  1.5528  0.8733 -1.1804
 7016TIP3    H242464   5.846   2.470   3.824 -0.1299  1.3621 -1.1464
 7017TIP3   OH242465   1.324   0.340   1.069 -0.0672  0.8429 -0.2685
 7017TIP3    H142466   1.266   0.363   1.142  0.0562  1.4979 -0.3803
 7017TIP3    H242467   1.294   0.393   0.996  0.6967  1.2168 -0.3186
 7018TIP3   OH242468   3.302   0.421   2.706 -0.3548 -0.1272 -0.0151
 7018TIP3    H142469   3.315   0.505   2.661  1.1638 -0.4068 -0.1502
 7018TIP3    H242470   3.268   0.445   2.792  2.1543  0.8238  0.7885
 7019TIP3   OH242471   5.667   3.465   1.579  0.1500  0.0740 -0.0751
 7019TIP3    H142472   5.578   3.452   1.548 -0.1330 -0.2391  0.8204
 7019TIP3    H242473   5.659   3.463   1.675  1.0574  0.4412  0.0184
 7020TIP3   OH242474   4.375   6.211  15.784 -0.1815 -0.0395  0.3438
 7020TIP3    H142475   4.316   6.287  15.787 -0.3586 -0.1493 -0.3661
 7020TIP3    H242476   4.321   6.138  15.814 -0.7247 -0.3340 -1.2582
 7021TIP3   OH242477   5.948   0.648   1.219  0.6358 -0.3047 -0.0795
 7021TIP3    H142478   5.920   0.724   1.167 -0.0677 -0.1567  0.5013
 7021TIP3    H242479   5.872   0.590   1.218 -0.0741  0.4871  2.2613
 7022TIP3   OH242480   0.305   4.487  12.924  0.1903  0.3801  0.4953
 7022TIP3    H142481   0.238   4.421  12.912 -0.8894  1.5894 -0.3638
 7022TIP3    H242482   0.381   4.455  12.875 -0.7071  0.3138 -0.8775
 7023TIP3   OH242483   2.625   3.264  15.405 -0.0927 -0.4472 -0.0370
 7023TIP3    H142484   2.592   3.353  15.387  0.1821 -0.4510 -0.5970
 7023TIP3    H242485   2.701   3.278  15.461 -0.1196 -0.3328 -0.0278
 7024TIP3   OH242486   5.989   3.786  11.371  0.1590  0.2006  0.3711
 7024TIP3    H142487   6.033   3.863  11.335  1.8872 -0.3003  1.2761
 7024TIP3    H242488   5.932   3.755  11.300  0.8899  1.1974 -0.6850
 7025TIP3   OH242489   3.810   2.909   3.094 -0.1360 -0.2594  0.3649
 7025TIP3    H142490   3.897   2.889   3.127  0.6905  1.2703 -0.7195
 7025TIP3    H242491   3.755   2.913   3.172  0.6485 -1.6540  1.0353
 7026TIP3   OH242492   6.820   2.792   4.952  0.2000  0.0943  0.6244
 7026TIP3    H142493   6.833   2.698   4.962 -0.9896 -0.0691  0.7000
 7026TIP3    H242494   6.832   2.809   4.858  1.0076 -0.0238  0.6979
 7027TIP3   OH242495   5.233   0.607   1.095 -0.1183  0.6545 -0.2775
 7027TIP3    H142496   5.141   0.605   1.068 -0.0957 -0.2532 -0.3220
 7027TIP3    H242497   5.278   0.650   1.023 -0.2263 -0.7098 -1.1945
 7028TIP3   OH242498   5.283   6.385   4.482 -0.4588  0.2034 -0.2038
 7028TIP3    H142499   5.277   6.414   4.573 -0.5831  1.1069 -0.4921
 7028TIP3    H242500   5.272   6.290   4.486 -0.8678  0.2840  0.6776
 7029TIP3   OH242501   3.265   1.416  11.570  0.0465 -0.1332  0.4560
 7029TIP3    H142502   3.266   1.416  11.474  0.6356 -0.4946  0.4550
 7029TIP3    H242503   3.193   1.474  11.593  0.3849  0.5639 -0.2043
 7030TIP3   OH242504   0.213   5.775   3.359 -0.1492 -0.3589  0.2247
 7030TIP3    H142505   0.119   5.788   3.367 -0.1135  0.2004 -0.1885
 7030TIP3    H242506   0.223   5.689   3.320 -0.5186 -0.0761 -0.5123
 7031TIP3   OH242507   5.130   1.865   2.746  0.3579  0.1867 -0.2221
 7031TIP3    H142508   5.039   1.840   2.729  0.1077  0.4589  0.6746
 7031TIP3    H242509   5.159   1.906   2.664 -0.5840  0.8270 -0.2580
 7032TIP3   OH242510   4.551   1.000  12.342 -0.0067 -0.1418  0.1973
 7032TIP3    H142511   4.493   1.075  12.354 -0.5616 -0.5830  0.2732
 7032TIP3    H242512   4.631   1.038  12.304 -0.0546  0.5676  0.7912
 7033TIP3   OH242513   2.740   1.335  12.247 -0.3633 -0.0770  0.5516
 7033TIP3    H142514   2.751   1.293  12.161  1.8987  0.1668  0.6602
 7033TIP3    H242515   2.665   1.290  12.286  0.2374 -2.0954 -0.4668
 7034TIP3   OH242516   0.377   2.667   2.636 -0.6176 -0.2549 -0.4329
 7034TIP3    H142517   0.318   2.613   2.689 -0.5522 -0.5700 -0.6759
 7034TIP3    H242518   0.452   2.610   2.618 -0.5770 -0.1041 -0.7483
 7035TIP3   OH242519   6.314   5.042  14.623  0.0670 -0.3079 -0.0019
 7035TIP3    H142520   6.247   4.977  14.601  0.3652 -1.2439  1.7061
 7035TIP3    H242521   6.392   5.013  14.576  0.2006 -1.2211  0.7527
 7036TIP3   OH242522   5.409   1.305   0.380  0.2298 -0.2639 -0.0017
 7036TIP3    H142523   5.388   1.385   0.332 -0.8675 -0.0005  0.8605
 7036TIP3    H242524   5.364   1.235   0.332  0.2422 -0.1926 -0.1165
 7037TIP3   OH242525   1.308   1.582   4.508 -0.6245 -0.0733  0.1887
 7037TIP3    H142526   1.265   1.659   4.470  0.5489  0.3795 -0.2548
 7037TIP3    H242527   1.401   1.604   4.509 -0.4183 -0.8781  1.4934
 7038TIP3   OH242528   6.652   2.109   5.928  0.2813  0.1416 -0.0033
 7038TIP3    H142529   6.684   2.155   5.851  0.9907 -0.8126 -0.3031
 7038TIP3    H242530   6.717   2.129   5.996 -1.2967  2.5073  0.9461
 7039TIP3   OH242531   0.939   1.619  11.340  0.5032 -0.4299 -0.1831
 7039TIP3    H142532   0.853   1.584  11.316 -0.6344  2.0514 -0.0371
 7039TIP3    H242533   0.957   1.582  11.426 -0.2186 -1.3303 -0.4109
 7040TIP3   OH242534   3.536   0.151   3.069 -0.1974  0.3797 -0.4398
 7040TIP3    H142535   3.453   0.172   3.026 -0.4790  1.6014  0.6394
 7040TIP3    H242536   3.594   0.223   3.045  0.6070 -0.5015 -1.2464
 7041TIP3   OH242537   5.481   0.313   4.214 -0.0225  0.2345  0.0749
 7041TIP3    H142538   5.412   0.326   4.279 -0.1080  0.3357 -0.0329
 7041TIP3    H242539   5.559   0.353   4.252  0.7747 -2.4428  1.5045
 7042TIP3   OH242540   5.858   2.585   0.033 -0.2404  0.1669  0.3596
 7042TIP3    H142541   5.867   2.659   0.093 -0.2140  0.7478 -0.3508
 7042TIP3    H242542   5.835   2.625  -0.051  0.9566 -0.5436 -0.3249
 7043TIP3   OH242543   1.062   3.347  15.050 -0.1965  0.3186  0.1995
 7043TIP3    H142544   1.037   3.416  15.111 -0.3704 -0.6408  1.2332
 7043TIP3    H242545   0.978   3.309  15.022 -0.0777  0.0999  0.1392
 7044TIP3   OH242546   5.547   0.395  14.141 -0.3293  0.2964 -0.4702
 7044TIP3    H142547   5.635   0.383  14.176 -1.1745 -0.8429  1.4274
 7044TIP3    H242548   5.560   0.405  14.047  1.7997 -0.2136 -0.2862
 7045TIP3   OH242549   2.832   2.560   1.589 -0.1976 -0.2381  0.3183
 7045TIP3    H142550   2.849   2.533   1.679 -0.1425 -0.3480  0.2758
 7045TIP3    H242551   2.884   2.499   1.536 -2.7410 -2.3232  0.0433
 7046TIP3   OH242552   4.900   0.927   0.498 -0.4248  0.4497 -0.2119
 7046TIP3    H142553   4.957   0.994   0.534  0.7503  0.1788 -1.4905
 7046TIP3    H242554   4.886   0.866   0.571  0.3196  0.9138  0.3324
 7047TIP3   OH242555   1.271   5.126  11.959  0.3488  0.3059  0.2559
 7047TIP3    H142556   1.316   5.042  11.957 -0.5271 -0.1593 -0.7520
 7047TIP3    H242557   1.194   5.114  11.904 -0.2456  1.5169  0.7690
 7048TIP3   OH242558   1.951   1.611   4.298 -0.4846  0.5841  0.6290
 7048TIP3    H142559   1.927   1.673   4.366  0.3477  0.8019  0.7374
 7048TIP3    H242560   2.017   1.554   4.338 -0.0908  0.6230  0.0586
 7049TIP3   OH242561   5.755   2.736   2.960 -0.0582  0.3254  0.9512
 7049TIP3    H142562   5.840   2.708   2.994 -0.3108  0.0439  1.3731
 7049TIP3    H242563   5.730   2.668   2.897 -0.5418 -0.2772  1.7668
 7050TIP3   OH242564   4.583   3.019  15.498  0.2125 -0.0346  0.4221
 7050TIP3    H142565   4.501   3.023  15.450  0.8571  1.5738 -0.6372
 7050TIP3    H242566   4.635   3.091  15.463  2.8471 -2.1515 -0.3859
 7051TIP3   OH242567   0.042   4.364  16.827  0.3763 -0.3507 -0.3638
 7051TIP3    H142568  -0.045   4.381  16.863  0.8494  1.1119  0.1900
 7051TIP3    H242569   0.102   4.411  16.886  1.5562 -1.3981 -0.6731
 7052TIP3   OH242570   3.165   0.376  16.086  0.3422  0.3429 -0.4662
 7052TIP3    H142571   3.207   0.347  16.167  0.6947 -0.7902 -1.0371
 7052TIP3    H242572   3.228   0.355  16.018 -0.1155  0.9270 -1.0763
 7053TIP3   OH242573   4.822   1.064   0.231  0.0927 -0.0367 -0.7366
 7053TIP3    H142574   4.751   1.011   0.266  0.7914  0.3672  1.4431
 7053TIP3    H242575   4.825   1.141   0.288  2.0655  0.1025 -0.9472
 7054TIP3   OH242576   1.295   6.605   5.038 -0.0154  0.3937  0.6911
 7054TIP3    H142577   1.313   6.615   5.132  0.2947  1.0772  0.5663
 7054TIP3    H242578   1.324   6.516   5.018 -0.1262  0.2239  1.2503
 7055TIP3   OH242579   6.442   4.202   6.272 -0.5574 -0.0457 -0.1765
 7055TIP3    H142580   6.404   4.275   6.320 -0.5996 -0.3118  0.2046
 7055TIP3    H242581   6.366   4.148   6.248 -0.4394 -0.4894  0.4355
 7056TIP3   OH242582   0.307   4.729   4.586  0.1131  0.1355  0.0527
 7056TIP3    H142583   0.229   4.707   4.637  0.6759 -2.3431 -0.0160
 7056TIP3    H242584   0.378   4.681   4.628  1.4639  1.5969 -0.4448
 7057TIP3   OH242585   2.496   1.148   0.824 -0.1082  0.0402 -0.1711
 7057TIP3    H142586   2.491   1.197   0.742 -1.1539 -1.0828 -0.8264
 7057TIP3    H242587   2.541   1.206   0.885 -0.1644  1.2756 -1.2697
 7058TIP3   OH242588   4.490   1.599   3.869 -0.4152 -0.0065  0.2445
 7058TIP3    H142589   4.407   1.618   3.914 -0.6008  3.9483 -1.3626
 7058TIP3    H242590   4.556   1.601   3.938 -1.2733  0.4110  1.0803
 7059TIP3   OH242591   5.054   0.534   3.694  0.7085  0.6418  0.0570
 7059TIP3    H142592   5.138   0.496   3.722  1.1341  1.1244 -0.5321
 7059TIP3    H242593   5.029   0.481   3.618  0.8249  0.9367 -0.1863
 7060TIP3   OH242594   5.883   4.762  16.256 -0.3393  0.6024 -0.2303
 7060TIP3    H142595   5.823   4.713  16.312  0.7810 -0.1783  0.3129
 7060TIP3    H242596   5.850   4.748  16.167  0.3730 -1.8007 -0.1732
 7061TIP3   OH242597   3.950   1.399   4.669  0.2468  0.6549  0.0091
 7061TIP3    H142598   3.978   1.475   4.720 -0.0045  0.6262  0.1938
 7061TIP3    H242599   4.031   1.351   4.650  0.3448  0.6668  0.3817
 7062TIP3   OH242600   4.657   0.456   0.661  0.1986  0.3517 -0.1353
 7062TIP3    H142601   4.609   0.482   0.582 -1.5149 -0.8033  0.4629
 7062TIP3    H242602   4.733   0.408   0.628 -0.4241 -0.0104 -1.0958
 7063TIP3   OH242603   4.309   4.628   3.148  0.2100 -0.5109 -0.7143
 7063TIP3    H142604   4.357   4.565   3.095 -0.1943 -0.8965 -0.6400
 7063TIP3    H242605   4.374   4.693   3.174  0.4418 -0.4118 -1.5324
 7064TIP3   OH242606   6.121   2.669  13.686 -0.0526  0.6335 -0.4131
 7064TIP3    H142607   6.063   2.697  13.615 -0.6359 -2.5159 -1.3439
 7064TIP3    H242608   6.178   2.604  13.646  0.7639  0.0038  1.6378
 7065TIP3   OH242609   1.101   5.777   4.478 -0.1041  0.2095  0.0763
 7065TIP3    H142610   1.165   5.765   4.408  0.0174  2.5848 -0.3179
 7065TIP3    H242611   1.123   5.710   4.543  1.7994 -0.0119 -0.7405
 7066TIP3   OH242612   2.877   5.981   2.852 -0.0709  0.4708 -0.4112
 7066TIP3    H142613   2.783   5.958   2.852 -0.0551  0.4029 -0.8955
 7066TIP3    H242614   2.896   6.005   2.761  0.7151 -0.9252 -0.6496
 7067TIP3   OH242615   4.198   5.114   5.778  0.1163  0.1285 -0.0451
 7067TIP3    H142616   4.237   5.186   5.827  1.9316  0.6096 -2.0667
 7067TIP3    H242617   4.266   5.086   5.717 -1.3829 -1.6908 -1.0060
 7068TIP3   OH242618   2.656   5.733  13.200  0.1638 -0.3428 -0.0821
 7068TIP3    H142619   2.680   5.816  13.242  1.0407 -1.1599  1.0687
 7068TIP3    H242620   2.560   5.737  13.195  0.1249  0.3310  0.8398
 7069TIP3   OH242621   2.055   2.341  16.403 -0.1535  0.1292  0.5176
 7069TIP3    H142622   2.041   2.389  16.321 -0.1998  0.5811  0.7854
 7069TIP3    H242623   2.118   2.273  16.380 -0.8983 -0.3612 -0.1172
 7070TIP3   OH242624   3.086   3.303   2.164  0.2037 -0.1345  0.4897
 7070TIP3    H142625   3.060   3.215   2.136 -0.9521  0.0843  0.8043
 7070TIP3    H242626   3.041   3.316   2.247  1.4511  0.2483  1.1303
 7071TIP3   OH242627   2.918   2.601   2.617  0.1089 -0.1732  0.3797
 7071TIP3    H142628   2.822   2.601   2.620  0.0387  1.5170 -0.6693
 7071TIP3    H242629   2.942   2.692   2.631  1.5503 -0.4522 -0.1444
 7072TIP3   OH242630   5.511   4.373  16.834  0.6977 -0.3321 -0.3397
 7072TIP3    H142631   5.508   4.335  16.922  1.3624 -0.3293 -0.3109
 7072TIP3    H242632   5.591   4.424  16.833  2.2886 -2.6772 -1.8891
 7073TIP3   OH242633   1.539   3.549   5.577 -0.5033  0.6082 -0.3753
 7073TIP3    H142634   1.459   3.502   5.603  1.0993 -2.7422 -1.0512
 7073TIP3    H242635   1.588   3.560   5.658  0.1303 -1.0409 -0.5079
 7074TIP3   OH242636   3.320   6.594  11.978  0.1769  0.6878  0.1751
 7074TIP3    H142637   3.385   6.641  11.926 -1.2780  1.2641 -1.2027
 7074TIP3    H242638   3.363   6.580  12.063  2.1532  0.8409 -0.7423
 7075TIP3   OH242639   0.747   6.120  13.664 -0.2091 -0.3039  0.0746
 7075TIP3    H142640   0.814   6.118  13.732  1.2149 -2.3156 -1.2538
 7075TIP3    H242641   0.706   6.206  13.673  0.4724 -0.1836  2.8823
 7076TIP3   OH242642   3.843   5.059  16.354  0.0353  0.0779  0.4732
 7076TIP3    H142643   3.867   5.090  16.267 -2.6220  0.0094 -0.3920
 7076TIP3    H242644   3.834   5.139  16.406 -0.7594  0.3219 -0.0229
 7077TIP3   OH242645   2.498   0.727   9.868 -0.1307 -0.0522  0.1369
 7077TIP3    H142646   2.413   0.771   9.870 -0.3709 -0.3793 -1.5143
 7077TIP3    H242647   2.563   0.797   9.867 -0.4931  0.3042 -1.8400
 7078TIP3   OH242648   4.246   0.295   3.157  0.2794  0.1285  0.2219
 7078TIP3    H142649   4.173   0.266   3.212 -0.2563 -1.3702 -1.1903
 7078TIP3    H242650   4.297   0.215   3.140  0.2301  0.4585 -1.6892
 7079TIP3   OH242651   5.523   1.823   1.876  0.0996  0.0551 -0.0245
 7079TIP3    H142652   5.428   1.807   1.877 -0.1072  1.1984  0.0523
 7079TIP3    H242653   5.555   1.770   1.803 -0.4501 -1.1060  0.5605
 7080TIP3   OH242654   3.501   0.386   3.865  0.1908  0.0371  0.1423
 7080TIP3    H142655   3.407   0.379   3.876  0.1290  0.3491 -0.1569
 7080TIP3    H242656   3.530   0.298   3.843 -0.2310  0.2269 -1.2248
 7081TIP3   OH242657   4.584   1.160   2.459 -0.3269  0.0107 -0.6579
 7081TIP3    H142658   4.534   1.222   2.513 -0.9303 -0.6255 -0.4743
 7081TIP3    H242659   4.632   1.216   2.398 -0.4514  0.6891 -0.1522
 7082TIP3   OH242660   6.089   0.768   5.786 -0.0876 -0.4927  0.0108
 7082TIP3    H142661   6.157   0.704   5.805  0.9660  1.0478  1.8244
 7082TIP3    H242662   6.114   0.845   5.838 -1.5214  1.2287 -1.7219
 7083TIP3   OH242663   4.655   0.644   0.047 -0.0009  0.2653  0.3199
 7083TIP3    H142664   4.728   0.642   0.109  1.5780  0.8194 -1.4533
 7083TIP3    H242665   4.695   0.640  -0.039 -1.7535  4.0175 -0.9227
 7084TIP3   OH242666   3.834   1.195  13.727 -0.1469 -0.3259  0.0658
 7084TIP3    H142667   3.862   1.134  13.796 -1.6098 -0.5997  0.4583
 7084TIP3    H242668   3.902   1.188  13.660  1.3136 -0.0788  1.4439
 7085TIP3   OH242669   6.113   6.432  14.148  0.1896 -0.0130 -0.5894
 7085TIP3    H142670   6.148   6.366  14.087  0.6246 -1.5789  1.2475
 7085TIP3    H242671   6.142   6.402  14.234 -1.2652  1.5590  0.5018
 7086TIP3   OH242672   6.333   6.645  15.501  0.5865 -0.2160 -0.4909
 7086TIP3    H142673   6.296   6.567  15.542 -1.2805 -0.6999 -2.8682
 7086TIP3    H242674   6.332   6.626  15.407 -1.2565  3.0906 -1.3213
 7087TIP3   OH242675   5.961   4.201   0.030 -0.3309 -0.3193  0.6264
 7087TIP3    H142676   5.966   4.285  -0.015 -2.4525 -0.6929 -0.4332
 7087TIP3    H242677   5.874   4.167   0.009 -0.1268 -2.0847  2.2852
 7088TIP3   OH242678   4.488   5.675  16.698  0.2174 -0.2640 -0.7023
 7088TIP3    H142679   4.458   5.759  16.734 -0.8475 -0.5065 -0.9967
 7088TIP3    H242680   4.523   5.697  16.612  0.5815 -0.0299 -0.5004
 7089TIP3   OH242681   0.116   2.554  12.736  0.1212  0.1889  0.5515
 7089TIP3    H142682   0.201   2.592  12.714  1.2861 -2.4728  0.0102
 7089TIP3    H242683   0.129   2.516  12.823  0.1314 -1.7371 -0.2282
 7090TIP3   OH242684   4.112   2.739  13.383 -0.2344  0.3716 -0.3318
 7090TIP3    H142685   4.143   2.759  13.295  0.3650  1.3890  0.0986
 7090TIP3    H242686   4.186   2.760  13.440 -0.0636 -1.7104  0.3077
 7091TIP3   OH242687   6.124   3.493   2.888  0.2522  0.1966  0.3651
 7091TIP3    H142688   6.218   3.479   2.892 -0.0058 -2.5977 -0.8332
 7091TIP3    H242689   6.090   3.453   2.968 -0.0108 -0.1322  0.0949
 7092TIP3   OH242690   0.536   2.613   3.785 -0.6344 -0.0527 -0.3295
 7092TIP3    H142691   0.445   2.632   3.762 -1.0361  0.7507  1.7249
 7092TIP3    H242692   0.568   2.694   3.824  0.5776 -0.7313  0.1142
 7093TIP3   OH242693   6.134   1.998  15.109 -0.3566 -0.2721  0.7515
 7093TIP3    H142694   6.198   2.068  15.101 -1.2249  0.3428 -2.4067
 7093TIP3    H242695   6.076   2.026  15.180  0.8265  0.8608  1.3012
 7094TIP3   OH242696   3.330   3.742   2.262  0.2219 -0.5260 -0.0677
 7094TIP3    H142697   3.239   3.758   2.289  0.1160  0.5168 -0.9812
 7094TIP3    H242698   3.368   3.694   2.336 -0.8769 -0.3653  0.6352
 7095TIP3   OH242699   6.074   3.235  12.713 -0.3320  0.3097  0.4252
 7095TIP3    H142700   6.010   3.169  12.685 -0.1428  0.5596 -0.6335
 7095TIP3    H242701   6.150   3.184  12.741  0.0672  0.0613 -1.0122
 7096TIP3   OH242702   0.456   1.507  12.727  0.2643 -0.1854 -0.2584
 7096TIP3    H142703   0.535   1.488  12.676  0.8655  1.2494  0.0800
 7096TIP3    H242704   0.471   1.461  12.810  0.7921  0.1555 -0.1607
 7097TIP3   OH242705   6.081   1.184  10.916  0.0454  0.0932 -0.0336
 7097TIP3    H142706   6.163   1.176  10.866 -0.1052  1.2268 -0.5128
 7097TIP3    H242707   6.036   1.258  10.875 -0.6931  0.2162  0.9651
 7098TIP3   OH242708   1.026   4.893  10.862 -0.1505 -0.1643 -0.0464
 7098TIP3    H142709   0.958   4.859  10.804 -0.2040 -1.5488  0.7892
 7098TIP3    H242710   0.980   4.953  10.921 -0.2814  0.4089 -0.7128
 7099TIP3   OH242711   3.019   4.552   1.658  0.3306  0.2246 -0.0169
 7099TIP3    H142712   3.049   4.641   1.675  0.7210  0.1895 -0.5119
 7099TIP3    H242713   3.098   4.499   1.665 -0.1034 -0.2781  1.5892
 7100TIP3   OH242714   1.565   2.747   5.491 -0.0994  0.1112  0.7084
 7100TIP3    H142715   1.626   2.820   5.502 -0.8808  0.8269  0.3975
 7100TIP3    H242716   1.498   2.781   5.432 -0.5226 -0.8376  0.6355
 7101TIP3   OH242717   0.028   0.014  13.229 -0.3716  0.4477  0.1869
 7101TIP3    H142718  -0.055  -0.023  13.200 -0.2213  0.0521  0.2616
 7101TIP3    H242719   0.094  -0.041  13.188 -0.1055  1.9191 -1.4461
 7102TIP3   OH242720   1.825   4.999  10.245 -0.1688  0.3009 -0.5577
 7102TIP3    H142721   1.801   5.064  10.312  1.5265 -0.2802  0.6832
 7102TIP3    H242722   1.864   5.051  10.175  0.4342  0.7256  0.0750
 7103TIP3   OH242723   4.858   4.249  14.909  0.1902  0.4274 -0.1865
 7103TIP3    H142724   4.867   4.220  15.000 -0.1553 -1.4027 -0.7021
 7103TIP3    H242725   4.836   4.342  14.916 -0.2633  0.2291  1.6168
 7104TIP3   OH242726   6.354   4.669  11.140 -0.1260 -0.6187  0.0766
 7104TIP3    H142727   6.334   4.741  11.199 -0.2547 -2.4802  2.4606
 7104TIP3    H242728   6.442   4.640  11.165  0.4382 -0.5349 -1.6831
 7105TIP3   OH242729   3.313   3.526   3.897 -0.0188  0.3647  0.5312
 7105TIP3    H142730   3.302   3.563   3.984 -0.5583 -0.0782  0.6599
 7105TIP3    H242731   3.373   3.452   3.910  2.5798  2.2417 -0.0252
 7106TIP3   OH242732   5.010   0.193  13.553 -0.7355  0.1913 -0.3487
 7106TIP3    H142733   4.987   0.268  13.608  1.1784  1.1627 -0.7963
 7106TIP3    H242734   5.034   0.124  13.616  0.8274  1.0902  0.0880
 7107TIP3   OH242735   6.569   1.762   3.323 -0.0382  0.5637  0.3640
 7107TIP3    H142736   6.594   1.804   3.406  0.3194 -1.6784  1.4484
 7107TIP3    H242737   6.640   1.700   3.305 -1.6444 -1.2419  0.0424
 7108TIP3   OH242738   5.082   6.592   1.639  0.2017  0.0153 -0.3198
 7108TIP3    H142739   5.091   6.610   1.545  0.7396 -0.1343 -0.2989
 7108TIP3    H242740   5.007   6.532   1.644 -0.4693  0.8057 -0.5529
 7109TIP3   OH242741   0.263   4.834  11.125  0.3444 -0.0445 -0.3143
 7109TIP3    H142742   0.263   4.858  11.218  0.2922 -0.0616 -0.3092
 7109TIP3    H242743   0.292   4.913  11.080 -0.1874  0.1474 -0.3284
 7110TIP3   OH242744   3.508   6.616   1.031 -0.2497 -0.4046  0.4971
 7110TIP3    H142745   3.425   6.592   0.989 -0.4248 -0.4508  0.8603
 7110TIP3    H242746   3.484   6.687   1.091 -0.1200 -0.7857  0.9968
 7111TIP3   OH242747   0.281   4.291   2.467  0.3576  0.4202 -0.0519
 7111TIP3    H142748   0.326   4.221   2.515  0.3815  0.8487  0.5552
 7111TIP3    H242749   0.338   4.367   2.475 -0.5580  1.0335  0.9152
 7112TIP3   OH242750   6.036   1.917  10.573  0.0439  0.2925 -0.0062
 7112TIP3    H142751   6.023   1.833  10.618 -0.9575 -0.1125 -0.9763
 7112TIP3    H242752   6.074   1.892  10.488 -0.4433  0.7870 -0.3781
 7113TIP3   OH242753   3.410   5.746  12.968 -0.5597  0.4987 -0.0525
 7113TIP3    H142754   3.448   5.695  13.039 -1.2646 -0.2060 -0.1704
 7113TIP3    H242755   3.433   5.697  12.889  0.9727  1.7234 -0.4313
 7114TIP3   OH242756   1.365   1.527  14.146  0.0126 -0.0380  0.1861
 7114TIP3    H142757   1.283   1.531  14.196  0.6853  0.0986  1.3130
 7114TIP3    H242758   1.361   1.602  14.087 -1.4627 -1.0300 -1.0704
 7115TIP3   OH242759   1.237   4.152  15.760 -0.5813  0.5951 -0.7303
 7115TIP3    H142760   1.188   4.208  15.699 -1.9659 -1.4637 -1.6443
 7115TIP3    H242761   1.179   4.142  15.835 -1.0486 -0.8015 -1.2466
 7116TIP3   OH242762   6.703   1.682  10.685  0.0522  0.4043 -0.8321
 7116TIP3    H142763   6.772   1.620  10.709 -0.0094  0.5859 -0.1916
 7116TIP3    H242764   6.621   1.637  10.707 -0.0619  0.0113 -1.9955
 7117TIP3   OH242765   4.841   3.343   2.184  0.0587  0.1210 -0.3538
 7117TIP3    H142766   4.880   3.369   2.100 -0.7594  1.8604 -0.2356
 7117TIP3    H242767   4.896   3.270   2.214  0.2003 -0.7297 -2.5056
 7118TIP3   OH242768   3.785   0.156   4.726  0.2195 -0.5794 -0.4663
 7118TIP3    H142769   3.735   0.075   4.714 -1.3371  0.3809 -0.6371
 7118TIP3    H242770   3.774   0.176   4.819  0.6535 -0.5841 -0.4123
 7119TIP3   OH242771   1.452   0.772  14.497 -0.1480 -0.0080  0.1254
 7119TIP3    H142772   1.442   0.689  14.450 -0.3365 -0.2038  0.5089
 7119TIP3    H242773   1.367   0.786  14.539  0.0446  0.1277  0.4713
 7120TIP3   OH242774   6.597   1.758  13.524 -0.4573 -0.0432 -0.3622
 7120TIP3    H142775   6.518   1.786  13.479 -0.9876 -3.4220 -1.8664
 7120TIP3    H242776   6.668   1.782  13.464 -0.8432 -1.3327 -1.3749
 7121TIP3   OH242777   4.869   4.093   2.550 -0.0852  0.0382 -0.0467
 7121TIP3    H142778   4.879   4.001   2.527  0.8535  0.2027 -0.3238
 7121TIP3    H242779   4.891   4.141   2.469 -2.3301  0.4772 -0.4667
 7122TIP3   OH242780   1.956   6.330  17.017 -0.1347  0.4198 -0.0237
 7122TIP3    H142781   2.036   6.277  17.020 -0.2014  0.2704 -0.8169
 7122TIP3    H242782   1.885   6.268  17.036  0.0163  0.7967  2.0747
 7123TIP3   OH242783   5.009   0.130   2.811  0.1488 -0.1683 -0.1882
 7123TIP3    H142784   4.944   0.184   2.766  0.2191 -0.9159 -1.2458
 7123TIP3    H242785   4.960   0.052   2.839  0.4193 -0.3872 -0.3121
 7124TIP3   OH242786   2.481   5.942   2.653  0.5728 -0.1475 -0.1065
 7124TIP3    H142787   2.467   6.015   2.713 -1.0818 -0.7065  0.2383
 7124TIP3    H242788   2.517   5.872   2.707 -1.0160 -0.6861  0.3078
 7125TIP3   OH242789   6.758   4.593  12.794 -0.9522  0.6232  0.2145
 7125TIP3    H142790   6.731   4.514  12.841 -0.7525 -0.2655 -1.1080
 7125TIP3    H242791   6.794   4.650  12.862 -0.0672 -0.8693  1.0597
 7126TIP3   OH242792   1.724   5.573   3.920 -0.2537  0.3085 -0.0049
 7126TIP3    H142793   1.639   5.594   3.882 -0.6920 -2.3269 -0.7239
 7126TIP3    H242794   1.704   5.537   4.006  0.0962 -0.3673 -0.1934
 7127TIP3   OH242795   6.486   5.164  16.782 -0.3068  0.1546  0.1391
 7127TIP3    H142796   6.514   5.103  16.714 -1.2683 -0.8751  0.6277
 7127TIP3    H242797   6.513   5.250  16.751 -1.5972 -0.1608 -2.0228
 7128TIP3   OH242798   2.269   0.466  14.240 -0.3082  0.1935 -0.7163
 7128TIP3    H142799   2.235   0.456  14.152 -0.4303  1.3631 -0.8169
 7128TIP3    H242800   2.219   0.539  14.278  1.6815  1.6499 -0.7014
 7129TIP3   OH242801   2.616   2.178   4.633  0.0802  0.9730  0.4176
 7129TIP3    H142802   2.527   2.146   4.617 -0.3002 -0.3134  4.1426
 7129TIP3    H242803   2.613   2.271   4.611 -2.3994  1.1011  1.0104
 7130TIP3   OH242804   6.405   0.245   0.035 -0.6560  0.1972  0.2061
 7130TIP3    H142805   6.371   0.155   0.026  1.0672 -0.4111 -0.6836
 7130TIP3    H242806   6.497   0.233   0.058 -0.3774  1.7587 -0.0238
 7131TIP3   OH242807   3.526   6.101   0.748  0.3722  0.0274  0.3789
 7131TIP3    H142808   3.565   6.084   0.834 -1.2534 -2.9013  0.6824
 7131TIP3    H242809   3.525   6.015   0.705  1.6714  1.4798 -2.8878
 7132TIP3   OH242810   5.450   4.194  13.625 -0.0326 -0.1228  0.5460
 7132TIP3    H142811   5.415   4.180  13.537 -0.2137  0.0232  0.5957
 7132TIP3    H242812   5.534   4.147  13.625 -0.6481 -1.2406  0.7242
 7133TIP3   OH242813   6.609   3.629   5.405  0.4322  0.0970  0.3827
 7133TIP3    H142814   6.634   3.718   5.380  3.1908 -0.1985  1.6319
 7133TIP3    H242815   6.633   3.575   5.330  2.6437 -0.0143  1.0954
 7134TIP3   OH242816   0.752   2.965   5.535 -0.1676  0.0420  0.2857
 7134TIP3    H142817   0.838   2.945   5.499 -0.2636  0.5342 -0.2378
 7134TIP3    H242818   0.767   3.036   5.598 -0.3593  1.0484 -0.7792
 7135TIP3   OH242819   3.379   4.625   0.312 -0.6369  0.1934 -0.5494
 7135TIP3    H142820   3.346   4.568   0.243  0.0381 -0.0283 -0.7001
 7135TIP3    H242821   3.374   4.571   0.391  0.8487 -0.4262 -0.8407
 7136TIP3   OH242822   4.787   6.671  12.160  0.1457  0.1308  0.2934
 7136TIP3    H142823   4.854   6.651  12.094 -0.0828 -2.1579  0.6628
 7136TIP3    H242824   4.706   6.677  12.110  0.2008 -0.0096  0.1868
 7137TIP3   OH242825   6.373   4.426   4.807 -0.0101 -0.0344  0.7362
 7137TIP3    H142826   6.329   4.349   4.772  2.2253 -1.2919  0.5321
 7137TIP3    H242827   6.427   4.393   4.879  1.5112  1.2052  0.2159
 7138TIP3   OH242828   2.345   1.394  14.592 -0.0730 -0.3988  0.1909
 7138TIP3    H142829   2.431   1.365  14.563  1.9540  3.5337  1.5923
 7138TIP3    H242830   2.327   1.343  14.671  2.7483  1.0398  1.9043
 7139TIP3   OH242831   1.936   2.365   4.472  0.6208 -0.3642  0.4427
 7139TIP3    H142832   1.878   2.426   4.517  0.8666 -0.0381  0.3129
 7139TIP3    H242833   1.877   2.310   4.420  0.4334 -0.0144  0.2856
 7140TIP3   OH242834   1.515   3.929  15.402  0.2346 -0.4793 -0.2491
 7140TIP3    H142835   1.473   4.013  15.419  0.4755 -0.8516  2.6158
 7140TIP3    H242836   1.488   3.872  15.475  0.9403 -2.5727 -1.5189
 7141TIP3   OH242837   2.723   2.878  14.322 -0.5516 -0.1980  0.4391
 7141TIP3    H142838   2.686   2.956  14.280 -0.6349 -0.1100  0.6736
 7141TIP3    H242839   2.743   2.906  14.411  0.2575 -0.1965  0.2628
 7142TIP3   OH242840   0.448   6.417   3.039 -0.4492  0.6110 -0.5429
 7142TIP3    H142841   0.471   6.325   3.029 -0.9772  0.5595 -1.3752
 7142TIP3    H242842   0.528   6.459   3.071 -0.1203 -0.0820 -0.4451
 7143TIP3   OH242843   3.201   5.981  10.935 -0.2382 -0.5402  0.4262
 7143TIP3    H142844   3.235   5.896  10.964  0.9978 -0.9378 -1.9591
 7143TIP3    H242845   3.129   5.959  10.876 -1.2943  0.1726  1.4174
 7144TIP3   OH242846   1.788   0.959  12.158 -0.6566  0.3883 -0.1182
 7144TIP3    H142847   1.775   0.982  12.065 -0.6214  1.7379  0.1835
 7144TIP3    H242848   1.883   0.957  12.169 -0.4764 -3.3458 -0.8828
 7145TIP3   OH242849   0.065   5.992   0.579 -0.3221 -0.2246 -0.2641
 7145TIP3    H142850   0.040   6.083   0.593 -1.1876 -0.2444 -1.5898
 7145TIP3    H242851   0.139   5.996   0.518  1.0632 -0.3327  1.3215
 7146TIP3   OH242852   5.117   1.698  11.597 -0.2030 -0.4357  0.1871
 7146TIP3    H142853   5.140   1.761  11.665  0.0921 -2.0995  1.7095
 7146TIP3    H242854   5.119   1.613  11.642  0.2007 -1.6202 -1.9581
 7147TIP3   OH242855   0.432   4.684   1.440  0.2939  0.6161 -0.6823
 7147TIP3    H142856   0.428   4.765   1.490  1.4569  0.0196  0.4488
 7147TIP3    H242857   0.381   4.701   1.362  1.2212  2.7361 -0.8907
 7148TIP3   OH242858   5.153   4.588  13.622 -0.1893 -0.2518  0.9562
 7148TIP3    H142859   5.226   4.528  13.639  0.4199 -0.3161 -1.4462
 7148TIP3    H242860   5.078   4.547  13.664  0.6966 -1.4126  1.4849
 7149TIP3   OH242861   5.853   1.737   2.933 -0.5492  0.3591 -0.0277
 7149TIP3    H142862   5.904   1.816   2.951 -1.3571  0.4825  1.9491
 7149TIP3    H242863   5.877   1.713   2.843  4.4907 -0.7216  1.3083
 7150TIP3   OH242864   2.371   3.894   1.915 -0.0989  0.1627  0.4402
 7150TIP3    H142865   2.277   3.913   1.916 -0.1689 -0.1454 -0.0366
 7150TIP3    H242866   2.384   3.842   1.836  0.7669  1.7450 -0.5098
 7151TIP3   OH242867   3.833   6.512  10.451 -0.6042  0.8252  0.1714
 7151TIP3    H142868   3.813   6.565  10.374 -1.5260  0.5299  0.1923
 7151TIP3    H242869   3.777   6.548  10.520 -0.9914  0.0436  0.2696
 7152TIP3   OH242870   6.575   0.450   2.784  0.0009  0.2473 -0.6050
 7152TIP3    H142871   6.593   0.455   2.878 -0.3860 -0.0809 -0.5114
 7152TIP3    H242872   6.596   0.360   2.759 -1.4310 -0.1523 -0.4943
 7153TIP3   OH242873   5.913   4.355   0.460  0.2184  0.5316 -0.0064
 7153TIP3    H142874   5.830   4.315   0.487  1.5070 -0.7250  2.4093
 7153TIP3    H242875   5.896   4.450   0.461 -0.6621  0.4095  2.5761
 7154TIP3   OH242876   4.499   4.470  13.772 -0.1461  0.2850 -0.4791
 7154TIP3    H142877   4.533   4.423  13.848 -1.5206 -0.3259 -0.2152
 7154TIP3    H242878   4.569   4.532  13.749  0.5331  0.0708  0.9056
 7155TIP3   OH242879   5.853   6.679  14.855  0.3989 -0.2571 -0.3931
 7155TIP3    H142880   5.948   6.689  14.862  0.3758 -0.5801  0.5472
 7155TIP3    H242881   5.841   6.588  14.826  0.3616 -0.5180  0.4149
 7156TIP3   OH242882   3.915   5.422   0.546  0.3657 -0.3638 -0.4408
 7156TIP3    H142883   3.978   5.402   0.616  0.1680  0.3650 -0.0487
 7156TIP3    H242884   3.968   5.464   0.478  0.2651  0.5536  0.0278
 7157TIP3   OH242885   0.231   1.147   4.978  0.2627  0.1900  0.4389
 7157TIP3    H142886   0.193   1.222   5.022  0.4816  0.2837  0.4731
 7157TIP3    H242887   0.202   1.153   4.887 -1.1996 -0.6776  0.8229
 7158TIP3   OH242888   6.712   6.538  11.436  0.2753 -0.6722  0.2448
 7158TIP3    H142889   6.654   6.462  11.430 -1.3549  0.5901 -1.0908
 7158TIP3    H242890   6.800   6.502  11.422 -0.5198 -2.2214 -1.2429
 7159TIP3   OH242891   2.227   2.041  12.568  0.2625 -0.2723  0.5054
 7159TIP3    H142892   2.183   1.983  12.630 -0.3988  0.2931  0.5670
 7159TIP3    H242893   2.290   2.090  12.621  0.0650 -0.1654  0.6425
 7160TIP3   OH242894   4.100   5.750  15.837  0.0515 -0.2145  0.3652
 7160TIP3    H142895   4.119   5.657  15.823  0.4983 -0.0613 -0.0527
 7160TIP3    H242896   4.093   5.787  15.750 -1.0789 -0.0312  0.5142
 7161TIP3   OH242897   1.304   3.366   2.697  0.2524 -0.1106 -0.0891
 7161TIP3    H142898   1.294   3.292   2.757  2.7199 -0.6414 -0.2229
 7161TIP3    H242899   1.340   3.436   2.751  2.5207 -0.6010 -0.8518
 7162TIP3   OH242900   4.345   6.761  12.941 -0.0340 -0.3123  0.2129
 7162TIP3    H142901   4.349   6.698  12.870 -0.1078 -0.1799  0.0898
 7162TIP3    H242902   4.300   6.715  13.012 -0.8549 -0.1267 -0.1685
 7163TIP3   OH242903   0.775   1.697  15.210  0.1434 -0.3986 -0.3989
 7163TIP3    H142904   0.772   1.727  15.120 -0.9287 -1.9680 -0.9347
 7163TIP3    H242905   0.824   1.615  15.207  0.5895 -0.1808  0.5455
 7164TIP3   OH242906   6.110   2.007  12.450 -0.3830 -0.4714  0.3016
 7164TIP3    H142907   6.088   2.072  12.383 -1.1921 -0.7470  0.2844
 7164TIP3    H242908   6.177   1.952  12.410  2.7456  2.2184  1.4039
 7165TIP3   OH242909   0.340   2.760  11.223  0.0164 -0.0492  0.2610
 7165TIP3    H142910   0.347   2.705  11.144 -0.7788  1.8978 -1.2316
 7165TIP3    H242911   0.429   2.760  11.259 -0.0595 -2.7477  0.6863
 7166TIP3   OH242912   4.075   2.272   2.929  0.0048  0.1934 -0.0256
 7166TIP3    H142913   4.112   2.352   2.890 -0.8211  0.3889 -0.4246
 7166TIP3    H242914   4.015   2.239   2.863  1.2288 -1.4556 -0.3745
 7167TIP3   OH242915   4.806   1.962  16.091  0.5490  0.2877  0.2141
 7167TIP3    H142916   4.751   1.926  16.160 -0.3022  0.9748 -0.0929
 7167TIP3    H242917   4.759   2.040  16.061  0.7464 -0.1850 -1.3639
 7168TIP3   OH242918   6.303   0.436  10.677 -0.1648  0.1982 -0.0336
 7168TIP3    H142919   6.352   0.484  10.743 -0.8476 -1.9309  2.1715
 7168TIP3    H242920   6.367   0.419  10.608  2.0572 -1.5072  2.2256
 7169TIP3   OH242921   0.980   6.382   3.448  0.8242 -0.2895  0.8610
 7169TIP3    H142922   0.996   6.477   3.448 -0.1389 -0.1158  1.9377
 7169TIP3    H242923   1.065   6.344   3.428  1.0819  0.8187 -0.2890
 7170TIP3   OH242924   5.666   1.097  14.498 -0.3853  0.3378  0.3970
 7170TIP3    H142925   5.633   1.046  14.572 -1.0892 -0.5351 -0.5010
 7170TIP3    H242926   5.695   1.180  14.538  2.3266 -1.2882  2.1703
 7171TIP3   OH242927   4.303   4.632   4.965  0.0129  0.4055 -0.2456
 7171TIP3    H142928   4.306   4.725   4.942  1.2216  0.0753 -1.5796
 7171TIP3    H242929   4.212   4.615   4.987 -0.7411  1.3744 -2.3629
 7172TIP3   OH242930   2.533   6.531   3.123  0.4198  0.0266  0.3037
 7172TIP3    H142931   2.505   6.526   3.214 -1.0586  1.3390 -0.0361
 7172TIP3    H242932   2.457   6.566   3.076  1.4161  0.1538 -1.2977
 7173TIP3   OH242933   6.775   1.720   1.180 -0.2841  0.0540  0.1378
 7173TIP3    H142934   6.709   1.670   1.228 -1.4321 -1.3854 -2.6770
 7173TIP3    H242935   6.856   1.669   1.191 -0.9279 -1.2523 -0.7899
 7174TIP3   OH242936   2.528   2.280   1.722 -0.3201  0.2025 -0.1147
 7174TIP3    H142937   2.494   2.359   1.764  1.1359  0.5360  0.5019
 7174TIP3    H242938   2.464   2.212   1.742 -1.9084  1.3164 -1.1524
 7175TIP3   OH242939   5.358   5.021   0.522  0.1925 -0.2097  0.1185
 7175TIP3    H142940   5.267   4.995   0.505  0.4907 -2.5514  1.6199
 7175TIP3    H242941   5.410   4.952   0.480  1.2662  0.6980 -0.0767
 7176TIP3   OH242942   4.050   0.272  12.697 -0.0932 -0.5735  0.3940
 7176TIP3    H142943   4.097   0.280  12.780  0.5892 -0.4597  0.0130
 7176TIP3    H242944   4.051   0.179  12.677 -0.7122 -0.6618  0.7628
 7177TIP3   OH242945   2.402   5.715  15.535 -0.0938 -0.7288  0.0096
 7177TIP3    H142946   2.483   5.709  15.484 -1.2072 -0.8518 -1.8098
 7177TIP3    H242947   2.415   5.791  15.592  1.2386 -0.6722 -0.3405
 7178TIP3   OH242948   0.296   5.584  15.535  0.2540  0.3740  0.2912
 7178TIP3    H142949   0.286   5.660  15.593  0.7314  0.9149 -0.3214
 7178TIP3    H242950   0.335   5.619  15.456  0.7931 -0.5744  0.1204
 7179TIP3   OH242951   6.381   3.716  10.356  0.5087 -0.9500 -0.1148
 7179TIP3    H142952   6.466   3.701  10.315  0.6387  2.2273 -1.2872
 7179TIP3    H242953   6.319   3.669  10.300  1.3038 -1.6697 -0.4049
 7180TIP3   OH242954   1.881   0.110  15.364 -0.1765 -0.5482 -0.2978
 7180TIP3    H142955   1.815   0.041  15.376 -0.2472 -0.2949  0.9779
 7180TIP3    H242956   1.925   0.115  15.449  0.4451  0.3500 -0.6641
 7181TIP3   OH242957   2.268   6.555  14.332 -0.4190  0.0142  0.0776
 7181TIP3    H142958   2.281   6.645  14.303 -2.2921  0.6473  1.0733
 7181TIP3    H242959   2.173   6.545  14.340 -0.2360 -1.9167  0.4031
 7182TIP3   OH242960   4.510   5.068   1.810 -0.6040 -0.9395 -0.4499
 7182TIP3    H142961   4.601   5.095   1.826 -1.0539  0.7173 -0.4427
 7182TIP3    H242962   4.473   5.053   1.897 -0.6622 -0.3985 -0.3748
 7183TIP3   OH242963   4.408   1.115  16.168 -0.2180  0.1796 -0.4334
 7183TIP3    H142964   4.358   1.125  16.249  0.0634 -1.4388 -0.0275
 7183TIP3    H242965   4.374   1.184  16.110 -0.1482  1.6433  1.1698
 7184TIP3   OH242966   5.673   0.812  15.249 -0.2265  0.1341 -0.6939
 7184TIP3    H142967   5.714   0.851  15.326  0.1083  1.0209 -1.3011
 7184TIP3    H242968   5.628   0.734  15.282  1.0811 -0.2914  0.1708
 7185TIP3   OH242969   0.390   3.254  14.789  0.2449 -1.0171 -0.1535
 7185TIP3    H142970   0.374   3.160  14.803  1.5959 -1.3985 -0.9107
 7185TIP3    H242971   0.428   3.258  14.701 -0.0895  0.2918 -0.2534
 7186TIP3   OH242972   1.447   3.005  16.753  0.0597 -0.5740 -0.2707
 7186TIP3    H142973   1.363   2.961  16.736  0.7518 -1.6089 -1.1479
 7186TIP3    H242974   1.430   3.059  16.830 -1.2131 -1.3262  0.0120
 7187TIP3   OH242975   5.468   3.557  15.864  0.6647  0.3552  0.3435
 7187TIP3    H142976   5.424   3.559  15.779  0.3223  1.5296  0.5413
 7187TIP3    H242977   5.545   3.501  15.849  0.2560  0.0174 -0.5595
 7188TIP3   OH242978   6.210   0.255  10.097  0.6022 -0.2643  0.4851
 7188TIP3    H142979   6.288   0.232  10.148  1.3517  0.4799 -0.2841
 7188TIP3    H242980   6.136   0.231  10.153  1.3871  0.0860  1.7079
 7189TIP3   OH242981   2.480   4.254  10.706  0.1439 -0.5162 -0.1626
 7189TIP3    H142982   2.422   4.296  10.642 -0.8957 -0.5621  0.7095
 7189TIP3    H242983   2.420   4.219  10.772  1.0756 -2.2446 -0.1984
 7190TIP3   OH242984   1.040   5.833  10.323 -0.1910  0.4288 -0.5962
 7190TIP3    H142985   1.051   5.928  10.317 -1.4024  0.6675  0.5333
 7190TIP3    H242986   1.024   5.805  10.233 -1.1725  1.4902 -0.7680
 7191TIP3   OH242987   6.128   2.495  16.737 -0.0848 -0.2935  0.6591
 7191TIP3    H142988   6.177   2.564  16.691  1.2724 -0.0579  2.3601
 7191TIP3    H242989   6.194   2.448  16.787 -1.2615 -1.6943  0.9424
 7192TIP3   OH242990   5.297   6.215   1.866 -0.4048  0.0290 -0.0064
 7192TIP3    H142991   5.228   6.261   1.818  1.8714  2.2505 -1.4017
 7192TIP3    H242992   5.359   6.284   1.890  2.7015 -2.1262 -1.2250
 7193TIP3   OH242993   2.555   5.451  14.377  0.2826 -0.6753 -0.1776
 7193TIP3    H142994   2.643   5.437  14.414  0.6759  0.3969 -0.6477
 7193TIP3    H242995   2.564   5.427  14.285  0.1723 -0.2841 -0.2945
 7194TIP3   OH242996   4.923   5.837  11.844  0.3629  0.4520  0.4829
 7194TIP3    H142997   4.847   5.841  11.787  0.8017  0.9799 -0.0773
 7194TIP3    H242998   4.890   5.865  11.930 -0.1356  0.3706  0.3188
 7195TIP3   OH242999   1.503   6.167  14.634 -0.1567  0.1168  0.5774
 7195TIP3    H143000   1.589   6.178  14.592  0.0262 -2.3184  0.1599
 7195TIP3    H243001   1.445   6.139  14.563 -0.2732 -2.2833  1.5207
 7196TIP3   OH243002   3.659   3.254   5.258 -0.0444 -0.7697  0.7840
 7196TIP3    H143003   3.692   3.343   5.269 -1.1267 -0.4243  1.3788
 7196TIP3    H243004   3.699   3.224   5.176  2.4954 -0.7715  1.9243
 7197TIP3   OH243005   2.313   1.241  10.452  0.4879  0.1695 -0.0579
 7197TIP3    H143006   2.403   1.261  10.478  0.6206 -0.7388  0.2170
 7197TIP3    H243007   2.320   1.202  10.365  0.5813 -1.7894  0.7876
 7198TIP3   OH243008   5.848   0.678  15.063  0.1317  0.0804 -0.3424
 7198TIP3    H143009   5.918   0.715  15.116 -0.0201 -0.0779 -0.0263
 7198TIP3    H243010   5.768   0.722  15.095  0.2886  1.7081 -2.0055
 7199TIP3   OH243011   4.904   3.550  15.081  0.2817  0.4047 -0.4838
 7199TIP3    H143012   4.927   3.631  15.127  0.1961 -0.1107  0.4763
 7199TIP3    H243013   4.925   3.569  14.989 -0.6455  1.8482 -0.4318
 7200TIP3   OH243014   0.614   5.067  14.884 -0.4580 -0.6819  0.4661
 7200TIP3    H143015   0.641   5.150  14.846  0.1542  0.3864  2.9891
 7200TIP3    H243016   0.523   5.056  14.857 -0.5830  0.8797  0.1625
 7201TIP3   OH243017   6.672   0.450   3.053  0.0502 -0.6508  0.4644
 7201TIP3    H143018   6.748   0.505   3.072 -0.4091  0.5152 -0.9061
 7201TIP3    H243019   6.705   0.360   3.062  1.6270 -0.1726 -0.2239
 7202TIP3   OH243020   4.292   6.493   4.197  0.2106  0.2984 -0.4085
 7202TIP3    H143021   4.294   6.405   4.160 -0.4828  0.5390 -1.0492
 7202TIP3    H243022   4.347   6.488   4.275 -0.7187 -0.9850  0.1903
 7203TIP3   OH243023   1.460   0.454   1.792 -0.0883  0.2779  0.4495
 7203TIP3    H143024   1.483   0.368   1.755 -0.8737 -0.2654  1.1912
 7203TIP3    H243025   1.432   0.506   1.716  0.4493 -0.0987 -0.0157
 7204TIP3   OH243026   4.950   0.773   5.061  0.3743  1.2115 -0.5989
 7204TIP3    H143027   5.014   0.778   4.990  0.6793  1.0150 -0.3421
 7204TIP3    H243028   4.932   0.679   5.070  0.4533  1.2219 -0.3185
 7205TIP3   OH243029   2.165   4.068   3.298  0.1852  0.2127 -0.0447
 7205TIP3    H143030   2.156   4.076   3.393  0.7774 -1.6791  0.2054
 7205TIP3    H243031   2.259   4.056   3.284  0.2380  1.5505 -0.9924
 7206TIP3   OH243032   5.254   6.546  12.070 -0.1588  0.0489 -0.4528
 7206TIP3    H143033   5.207   6.621  12.106  0.7279  0.6261 -0.4581
 7206TIP3    H243034   5.205   6.523  11.991 -0.9186  0.0889  0.0002
 7207TIP3   OH243035   2.145   3.540  15.598 -0.6863 -0.6668  0.0775
 7207TIP3    H143036   2.153   3.513  15.689 -1.5839 -0.9457  0.0881
 7207TIP3    H243037   2.089   3.618  15.602 -0.0543 -0.1978 -0.1609
 7208TIP3   OH243038   1.695   1.224   2.324 -0.7235 -0.3089 -0.3355
 7208TIP3    H143039   1.620   1.263   2.278  0.0619 -0.0831 -1.4791
 7208TIP3    H243040   1.657   1.157   2.380 -2.0194  1.3038  0.8362
 7209TIP3   OH243041   5.334   2.725  14.551 -0.0022 -0.0922 -0.0560
 7209TIP3    H143042   5.246   2.723  14.514 -0.2282  0.0440  0.4821
 7209TIP3    H243043   5.383   2.784  14.492 -0.5805  0.7914  0.3335
 7210TIP3   OH243044   5.145   2.083   0.279  0.2902 -0.6087 -0.5196
 7210TIP3    H143045   5.115   2.147   0.343 -0.6661 -1.5304  0.0041
 7210TIP3    H243046   5.151   2.131   0.197  1.4501  0.5795  0.2343
 7211TIP3   OH243047   1.648   6.037  12.151 -0.0794  0.8313 -0.2794
 7211TIP3    H143048   1.666   5.965  12.090 -2.1463  0.5844 -0.6977
 7211TIP3    H243049   1.712   6.104  12.128  1.6387 -0.6789 -0.1521
 7212TIP3   OH243050   2.550   0.464  16.301  0.0749  0.4123  0.1834
 7212TIP3    H143051   2.470   0.504  16.336 -0.6611  0.1832 -1.1972
 7212TIP3    H243052   2.610   0.538  16.289 -0.8881  1.0015 -1.2835
 7213TIP3   OH243053   3.775   3.472  16.893  0.1690  0.0958  0.2620
 7213TIP3    H143054   3.800   3.549  16.841  0.4321  0.6107  1.1319
 7213TIP3    H243055   3.842   3.407  16.873 -0.6453 -0.3175 -1.3141
 7214TIP3   OH243056   2.115   0.706  14.308 -0.5206 -0.5764  0.1386
 7214TIP3    H143057   2.091   0.737  14.395  1.4860  0.5683  0.3412
 7214TIP3    H243058   2.094   0.779  14.249 -0.9398 -0.9661 -0.2033
 7215TIP3   OH243059   1.163   2.358  14.605 -0.2196 -0.3121 -0.0600
 7215TIP3    H143060   1.135   2.415  14.677 -1.8586  0.5140 -1.2772
 7215TIP3    H243061   1.242   2.400  14.571 -0.2529  0.0860  0.3400
 7216TIP3   OH243062   2.899   6.600   4.724 -0.4998 -0.5244 -0.2482
 7216TIP3    H143063   2.808   6.630   4.728 -0.4181 -0.0877 -1.4577
 7216TIP3    H243064   2.947   6.673   4.687  0.4924 -0.4808  1.0545
 7217TIP3   OH243065   5.788   3.259  17.032 -0.9156  0.4508  0.4689
 7217TIP3    H143066   5.867   3.266  17.085 -0.1110 -2.1501 -0.2178
 7217TIP3    H243067   5.810   3.302  16.949 -0.8602  1.2625  0.9000
 7218TIP3   OH243068   4.562   1.552  14.704 -0.3924 -0.1800 -0.5465
 7218TIP3    H143069   4.593   1.608  14.633  1.5499  0.3090  0.6264
 7218TIP3    H243070   4.543   1.612  14.776 -0.9338 -0.8027 -0.1541
 7219TIP3   OH243071   5.415   0.770  13.539  0.2014  0.2112  0.2894
 7219TIP3    H143072   5.449   0.728  13.618  0.6574 -0.0539 -0.0433
 7219TIP3    H243073   5.418   0.864  13.557  1.2745  0.2026  0.2039
 7220TIP3   OH243074   5.418   3.133  10.512  0.2514  0.0774  0.3012
 7220TIP3    H143075   5.360   3.059  10.496  1.2454 -0.6291 -0.1805
 7220TIP3    H243076   5.456   3.153  10.427 -1.2145  2.2354  0.0989
 7221TIP3   OH243077   4.013   4.436  11.345  0.1616 -0.3095 -0.2605
 7221TIP3    H143078   4.093   4.423  11.396 -0.5696  0.1627  1.0594
 7221TIP3    H243079   3.974   4.515  11.382 -1.4426 -1.1035 -0.1552
 7222TIP3   OH243080   0.100   4.070  16.469 -0.4012 -0.4244  0.2680
 7222TIP3    H143081   0.032   4.040  16.529  0.0322 -1.1982  0.3796
 7222TIP3    H243082   0.145   4.140  16.518  0.8614 -1.9932  1.4575
 7223TIP3   OH243083   2.145   2.382   0.335 -0.3944 -0.1002 -0.2882
 7223TIP3    H143084   2.183   2.316   0.277  1.6985  0.9838 -0.2510
 7223TIP3    H243085   2.162   2.350   0.423 -1.7771 -0.7664 -0.2368
 7224TIP3   OH243086   5.548   0.976   4.758 -0.6185  0.8187  0.4518
 7224TIP3    H143087   5.614   0.956   4.825  0.7183 -0.2522 -1.1035
 7224TIP3    H243088   5.537   1.071   4.762  0.9809  1.0176  0.8155
 7225TIP3   OH243089   4.644   3.776  11.195 -0.5003  0.1350 -0.3108
 7225TIP3    H143090   4.659   3.767  11.101  1.3044  1.3903 -0.1940
 7225TIP3    H243091   4.600   3.860  11.205  0.5923  0.6914  0.0332
 7226TIP3   OH243092   1.963   0.911  13.728 -0.2287 -0.6406 -0.1111
 7226TIP3    H143093   1.987   0.999  13.698  0.7001 -1.2322 -1.1813
 7226TIP3    H243094   2.045   0.863  13.728 -0.9299 -1.9079 -0.9600
 7227TIP3   OH243095   4.569   6.279   1.906 -0.4418 -0.6895  0.0036
 7227TIP3    H143096   4.630   6.351   1.889 -0.6444 -0.5944 -0.3212
 7227TIP3    H243097   4.523   6.305   1.986  0.2780 -0.9830  0.5237
 7228TIP3   OH243098   5.801   6.510  15.510  0.1879 -0.1582 -0.0710
 7228TIP3    H143099   5.857   6.436  15.488 -1.6588 -1.6630  0.0750
 7228TIP3    H243100   5.714   6.484  15.482 -0.6407  1.7141  0.5802
 7229TIP3   OH243101   4.163   5.411  13.270 -0.3450  0.0002 -0.1201
 7229TIP3    H143102   4.070   5.431  13.282 -0.1934  0.6481 -0.0064
 7229TIP3    H243103   4.209   5.482  13.314  0.2103 -0.6897  0.4329
 7230TIP3   OH243104   4.828   1.782  11.400 -0.1542  0.1360  0.1761
 7230TIP3    H143105   4.812   1.689  11.386 -0.1631  0.0082  1.0099
 7230TIP3    H243106   4.810   1.822  11.315  1.2878 -0.7919 -0.6077
 7231TIP3   OH243107   6.136   0.100  16.243 -0.2176  0.4986  0.5998
 7231TIP3    H143108   6.093   0.142  16.168  1.3765 -0.1282 -0.7292
 7231TIP3    H243109   6.203   0.162  16.270 -0.3224  0.4123  1.0731
 7232TIP3   OH243110   1.777   3.535   2.311  0.6785  0.2758  0.1930
 7232TIP3    H143111   1.747   3.589   2.384 -0.5607 -1.1972  0.8360
 7232TIP3    H243112   1.760   3.587   2.233  0.0367  1.0291  0.8210
 7233TIP3   OH243113   1.469   4.646   4.557  0.6385 -0.1338  0.0807
 7233TIP3    H143114   1.488   4.673   4.467 -0.0793  0.0691 -0.0178
 7233TIP3    H243115   1.410   4.713   4.590 -0.4509 -1.0726  0.1352
 7234TIP3   OH243116   5.741   1.319   2.105  0.2566  0.3475 -0.6168
 7234TIP3    H143117   5.818   1.274   2.071  0.7077  0.9179 -0.3722
 7234TIP3    H243118   5.730   1.395   2.047 -0.6400 -0.1888 -1.1732
 7235TIP3   OH243119   4.407   3.657  10.239 -0.4774  0.4204  0.1134
 7235TIP3    H143120   4.497   3.679  10.214 -0.7122  1.9056  0.4887
 7235TIP3    H243121   4.414   3.634  10.332 -0.4775  0.4732  0.1267
 7236TIP3   OH243122   1.792   5.201   4.296  0.2395 -0.7090  0.1259
 7236TIP3    H143123   1.874   5.166   4.330 -0.0297 -1.4065  0.0710
 7236TIP3    H243124   1.736   5.213   4.372  0.2848 -0.5091  0.1300
 7237TIP3   OH243125   3.160   1.434   2.415 -0.2302 -0.3855  0.4042
 7237TIP3    H143126   3.251   1.460   2.422 -0.2347  0.2191 -1.2494
 7237TIP3    H243127   3.161   1.357   2.357 -0.7982 -0.0644 -0.0430
 7238TIP3   OH243128   4.538   5.321  16.036  0.3869  0.0155  0.1364
 7238TIP3    H143129   4.567   5.346  15.949 -0.1449 -0.9912 -0.3488
 7238TIP3    H243130   4.617   5.328  16.090  1.1516 -1.0255 -0.7935
 7239TIP3   OH243131   0.471   2.366  16.802 -0.0193 -0.2798  0.3506
 7239TIP3    H143132   0.384   2.350  16.768 -0.0062  0.3411  0.0256
 7239TIP3    H243133   0.518   2.410  16.731  0.4840 -0.3886  0.6063
 7240TIP3   OH243134   3.706   0.869  16.698  0.1557 -0.3943 -0.0905
 7240TIP3    H143135   3.784   0.861  16.643 -0.4979 -0.7104 -1.0027
 7240TIP3    H243136   3.688   0.780  16.728 -0.9308 -0.6723 -1.4543
 7241TIP3   OH243137   3.490   1.037   5.517  0.0209  0.0511 -0.3386
 7241TIP3    H143138   3.470   0.975   5.586 -0.9862  1.2300  0.4730
 7241TIP3    H243139   3.473   0.989   5.436 -0.2979 -0.8553  0.2504
 7242TIP3   OH243140   4.208   2.224   2.673  0.3026  0.0446  0.4399
 7242TIP3    H143141   4.260   2.263   2.743  0.3207  0.1272  0.3812
 7242TIP3    H243142   4.224   2.281   2.597 -2.0668  1.7843  1.1213
 7243TIP3   OH243143   4.596   4.206   0.843 -0.2485  0.0231 -0.1456
 7243TIP3    H143144   4.595   4.240   0.932  0.3244 -0.6758  0.1384
 7243TIP3    H243145   4.513   4.158   0.835  0.9722 -2.5165  1.0907
 7244TIP3   OH243146   0.782   3.411   1.443 -0.2963 -0.3003 -0.2647
 7244TIP3    H143147   0.701   3.427   1.492  0.1772  0.0272  0.4180
 7244TIP3    H243148   0.847   3.388   1.510  0.4844  0.6350 -0.6869
 7245TIP3   OH243149   0.291   1.561   5.604  0.2599 -0.2211 -0.1999
 7245TIP3    H143150   0.319   1.627   5.668 -0.9892 -0.1464  0.3076
 7245TIP3    H243151   0.203   1.589   5.579 -0.1076 -1.4422 -0.3348
 7246TIP3   OH243152   2.968   0.232   2.135 -0.2769 -0.1651 -0.2000
 7246TIP3    H143153   2.882   0.229   2.092 -1.0393  1.0119  1.1397
 7246TIP3    H243154   2.947   0.238   2.229  1.2955 -0.8351  0.2259
 7247TIP3   OH243155   6.786   0.978  11.283 -0.2988 -0.7300  0.4691
 7247TIP3    H143156   6.738   1.040  11.229 -0.7946 -0.8392  0.7727
 7247TIP3    H243157   6.876   1.010  11.283 -0.8851  1.0964  2.1920
 7248TIP3   OH243158   2.923   3.594   3.831  0.2243  0.3001  0.5441
 7248TIP3    H143159   2.867   3.596   3.909 -1.0348  0.4089 -0.3220
 7248TIP3    H243160   2.903   3.511   3.789  0.4945  0.4666  0.0747
 7249TIP3   OH243161   1.784   3.290  11.004  0.1489  0.1143  0.1708
 7249TIP3    H143162   1.866   3.335  11.025 -0.1564  0.1025  1.4723
 7249TIP3    H243163   1.737   3.285  11.087  0.2548 -2.8182  0.1527
 7250TIP3   OH243164   3.110   3.179  15.030  0.6762 -0.3095  0.4676
 7250TIP3    H143165   3.171   3.209  14.963 -0.4592 -0.9288 -0.8948
 7250TIP3    H243166   3.166   3.140  15.098  1.9360  1.7592  0.6900
 7251TIP3   OH243167   5.497   2.891   1.635  0.9039  0.0714  0.2721
 7251TIP3    H143168   5.552   2.970   1.636  1.5370 -0.3691  0.7882
 7251TIP3    H243169   5.555   2.821   1.605  0.2930 -0.1772 -0.3726
 7252TIP3   OH243170   4.597   4.561  14.267 -0.1059 -0.3126  0.2477
 7252TIP3    H143171   4.544   4.532  14.341 -0.0776  0.1009  0.4375
 7252TIP3    H243172   4.540   4.621  14.219  0.1390  0.0324  0.3808
 7253TIP3   OH243173   5.448   1.580  13.277 -0.0444  0.1964  0.1642
 7253TIP3    H143174   5.366   1.624  13.252 -0.4871 -0.4048  0.5246
 7253TIP3    H243175   5.453   1.590  13.372  1.2322  1.7762 -0.0162
 7254TIP3   OH243176   0.211   0.138   1.888 -0.4215 -0.2652  0.3555
 7254TIP3    H143177   0.133   0.179   1.926 -1.4186 -1.6323 -0.1670
 7254TIP3    H243178   0.254   0.096   1.962 -0.2486  0.3434  0.6133
 7255TIP3   OH243179   1.562   1.670   4.494  0.0064 -0.0347  0.2925
 7255TIP3    H143180   1.581   1.670   4.400 -0.2960  0.5811  0.2276
 7255TIP3    H243181   1.599   1.753   4.525 -1.3984  0.5786  0.4012
 7256TIP3   OH243182   5.351   4.311  15.016  0.3828 -0.4226 -0.2516
 7256TIP3    H143183   5.405   4.340  15.090 -0.8066  1.1912  0.0468
 7256TIP3    H243184   5.385   4.359  14.941  0.0475 -0.2306 -0.2797
 7257TIP3   OH243185   1.151   4.955  12.868  0.1107  0.1013 -0.2327
 7257TIP3    H143186   1.070   4.940  12.818  0.6226  0.4712 -1.2168
 7257TIP3    H243187   1.136   4.911  12.952 -0.8065 -0.5120 -0.6913
 7258TIP3   OH243188   1.102   5.233  14.060 -0.0811  0.4977 -0.8611
 7258TIP3    H143189   1.016   5.227  14.101  0.4107 -2.0341 -0.0062
 7258TIP3    H243190   1.085   5.235  13.966 -1.0880 -0.7539 -0.7272
 7259TIP3   OH243191   1.052   4.152  15.959  0.1230 -0.4993  0.1855
 7259TIP3    H143192   1.035   4.186  16.047 -0.0198  0.5145 -0.2143
 7259TIP3    H243193   0.967   4.116  15.931 -0.3675  0.9143 -0.2548
 7260TIP3   OH243194   2.020   6.032  10.652  0.4272 -0.6479  0.2570
 7260TIP3    H143195   2.053   5.948  10.621 -0.9702 -1.6443  1.3471
 7260TIP3    H243196   1.929   6.035  10.624 -0.1868 -0.5192  2.1038
 7261TIP3   OH243197   4.224   1.181   3.305 -0.2067 -0.1006 -0.1353
 7261TIP3    H143198   4.299   1.151   3.356 -0.5908 -0.4136  0.2491
 7261TIP3    H243199   4.197   1.104   3.256  0.5050  0.3381 -1.2568
 7262TIP3   OH243200   6.541   3.760   5.683  0.1514 -0.0490 -0.0223
 7262TIP3    H143201   6.576   3.848   5.673 -1.5796  0.4839 -1.9723
 7262TIP3    H243202   6.453   3.772   5.718  0.6958 -1.1808  1.8743
 7263TIP3   OH243203   4.954   5.246   3.749 -0.7127  0.4101 -0.3360
 7263TIP3    H143204   4.920   5.322   3.797 -2.0191  1.8260 -3.2479
 7263TIP3    H243205   5.049   5.250   3.761 -0.9047  1.4618  1.0257
 7264TIP3   OH243206   1.709   5.192  13.089  0.1555 -0.2629 -0.6242
 7264TIP3    H143207   1.715   5.205  13.183 -3.3462  0.8642 -0.4133
 7264TIP3    H243208   1.770   5.120  13.071  0.7467 -0.6881  2.5128
 7265TIP3   OH243209   1.967   1.891   2.897  0.1513  0.5078  0.2313
 7265TIP3    H143210   1.986   1.953   2.826 -1.4686 -0.0154 -0.7134
 7265TIP3    H243211   1.974   1.805   2.857 -2.1848  0.2288  0.2553
 7266TIP3   OH243212   4.083   2.618  10.799 -0.2650  0.0275 -0.2606
 7266TIP3    H143213   3.989   2.604  10.789 -0.5211  0.6767  0.9813
 7266TIP3    H243214   4.116   2.534  10.832 -0.5861  0.1051  0.2686
 7267TIP3   OH243215   0.006   1.894  15.233 -0.1106 -0.2365  0.0398
 7267TIP3    H143216   0.014   1.800  15.214 -2.3866 -0.9592  1.9727
 7267TIP3    H243217  -0.085   1.914  15.211  0.0366  1.2375  0.6976
 7268TIP3   OH243218   0.758   2.354  12.977  0.2227  0.0409  0.5927
 7268TIP3    H143219   0.697   2.354  12.903  1.6324 -0.4292 -0.6242
 7268TIP3    H243220   0.768   2.261  12.999  0.5803  0.1053  0.7030
 7269TIP3   OH243221   3.266   1.462  14.569  0.2448 -0.5598  0.1309
 7269TIP3    H143222   3.306   1.388  14.523 -0.1823  0.0328 -1.2621
 7269TIP3    H243223   3.304   1.460  14.656  2.5318 -0.6082 -0.8094
 7270TIP3   OH243224   5.421   0.547  13.325 -0.3274  0.1207  0.0578
 7270TIP3    H143225   5.435   0.613  13.393  0.8802  0.1232 -0.1589
 7270TIP3    H243226   5.406   0.597  13.245  3.2218  0.3230 -0.6789
 7271TIP3   OH243227   3.163   4.520  14.740  0.2096 -0.1170  0.0917
 7271TIP3    H143228   3.089   4.580  14.731  0.9891  0.7649 -0.5940
 7271TIP3    H243229   3.202   4.516  14.653  1.0331 -0.5009  0.4625
 7272TIP3   OH243230   5.121   1.875   4.777 -0.1399 -0.0921 -0.3806
 7272TIP3    H143231   5.164   1.820   4.712  0.6159  1.5955 -1.3807
 7272TIP3    H243232   5.181   1.878   4.851 -1.0755 -2.1521  0.5420
 7273TIP3   OH243233   2.769   5.718  14.242  0.2033  0.3557 -0.0589
 7273TIP3    H143234   2.821   5.791  14.209  0.3107  0.7609  0.9785
 7273TIP3    H243235   2.831   5.646  14.251 -0.1586 -0.3607 -2.4479
 7274TIP3   OH243236   6.304   5.065  10.763  0.1631 -0.2854  0.5179
 7274TIP3    H143237   6.223   5.060  10.712  0.5247  0.2640 -0.1287
 7274TIP3    H243238   6.328   4.974  10.780 -0.5291 -0.4503  0.6157
 7275TIP3   OH243239   4.301   6.432  16.385  0.2398 -0.3469  0.0441
 7275TIP3    H143240   4.260   6.440  16.298 -1.0785  2.1767  0.7905
 7275TIP3    H243241   4.391   6.405  16.367 -0.0637 -0.1088 -2.0952
 7276TIP3   OH243242   1.261   0.833  15.729 -0.0611 -0.2647 -0.4707
 7276TIP3    H143243   1.321   0.763  15.702  1.3270  0.9314 -0.6003
 7276TIP3    H243244   1.278   0.845  15.822 -0.0377  0.1108 -0.5202
 7277TIP3   OH243245   3.574   6.287  15.436  0.1339 -0.1365  0.5039
 7277TIP3    H143246   3.578   6.324  15.348  1.4759 -0.3364  0.4582
 7277TIP3    H243247   3.572   6.364  15.494 -0.0791 -0.0024  0.3167
 7278TIP3   OH243248   4.502   5.397   4.347  0.1217 -0.0701 -0.0318
 7278TIP3    H143249   4.413   5.370   4.370 -0.1035  0.9061  0.2880
 7278TIP3    H243250   4.537   5.324   4.295 -0.4570 -0.9511  0.7978
 7279TIP3   OH243251   1.077   5.987  11.003 -0.0359 -0.3106 -0.4599
 7279TIP3    H143252   1.137   5.962  11.073  0.5395 -2.7314 -1.6897
 7279TIP3    H243253   1.080   6.082  11.002  2.8462 -0.2866  0.3725
 7280TIP3   OH243254   1.793   6.832   3.345  0.2933  0.4335  0.0478
 7280TIP3    H143255   1.868   6.782   3.313 -0.4815 -1.3603  0.9114
 7280TIP3    H243256   1.717   6.791   3.304 -0.2829  2.1498 -0.7249
 7281TIP3   OH243257   3.974   4.655   1.886 -0.0271  0.3761  0.1892
 7281TIP3    H143258   3.888   4.665   1.846 -1.0225 -0.8233  1.9225
 7281TIP3    H243259   3.984   4.732   1.943 -1.3997 -1.0018  2.4251
 7282TIP3   OH243260   1.622   1.412   4.218 -0.0995 -0.5105  0.3967
 7282TIP3    H143261   1.630   1.317   4.234  0.4396 -0.8049 -1.4445
 7282TIP3    H243262   1.711   1.439   4.195 -0.7734 -0.1930 -2.1216
 7283TIP3   OH243263   5.477   4.691  10.582  0.1154  0.2935  0.2863
 7283TIP3    H143264   5.392   4.667  10.547  1.0588  0.1859 -2.0869
 7283TIP3    H243265   5.490   4.782  10.553  0.4213  0.6557  1.4804
 7284TIP3   OH243266   4.287   2.715  15.483  0.1994  0.3014 -0.5244
 7284TIP3    H143267   4.274   2.809  15.472  0.0606  0.1894 -1.3703
 7284TIP3    H243268   4.216   2.675  15.433 -1.5213 -0.2613  2.1401
 7285TIP3   OH243269   3.371   4.080  10.706  0.0851 -0.2506  0.3779
 7285TIP3    H143270   3.464   4.079  10.685  0.0049 -0.6594  0.0367
 7285TIP3    H243271   3.329   4.116  10.628 -0.2464 -2.0835 -0.3500
 7286TIP3   OH243272   2.817   4.589   1.254  0.2106 -0.1329  0.4314
 7286TIP3    H143273   2.881   4.629   1.195  0.3295  1.3101  1.4907
 7286TIP3    H243274   2.756   4.543   1.196  1.8453 -1.0419 -0.6353
 7287TIP3   OH243275   2.483   4.208  14.883 -0.0193  0.2582 -0.1297
 7287TIP3    H143276   2.418   4.148  14.921 -0.0443  0.1144 -0.3958
 7287TIP3    H243277   2.501   4.172  14.796  1.2674 -0.3724  0.3584
 7288TIP3   OH243278   5.941   1.682  16.929 -0.0632  0.7879  0.0373
 7288TIP3    H143279   5.926   1.697  17.023  0.4196  0.6103  0.1435
 7288TIP3    H243280   6.026   1.722  16.911  0.9975 -1.2844  0.1992
 7289TIP3   OH243281   5.877   3.696   2.757  0.4016 -0.1602  0.6501
 7289TIP3    H143282   5.913   3.692   2.846 -0.4556 -0.4986  0.9957
 7289TIP3    H243283   5.883   3.607   2.724  0.4594 -0.0921  0.4753
 7290TIP3   OH243284   3.926   2.271   1.911 -0.2202  0.5802 -0.0487
 7290TIP3    H143285   3.869   2.347   1.919  0.4152  1.0341  0.3189
 7290TIP3    H243286   3.969   2.282   1.826 -1.3383 -0.2417 -0.7434
 7291TIP3   OH243287   0.880   1.190   1.527 -0.1184  0.3374  0.0553
 7291TIP3    H143288   0.947   1.221   1.466 -0.9156  1.7049 -0.1764
 7291TIP3    H243289   0.812   1.257   1.524 -0.8616 -0.3113  1.3475
 7292TIP3   OH243290   3.750   4.210  12.049 -0.2619  0.3522  0.1371
 7292TIP3    H143291   3.707   4.287  12.085 -1.7750 -0.6577  0.6309
 7292TIP3    H243292   3.775   4.158  12.125 -0.2021 -0.1162 -0.1932
 7293TIP3   OH243293   0.200   1.535  12.691 -0.0642 -0.2134  0.2177
 7293TIP3    H143294   0.170   1.450  12.723 -1.8825 -0.3930 -1.7182
 7293TIP3    H243295   0.295   1.528  12.688 -0.1332 -1.8505  0.9358
 7294TIP3   OH243296   1.929   2.060  14.748 -0.1408 -0.2435 -1.0231
 7294TIP3    H143297   2.011   2.036  14.791  0.1246 -0.3338 -1.5726
 7294TIP3    H243298   1.909   2.147  14.781 -0.8070 -0.9519  0.5498
 7295TIP3   OH243299   5.067   3.065  16.214 -0.1579  0.0645 -0.0512
 7295TIP3    H143300   5.002   3.103  16.155  0.2942  2.6320  1.0013
 7295TIP3    H243301   5.077   3.129  16.284  2.2641 -1.0284  0.7098
 7296TIP3   OH243302   4.955   2.122   2.090 -0.4334 -0.1224 -0.5399
 7296TIP3    H143303   4.939   2.053   2.155 -0.6306 -0.0485 -0.5070
 7296TIP3    H243304   5.050   2.133   2.089 -0.3973 -0.4464 -0.6007
 7297TIP3   OH243305   4.358   2.157   1.571 -0.1303  0.4268 -0.1991
 7297TIP3    H143306   4.342   2.242   1.613  1.2761 -0.4720  2.3238
 7297TIP3    H243307   4.288   2.100   1.603  0.1540  0.0854 -0.1785
 7298TIP3   OH243308   2.613   1.586   3.327 -0.1034  0.0470 -0.4896
 7298TIP3    H143309   2.698   1.630   3.320 -0.1234  0.3876  1.0893
 7298TIP3    H243310   2.624   1.505   3.279  0.7900  0.5626 -1.1734
 7299TIP3   OH243311   2.647   3.188  16.632  0.1576  0.1684  0.4466
 7299TIP3    H143312   2.626   3.257  16.695 -0.9837 -1.4037  1.8734
 7299TIP3    H243313   2.609   3.218  16.549  0.7148  1.7673  0.7430
 7300TIP3   OH243314   3.525   3.165   2.903  0.2756 -0.0823  0.0567
 7300TIP3    H143315   3.451   3.136   2.849  1.1782 -2.3040 -0.0892
 7300TIP3    H243316   3.590   3.194   2.840 -0.1135  1.0163  0.1472
 7301TIP3   OH243317   6.703   0.865   2.350  0.0303  0.7726 -0.0330
 7301TIP3    H143318   6.776   0.920   2.324 -0.3038  1.6770  0.8715
 7301TIP3    H243319   6.739   0.776   2.350  1.5816  1.3278  1.8130
 7302TIP3   OH243320   3.426   1.812  12.182 -0.6490  0.2258 -0.3240
 7302TIP3    H143321   3.467   1.784  12.100 -1.3409  1.3211 -1.0796
 7302TIP3    H243322   3.375   1.736  12.211  0.1838 -0.4157 -0.5094
 7303TIP3   OH243323   3.794   0.243   5.718 -0.2135 -0.1840 -0.0627
 7303TIP3    H143324   3.829   0.262   5.806 -0.1327 -0.8122  0.0435
 7303TIP3    H243325   3.819   0.319   5.666 -2.1246  1.2186  0.9608
 7304TIP3   OH243326   6.479   6.791   1.312  0.1482 -0.0476 -0.0562
 7304TIP3    H143327   6.511   6.713   1.358 -0.3255  0.5717  1.4154
 7304TIP3    H243328   6.521   6.864   1.358 -1.2322  0.6471  0.1584
 7305TIP3   OH243329   1.072   5.700   5.448  0.0166 -0.4447  0.4019
 7305TIP3    H143330   0.983   5.692   5.483 -0.8363  2.1471 -0.9177
 7305TIP3    H243331   1.100   5.787   5.474  1.7201 -0.7806 -0.2046
 7306TIP3   OH243332   6.792   5.866  16.703 -0.2445 -0.4829 -0.2980
 7306TIP3    H143333   6.711   5.817  16.717 -0.5953  0.2973  0.5464
 7306TIP3    H243334   6.799   5.922  16.780 -0.2482  1.3347 -1.5595
 7307TIP3   OH243335   5.787   6.326   2.584  0.1610 -0.0441 -0.2469
 7307TIP3    H143336   5.801   6.282   2.668 -1.5291  0.7044  0.4821
 7307TIP3    H243337   5.776   6.255   2.521  3.2186 -0.6407 -0.2437
 7308TIP3   OH243338   3.071   6.586   1.231 -0.1327  0.3600  0.1164
 7308TIP3    H143339   2.979   6.610   1.236 -0.0924  0.3573  0.9693
 7308TIP3    H243340   3.072   6.505   1.180 -0.4321  1.2138 -1.2956
 7309TIP3   OH243341   4.998   5.310   1.060  0.0012 -0.3182 -0.8750
 7309TIP3    H143342   5.022   5.237   1.004 -0.0919 -0.1273 -1.1662
 7309TIP3    H243343   5.061   5.379   1.039  1.6126 -1.0961  1.1023
 7310TIP3   OH243344   1.505   6.560  10.528  0.3312  0.3759  0.1645
 7310TIP3    H143345   1.591   6.586  10.560  1.2023 -0.2220 -1.5599
 7310TIP3    H243346   1.522   6.521  10.442 -1.6893  0.4279 -0.3125
 7311TIP3   OH243347   5.805   5.161  17.025  0.2224  0.0367  0.1851
 7311TIP3    H143348   5.812   5.142  16.931  1.6178 -0.4573  0.3726
 7311TIP3    H243349   5.880   5.117  17.064  1.8409  3.2187  1.0765
 7312TIP3   OH243350   2.787   3.076  15.929 -0.0476 -0.0134  0.2554
 7312TIP3    H143351   2.837   3.002  15.964 -0.8081  0.4494  2.5204
 7312TIP3    H243352   2.713   3.035  15.884  1.1225 -0.6477 -1.1683
 7313TIP3   OH243353   3.693   0.025   6.102 -0.0515  0.1435 -0.2475
 7313TIP3    H143354   3.768   0.084   6.110  0.1744 -0.2798  1.1911
 7313TIP3    H243355   3.720  -0.054   6.150 -0.6075 -0.8614 -1.5390
 7314TIP3   OH243356   3.303   3.624  12.784  0.3409 -0.0640  0.6570
 7314TIP3    H143357   3.298   3.630  12.879  1.6376  0.4286  0.7135
 7314TIP3    H243358   3.315   3.531  12.766 -1.2079 -0.3273  0.8807
 7315TIP3   OH243359   2.163   0.956  11.610 -0.7283  0.1244  0.5976
 7315TIP3    H143360   2.133   0.869  11.585 -1.1260  0.3878  0.1494
 7315TIP3    H243361   2.133   0.967  11.700 -1.5857  0.2117  0.3015
 7316TIP3   OH243362   3.331   0.626   3.662 -0.5137 -0.6328  0.1181
 7316TIP3    H143363   3.246   0.655   3.694 -1.0033  0.5740 -2.0411
 7316TIP3    H243364   3.384   0.706   3.657  0.1196 -1.0682 -0.2972
 7317TIP3   OH243365   4.135   3.975  16.602  0.0033  0.0874 -0.0890
 7317TIP3    H143366   4.201   4.034  16.564 -0.9425  0.1321 -1.7720
 7317TIP3    H243367   4.056   4.029  16.610 -0.6528 -0.7156 -0.8997
 7318TIP3   OH243368   4.650   1.063   0.741 -0.4587 -0.1936 -0.0626
 7318TIP3    H143369   4.699   1.016   0.808 -0.6327  0.3383  0.4574
 7318TIP3    H243370   4.637   1.000   0.671  1.0493 -0.3128 -0.2657
 7319TIP3   OH243371   2.672   4.363  16.596 -0.6375 -0.2411 -0.1349
 7319TIP3    H143372   2.625   4.308  16.658  1.6400 -1.0675  0.9684
 7319TIP3    H243373   2.742   4.307  16.563 -0.1259  1.0664 -1.3399
 7320TIP3   OH243374   1.298   5.331  13.825  0.4464 -0.1231 -0.1491
 7320TIP3    H143375   1.250   5.408  13.795 -0.4453 -0.6282 -0.0649
 7320TIP3    H243376   1.249   5.257  13.790  1.7571 -0.6570 -0.9220
 7321TIP3   OH243377   6.160   4.088  11.712 -0.3645 -0.3719 -0.3692
 7321TIP3    H143378   6.159   3.994  11.727 -0.9577  0.0303  2.6896
 7321TIP3    H243379   6.088   4.122  11.764 -0.7667  1.7251 -2.1385
 7322TIP3   OH243380   3.159   3.550  15.945  0.6814 -0.7517 -0.4574
 7322TIP3    H143381   3.092   3.613  15.971  1.0773 -1.4838  2.7828
 7322TIP3    H243382   3.171   3.565  15.851  0.0206  3.2720 -0.1041
 7323TIP3   OH243383   4.022   5.069   2.810  0.5178  0.5622 -0.3716
 7323TIP3    H143384   3.979   4.994   2.851  0.2171  0.4758 -0.8287
 7323TIP3    H243385   3.962   5.142   2.822  1.4613  1.0986  1.3575
 7324TIP3   OH243386   4.684   4.457   1.795 -0.2530 -0.0078 -0.0427
 7324TIP3    H143387   4.641   4.539   1.820  0.5083  0.1363  0.8618
 7324TIP3    H243388   4.705   4.469   1.702  0.4158  1.1060  0.2252
 7325TIP3   OH243389   1.652   5.053  14.600 -0.2410  0.3386  0.1693
 7325TIP3    H143390   1.728   5.063  14.542 -0.1104 -1.1977  0.0282
 7325TIP3    H243391   1.625   4.962  14.588 -3.3272  1.2936 -1.2681
 7326TIP3   OH243392   0.199   3.038  14.225  0.2647 -0.2783 -0.1133
 7326TIP3    H143393   0.161   2.950  14.233 -2.6235  0.8402 -0.3497
 7326TIP3    H243394   0.127   3.092  14.191  2.0295  2.1356 -0.2416
 7327TIP3   OH243395   3.047   3.369  13.143  0.5670  0.0249  0.3703
 7327TIP3    H143396   3.143   3.364  13.137  0.7002  0.5492  1.7639
 7327TIP3    H243397   3.030   3.393  13.234 -0.8721  0.5504 -0.0156
 7328TIP3   OH243398   5.728   2.533  14.709  0.0687  0.0737  0.4353
 7328TIP3    H143399   5.695   2.537  14.619  1.7464 -0.3499 -0.2335
 7328TIP3    H243400   5.733   2.439  14.728  3.5510 -0.0821 -0.5876
 7329TIP3   OH243401   5.179   4.643   3.055  0.3663 -0.0105 -0.5292
 7329TIP3    H143402   5.218   4.718   3.101  2.0507 -1.3109  0.2596
 7329TIP3    H243403   5.157   4.581   3.124 -1.9239  0.0828 -1.0904
 7330TIP3   OH243404   6.015   1.577  12.753  0.1488  0.3573  0.8536
 7330TIP3    H143405   6.098   1.529  12.759  0.4530  0.8386  0.5311
 7330TIP3    H243406   6.030   1.657  12.803  0.4467  1.2266 -0.5796
 7331TIP3   OH243407   0.363   6.331   5.504 -0.1892  0.3575 -0.1174
 7331TIP3    H143408   0.381   6.421   5.529 -1.0952  0.0191  1.9805
 7331TIP3    H243409   0.435   6.281   5.542 -1.9213 -0.2445  2.6848
 7332TIP3   OH243410   5.869   6.476  13.431 -0.1844 -0.1432 -0.0013
 7332TIP3    H143411   5.917   6.542  13.481  1.5178 -2.2411  1.3169
 7332TIP3    H243412   5.784   6.470  13.475 -0.4211  1.2165 -0.2263
 7333TIP3   OH243413   4.875   2.558  14.700 -0.0821 -0.3786  0.1492
 7333TIP3    H143414   4.917   2.476  14.673 -1.5553 -0.6271 -1.5856
 7333TIP3    H243415   4.783   2.535  14.713 -0.6366  1.0737 -0.9236
 7334TIP3   OH243416   5.392   3.093  11.566  0.9525 -0.1309  0.0206
 7334TIP3    H143417   5.458   3.163  11.559  1.3318 -0.5672 -1.0992
 7334TIP3    H243418   5.443   3.015  11.587  0.5113 -0.0687  1.4353
 7335TIP3   OH243419   4.297   4.773  11.343 -0.8218  0.3297  0.6588
 7335TIP3    H143420   4.351   4.848  11.368 -1.1422  0.8010 -0.0345
 7335TIP3    H243421   4.226   4.772  11.408  0.8434 -1.2795  2.5833
 7336TIP3   OH243422   3.980   2.073  12.629 -0.2936  0.2214  0.0632
 7336TIP3    H143423   3.936   1.989  12.615 -3.1607  1.6832 -0.5644
 7336TIP3    H243424   3.974   2.087  12.724 -0.8606  0.2395  0.0261
 7337TIP3   OH243425   2.392   4.817  15.494 -0.5608  0.1476 -0.4842
 7337TIP3    H143426   2.432   4.850  15.574 -0.2603  0.7732 -0.8919
 7337TIP3    H243427   2.464   4.809  15.432 -0.8897  0.2492 -0.8823
 7338TIP3   OH243428   1.324   1.952  16.158 -0.3235 -0.2643  0.8502
 7338TIP3    H143429   1.335   2.047  16.154  1.5388 -0.4760 -0.1104
 7338TIP3    H243430   1.409   1.919  16.188 -0.3114 -1.7255 -0.6276
 7339TIP3   OH243431   3.411   3.610   4.849 -0.2229  0.1388 -0.0288
 7339TIP3    H143432   3.380   3.686   4.800 -0.7699 -0.8164 -1.1971
 7339TIP3    H243433   3.344   3.544   4.836  0.1553 -0.5017  1.1370
 7340TIP3   OH243434   0.620   6.360   2.359 -0.0413  0.0508  0.4949
 7340TIP3    H143435   0.601   6.445   2.398  0.0632  0.5569 -0.5227
 7340TIP3    H243436   0.553   6.348   2.291  1.6033  0.6616 -1.3294
 7341TIP3   OH243437   4.935   0.776   4.235 -0.3511 -0.8039 -0.2849
 7341TIP3    H143438   4.986   0.856   4.251  0.0236 -1.2547  0.8916
 7341TIP3    H243439   4.924   0.773   4.140 -2.5685  1.9946 -0.2487
 7342TIP3   OH243440   0.336   0.261  16.959  0.1484  0.1980 -0.0658
 7342TIP3    H143441   0.307   0.179  17.001 -1.4833  0.6848 -0.1464
 7342TIP3    H243442   0.358   0.319  17.032  0.8976 -0.1628  0.0023
 7343TIP3   OH243443   4.218   3.157  11.865 -0.3198  0.0285  0.0136
 7343TIP3    H143444   4.189   3.116  11.784  0.0148 -0.2575  0.0338
 7343TIP3    H243445   4.313   3.166  11.855 -0.4829  1.6307 -0.3604
 7344TIP3   OH243446   2.744   6.767  12.200 -0.0095 -0.3845 -0.2499
 7344TIP3    H143447   2.711   6.833  12.261 -0.3556 -0.5819 -0.2208
 7344TIP3    H243448   2.700   6.685  12.227 -0.8211 -0.3110 -1.2819
 7345TIP3   OH243449   4.829   2.324  13.570 -0.0028 -0.1727 -0.3395
 7345TIP3    H143450   4.924   2.327  13.557 -0.0238  2.0577 -0.2896
 7345TIP3    H243451   4.818   2.319  13.664  0.1379  2.7021 -0.0710
 7346TIP3   OH243452   0.448   1.781   3.862 -0.0150 -0.0342  0.0114
 7346TIP3    H143453   0.391   1.705   3.850 -0.5936  0.2644  0.7256
 7346TIP3    H243454   0.414   1.824   3.941  1.1291  0.2298  0.3849
 7347TIP3   OH243455   2.462   2.489   2.847 -0.3066 -0.8318 -0.4678
 7347TIP3    H143456   2.538   2.433   2.855 -1.5115 -2.5765 -0.6758
 7347TIP3    H243457   2.470   2.530   2.761  0.1161 -1.4191 -0.7040
 7348TIP3   OH243458   3.321   1.728  11.547  0.0683 -0.9479 -0.0203
 7348TIP3    H143459   3.364   1.768  11.623 -1.2452 -1.2388  0.9159
 7348TIP3    H243460   3.228   1.730  11.569 -0.1724 -3.1271 -0.5981
 7349TIP3   OH243461   4.337   5.462  14.039 -0.1383 -0.0279 -0.2577
 7349TIP3    H143462   4.254   5.439  14.080 -0.0114  1.5139  0.9566
 7349TIP3    H243463   4.317   5.469  13.946 -2.2509  3.4690  0.2708
 7350TIP3   OH243464   1.826   5.013  11.405  0.0383  0.1684  0.4250
 7350TIP3    H143465   1.817   5.067  11.327 -1.0913 -0.8121 -0.1500
 7350TIP3    H243466   1.746   5.030  11.455  0.4153  0.2307  1.0279
 7351TIP3   OH243467   0.703   0.264  14.961  0.7604 -0.4737 -0.2421
 7351TIP3    H143468   0.684   0.171  14.949  0.7193 -0.3586 -1.1866
 7351TIP3    H243469   0.791   0.267  14.998  1.1186 -0.8776 -1.0420
 7352TIP3   OH243470   1.337   2.889  14.845 -0.4482 -0.4792 -0.4660
 7352TIP3    H143471   1.334   2.951  14.773  0.0996 -0.6678 -0.6549
 7352TIP3    H243472   1.249   2.891  14.882  0.2830  2.6793  1.4726
 7353TIP3   OH243473   4.700   2.156  17.022 -0.0442  0.4335  0.1984
 7353TIP3    H143474   4.715   2.072  17.067 -2.4544  0.9232  2.1310
 7353TIP3    H243475   4.692   2.220  17.093  1.9694  2.4376 -1.2340
 7354TIP3   OH243476   1.603   3.087  11.165  0.1253 -0.4303 -0.1393
 7354TIP3    H143477   1.627   3.081  11.257  0.5909 -0.4135 -0.2555
 7354TIP3    H243478   1.577   3.178  11.153  0.5273 -0.3119 -0.1306
 7355TIP3   OH243479   2.268   3.645   4.547 -0.0253  0.0499  0.4878
 7355TIP3    H143480   2.216   3.641   4.467  1.1832 -0.6320 -0.3089
 7355TIP3    H243481   2.296   3.554   4.561  3.0655  0.6921 -0.6281
 7356TIP3   OH243482   6.300   3.173  10.404 -0.3784  0.2937 -0.3084
 7356TIP3    H143483   6.329   3.118  10.331 -0.8805  1.7418 -1.6483
 7356TIP3    H243484   6.255   3.112  10.463  0.3096 -0.9638 -1.0521
 7357TIP3   OH243485   6.246   1.463  12.797  0.0062 -0.3209 -0.4600
 7357TIP3    H143486   6.260   1.376  12.834 -2.1493 -0.8814 -0.7862
 7357TIP3    H243487   6.275   1.523  12.866  0.8753 -1.3029  0.0505
 7358TIP3   OH243488   4.997   3.953  12.690  0.2248 -0.1256 -0.0103
 7358TIP3    H143489   4.994   4.049  12.685 -1.1839  0.0626  2.6746
 7358TIP3    H243490   4.959   3.924  12.607 -1.0199  1.6922 -0.1430
 7359TIP3   OH243491   2.640   5.526   4.511  0.5589  0.1566 -0.5403
 7359TIP3    H143492   2.671   5.477   4.587  1.1360 -1.2061 -1.6118
 7359TIP3    H243493   2.718   5.542   4.458 -0.0046 -0.0204 -1.4571
 7360TIP3   OH243494   3.400   1.974  10.931  0.1536  0.4890 -0.3104
 7360TIP3    H143495   3.402   2.045  10.866  1.2416  1.1052  0.3589
 7360TIP3    H243496   3.480   1.987  10.983  1.1546 -2.0660 -1.0498
 7361TIP3   OH243497   0.591   3.462  15.943 -0.2201 -0.8322  0.4530
 7361TIP3    H143498   0.591   3.518  16.020  0.3251  0.8200 -0.6760
 7361TIP3    H243499   0.574   3.374  15.976 -0.9749 -0.0261  2.3246
 7362TIP3   OH243500   5.773   2.097   5.329 -0.2152 -0.4261 -0.4308
 7362TIP3    H143501   5.825   2.177   5.337  1.1736 -1.2814 -0.6578
 7362TIP3    H243502   5.805   2.041   5.399 -0.7242 -1.0448 -0.6859
 7363TIP3   OH243503   4.036   0.687  14.446  0.0661  1.0349  0.7637
 7363TIP3    H143504   4.020   0.743  14.370  0.4807  1.2176  0.8053
 7363TIP3    H243505   4.125   0.655  14.433 -0.5951 -0.6040  0.1195
 7364TIP3   OH243506   1.088   1.192  16.466 -0.6480 -0.3319 -0.2877
 7364TIP3    H143507   1.078   1.119  16.527 -0.5930  0.1815  0.3508
 7364TIP3    H243508   0.998   1.224  16.454 -0.4245  1.2638  1.6827
 7365TIP3   OH243509   4.244   5.556   3.412 -0.1114  0.4384  0.5108
 7365TIP3    H143510   4.166   5.512   3.444 -1.1847  1.5389 -0.5030
 7365TIP3    H243511   4.225   5.575   3.320  1.7203 -0.0833 -0.0294
 7366TIP3   OH243512   1.764   2.324   3.600 -0.6755 -0.0747  0.4192
 7366TIP3    H143513   1.712   2.307   3.677 -2.9310  1.0522 -0.7558
 7366TIP3    H243514   1.789   2.417   3.607  0.8416 -0.4767  0.7389
 7367TIP3   OH243515   5.723   0.722  16.672 -0.5184  0.5902 -0.0005
 7367TIP3    H143516   5.699   0.674  16.593 -1.9078  0.0087  0.7314
 7367TIP3    H243517   5.778   0.794  16.641  0.0644 -0.3876 -1.3263
 7368TIP3   OH243518   6.805   2.628  13.812 -0.5615  0.5997  1.2365
 7368TIP3    H143519   6.785   2.560  13.876 -0.4688 -0.3920  0.2483
 7368TIP3    H243520   6.842   2.700  13.863 -2.3241  0.6509  2.5319
 7369TIP3   OH243521   0.537   6.231  16.408  0.1960 -0.1399  0.5610
 7369TIP3    H143522   0.570   6.167  16.345 -0.1267  0.3665 -0.1431
 7369TIP3    H243523   0.611   6.249  16.466  0.8247  0.1390 -0.3075
 7370TIP3   OH243524   0.675   4.802   4.932  0.0955 -0.2874 -0.6969
 7370TIP3    H143525   0.615   4.743   4.977  1.9507 -2.3119 -0.7177
 7370TIP3    H243526   0.626   4.883   4.922 -1.7573 -1.0408  1.4403
 7371TIP3   OH243527   0.634   1.048  13.643 -0.1317 -0.1517  0.0585
 7371TIP3    H143528   0.593   1.134  13.629  0.4705 -0.0395 -1.1122
 7371TIP3    H243529   0.726   1.062  13.621 -0.2488 -1.3786 -1.3240
 7372TIP3   OH243530   5.837   1.267  13.118 -0.8358 -0.0152 -0.6587
 7372TIP3    H143531   5.869   1.268  13.028  1.5628  2.8104  0.0686
 7372TIP3    H243532   5.782   1.344  13.125 -1.9057 -0.8129  0.0794
 7373TIP3   OH243533   6.614   1.223  13.500  0.0635  0.0750  0.2140
 7373TIP3    H143534   6.582   1.141  13.537  1.0083 -0.6411 -0.5002
 7373TIP3    H243535   6.699   1.237  13.543 -0.6933  1.4369  1.3638
 7374TIP3   OH243536   4.343   4.724   5.375  0.1934 -0.4591  0.3233
 7374TIP3    H143537   4.342   4.630   5.394 -0.5200 -0.1424  2.0483
 7374TIP3    H243538   4.413   4.735   5.312  0.4529 -2.1225  0.2815
 7375TIP3   OH243539   4.125   0.391  13.755 -0.3450  0.7892 -0.2003
 7375TIP3    H143540   4.182   0.325  13.793 -0.4650  1.7306  1.7406
 7375TIP3    H243541   4.051   0.341  13.720 -1.2297 -0.0828  2.6520
 7376TIP3   OH243542   6.136   6.114   5.118  0.4906 -0.3420 -0.1665
 7376TIP3    H143543   6.168   6.075   5.199  0.5809  0.3672  0.1491
 7376TIP3    H243544   6.129   6.208   5.138 -2.0450 -0.4694 -0.1196
 7377TIP3   OH243545   4.438   2.610  14.561  0.1869 -0.0751 -0.1377
 7377TIP3    H143546   4.356   2.572  14.593 -0.6186 -0.6327 -2.6913
 7377TIP3    H243547   4.434   2.702  14.589 -2.1227  0.3344 -1.5716
 7378TIP3   OH243548   1.168   0.123  11.796 -0.0262  0.0949 -0.1743
 7378TIP3    H143549   1.097   0.064  11.820  0.2758 -0.7452 -1.2592
 7378TIP3    H243550   1.159   0.135  11.701  2.1400 -1.2635 -0.6392
 7379TIP3   OH243551   6.744   1.137  12.604  0.2808  0.2480 -0.2226
 7379TIP3    H143552   6.708   1.103  12.522 -0.1996  0.7753 -0.2339
 7379TIP3    H243553   6.682   1.111  12.671  0.3812  0.3111 -0.1046
 7380TIP3   OH243554   3.861   2.360   4.655  0.6438  0.0548  0.0455
 7380TIP3    H143555   3.918   2.420   4.606  1.4234  0.7808  1.7401
 7380TIP3    H243556   3.805   2.418   4.706 -1.6068 -0.6501 -1.4891
 7381TIP3   OH243557   4.567   0.512  16.032 -0.4780  0.3583 -0.3336
 7381TIP3    H143558   4.586   0.418  16.034 -0.2925  0.4121  0.6476
 7381TIP3    H243559   4.607   0.547  16.111 -0.4996  1.2824 -0.7178
 7382TIP3   OH243560   0.056   2.523  13.361 -0.2881  0.1692 -0.5336
 7382TIP3    H143561   0.029   2.433  13.380 -2.4062  0.7372 -0.5660
 7382TIP3    H243562   0.012   2.576  13.427  0.4223  1.2495 -0.8927
 7383TIP3   OH243563   6.348   6.190  11.687  0.0619  0.0625  0.4116
 7383TIP3    H143564   6.418   6.241  11.648 -0.3671  1.7141  1.6695
 7383TIP3    H243565   6.385   6.158  11.770 -0.1959 -0.3270  0.3808
 7384TIP3   OH243566   6.007   5.895  15.492 -0.1136  0.6257 -0.1218
 7384TIP3    H143567   6.069   5.849  15.436 -0.7149  1.1105 -1.2100
 7384TIP3    H243568   5.946   5.826  15.521 -0.7173  0.6229 -1.3421
 7385TIP3   OH243569   6.422   0.172  15.969 -0.3293  0.5261 -0.8850
 7385TIP3    H143570   6.363   0.238  16.007 -2.3230 -0.9334 -1.2946
 7385TIP3    H243571   6.465   0.219  15.897  2.1609  2.8018  1.8418
 7386TIP3   OH243572   3.994   6.254  14.072 -0.0806 -0.3755  0.3821
 7386TIP3    H143573   4.004   6.285  13.982 -0.1907  0.3204  0.6023
 7386TIP3    H243574   4.042   6.171  14.075 -0.3420 -0.5626 -0.3951
 7387TIP3   OH243575   3.379   4.231  15.019 -0.2511 -0.0077  0.4242
 7387TIP3    H143576   3.471   4.221  15.043 -0.3077 -1.3998  0.1714
 7387TIP3    H243577   3.336   4.155  15.058 -1.4222  0.9607  1.0887
 7388TIP3   OH243578   0.521   6.458   1.901 -0.6349  0.6034  0.3902
 7388TIP3    H143579   0.490   6.375   1.865 -0.6205  0.6027  0.3790
 7388TIP3    H243580   0.454   6.484   1.964 -1.6466  1.5895 -1.0316
 7389TIP3   OH243581   0.231   4.013   0.653 -0.0266  0.7206 -0.1547
 7389TIP3    H143582   0.230   3.919   0.635  0.1746  0.7199 -0.1560
 7389TIP3    H243583   0.273   4.052   0.576  0.1873  0.7818 -0.0067
 7390TIP3   OH243584   6.501   6.185   0.729 -0.5147  0.0449 -0.4856
 7390TIP3    H143585   6.485   6.224   0.815  2.9865  1.6873 -0.3944
 7390TIP3    H243586   6.532   6.096   0.747 -1.4220 -0.2128 -0.1815
 7391TIP3   OH243587   5.562   4.496  14.407 -0.2468 -0.1474 -0.4435
 7391TIP3    H143588   5.539   4.472  14.497  0.0714 -0.0239 -0.3280
 7391TIP3    H243589   5.654   4.472  14.399 -0.3429 -0.3956 -0.8205
 7392TIP3   OH243590   4.183   4.018   4.637 -0.0529 -0.2317  0.2234
 7392TIP3    H143591   4.227   4.073   4.572  0.3332  0.9958  1.4679
 7392TIP3    H243592   4.200   3.929   4.609  1.0749  0.2594 -0.7339
 7393TIP3   OH243593   2.822   4.310   1.970 -0.1358 -0.0402  0.2859
 7393TIP3    H143594   2.913   4.285   1.955  0.9388  2.4278  2.0712
 7393TIP3    H243595   2.814   4.397   1.932 -1.7653 -0.1727  0.2266
 7394TIP3   OH243596   2.169   5.658   1.700  0.3888 -0.0974 -0.0603
 7394TIP3    H143597   2.193   5.567   1.718  1.6751  0.2910  0.2850
 7394TIP3    H243598   2.219   5.681   1.621 -0.4752  0.0989 -0.5566
 7395TIP3   OH243599   3.404   3.981  11.414  0.6945 -0.0548  0.1509
 7395TIP3    H143600   3.402   4.060  11.468 -1.7768  0.4709 -0.6173
 7395TIP3    H243601   3.384   4.012  11.326  0.9256 -1.4050 -0.3933
 7396TIP3   OH243602   6.725   2.276  14.496  0.0185 -0.1293 -0.6667
 7396TIP3    H143603   6.812   2.239  14.483  0.7952  1.8647 -1.7171
 7396TIP3    H243604   6.738   2.371  14.486 -2.2170  0.2477 -0.5068
 7397TIP3   OH243605   1.768   5.216  11.219 -0.0091  0.0384  0.5859
 7397TIP3    H143606   1.751   5.207  11.126 -0.7738  1.3383  0.5802
 7397TIP3    H243607   1.788   5.309  11.232 -0.0286 -0.0940  1.7270
 7398TIP3   OH243608   1.275   3.534   1.497 -0.6491  0.0859  0.1278
 7398TIP3    H143609   1.277   3.606   1.560  0.0803  0.8435 -0.7301
 7398TIP3    H243610   1.367   3.509   1.486 -0.9100 -1.1390  0.5778
 7399TIP3   OH243611   3.832   5.076   2.492 -0.0456  0.4321 -0.1771
 7399TIP3    H143612   3.783   5.043   2.417 -2.4821  2.0124  0.5740
 7399TIP3    H243613   3.803   5.022   2.566  0.1750  0.6771  0.0957
 7400TIP3   OH243614   4.998   5.695   3.054  0.0923 -0.1738  0.4380
 7400TIP3    H143615   4.933   5.667   3.118  1.1409 -0.4836  1.3909
 7400TIP3    H243616   4.948   5.748   2.991 -1.0601 -0.3543  1.1735
 7401TIP3   OH243617   5.810   3.193   1.414  0.2775 -0.4294  0.4763
 7401TIP3    H143618   5.879   3.205   1.480  3.0238 -0.5419 -2.1366
 7401TIP3    H243619   5.802   3.279   1.373 -0.2637 -0.7258 -0.0427
 7402TIP3   OH243620   6.088   2.635  10.427  0.3592  0.3761 -0.0331
 7402TIP3    H143621   6.000   2.608  10.455  0.2847 -0.7817 -1.2665
 7402TIP3    H243622   6.146   2.605  10.497  0.1325 -2.0521 -0.7889
 7403TIP3   OH243623   3.793   2.863   2.824  0.1791 -0.2503 -0.5687
 7403TIP3    H143624   3.850   2.931   2.789 -0.7407  0.4007 -0.8625
 7403TIP3    H243625   3.796   2.875   2.919  0.6688 -0.3397 -0.5720
 7404TIP3   OH243626   5.082   3.521   4.813  0.0484 -0.3595  0.3674
 7404TIP3    H143627   5.114   3.599   4.859  0.9504 -0.6406  0.2390
 7404TIP3    H243628   5.095   3.540   4.721  1.3359 -1.0900  0.3759
 7405TIP3   OH243629   0.205   1.993   3.674  0.4527  0.0894 -0.1541
 7405TIP3    H143630   0.179   1.949   3.755 -1.8499 -1.0875 -1.4342
 7405TIP3    H243631   0.172   2.083   3.684  1.1474  0.2594  0.6402
 7406TIP3   OH243632   3.084   4.272   1.961 -0.2266 -0.2222 -0.0913
 7406TIP3    H143633   3.137   4.193   1.949  0.2813  0.2658 -1.1523
 7406TIP3    H243634   3.102   4.299   2.051  0.4697 -0.6798 -0.0841
 7407TIP3   OH243635   5.473   3.917   3.221  0.3139  0.0557  0.1458
 7407TIP3    H143636   5.524   3.856   3.167 -0.7807  0.7121 -1.7279
 7407TIP3    H243637   5.522   3.999   3.216  0.1954  0.1251  0.1147
 7408TIP3   OH243638   3.881   2.867  13.101  0.2709  0.0435  0.4784
 7408TIP3    H143639   3.898   2.836  13.013  0.2673 -1.4922  0.9995
 7408TIP3    H243640   3.955   2.926  13.120 -0.2780  1.2536 -0.8984
 7409TIP3   OH243641   3.525   0.046  12.737 -0.0427 -0.0317 -0.0509
 7409TIP3    H143642   3.441   0.081  12.768  0.1152  1.5920 -1.3477
 7409TIP3    H243643   3.516   0.041  12.642  0.5872 -1.9730 -0.0634
 7410TIP3   OH243644   0.397   3.657  11.555  0.4040 -0.2800  0.3941
 7410TIP3    H143645   0.402   3.562  11.542  1.2939 -0.1369 -0.4479
 7410TIP3    H243646   0.374   3.668  11.647  0.9801 -1.3137  0.6747
 7411TIP3   OH243647   1.692   3.377  15.862  0.4065  0.0487  0.0679
 7411TIP3    H143648   1.657   3.291  15.882 -1.5975  0.3131 -1.9152
 7411TIP3    H243649   1.752   3.363  15.789 -0.2236  0.3528 -0.5201
 7412TIP3   OH243650   1.843   6.047  13.689 -0.5156 -0.5738 -0.2550
 7412TIP3    H143651   1.763   6.074  13.734 -1.0618 -1.6143 -0.5820
 7412TIP3    H243652   1.855   6.112  13.620  0.0722  0.7745  1.0612
 7413TIP3   OH243653   0.967   6.217   1.525  0.3898  0.4372 -0.8649
 7413TIP3    H143654   0.919   6.300   1.523 -2.0795 -0.8943 -2.4549
 7413TIP3    H243655   1.038   6.231   1.588 -1.0665  3.1184  0.3360
 7414TIP3   OH243656   5.404   0.567   3.207  0.1361 -0.4783 -0.1667
 7414TIP3    H143657   5.487   0.526   3.229  0.2901 -0.9471 -1.5322
 7414TIP3    H243658   5.345   0.544   3.279  0.8556 -1.1429  0.2144
 7415TIP3   OH243659   2.093   1.524   5.446 -0.0662  0.1814 -0.2554
 7415TIP3    H143660   2.173   1.491   5.488 -1.2431 -2.3892  0.1143
 7415TIP3    H243661   2.113   1.616   5.426  1.7874  0.5646  2.7764
 7416TIP3   OH243662   1.418   2.430  12.353 -0.4787  0.2405 -0.2758
 7416TIP3    H143663   1.435   2.462  12.442  0.2799  1.6894 -0.9132
 7416TIP3    H243664   1.485   2.364  12.338  0.0838  0.7737 -0.1576
 7417TIP3   OH243665   2.368   2.419  12.363 -0.6971  0.1259  0.5330
 7417TIP3    H143666   2.428   2.357  12.407 -0.5228 -1.6220 -1.9353
 7417TIP3    H243667   2.292   2.424  12.421  0.7025  0.2936  2.4500
 7418TIP3   OH243668   3.968   2.346   1.635 -0.0516  0.4503  0.6342
 7418TIP3    H143669   3.927   2.423   1.594  0.0635  1.0198  1.5703
 7418TIP3    H243670   3.958   2.277   1.570  0.0447  1.3133 -0.3289
 7419TIP3   OH243671   5.229   6.496  10.985 -0.2590 -0.0103 -0.6880
 7419TIP3    H143672   5.149   6.468  11.030 -0.5552  1.8651  0.0650
 7419TIP3    H243673   5.268   6.415  10.952 -1.1255 -1.2536  1.1471
 7420TIP3   OH243674   0.574   0.673   4.106  0.0265  0.1396  0.0312
 7420TIP3    H143675   0.532   0.601   4.060  0.1771  0.4062 -0.5275
 7420TIP3    H243676   0.605   0.732   4.037 -0.1459  0.7698  0.4766
 7421TIP3   OH243677   6.832   5.613   1.805 -0.9858 -0.7133 -0.2174
 7421TIP3    H143678   6.784   5.544   1.852 -1.3119 -0.0562  0.4453
 7421TIP3    H243679   6.882   5.566   1.739 -2.1952 -1.4758 -0.6415
 7422TIP3   OH243680   0.740   6.527  11.803 -0.7648 -0.0302 -0.4250
 7422TIP3    H143681   0.730   6.435  11.830  2.3323 -0.1812  0.6106
 7422TIP3    H243682   0.761   6.573  11.884 -0.4603  1.2412 -1.2022
 7423TIP3   OH243683   1.917   5.128  13.539 -0.3251 -0.2813  0.2572
 7423TIP3    H143684   2.005   5.110  13.573 -0.3161  0.2029  0.4892
 7423TIP3    H243685   1.864   5.144  13.616 -0.2491  1.0656  0.0554
 7424TIP3   OH243686   5.341   0.255  16.971 -0.0155  0.1683  0.3660
 7424TIP3    H143687   5.265   0.257  16.913  0.2718 -0.8571 -0.0599
 7424TIP3    H243688   5.416   0.259  16.913  0.2898  1.9378  0.8217
 7425TIP3   OH243689   1.834   0.657  13.980  0.1345  0.3290 -0.4783
 7425TIP3    H143690   1.791   0.693  14.058 -0.8027 -1.9232  0.1310
 7425TIP3    H243691   1.763   0.639  13.919  0.0179 -3.5263  0.5689
 7426TIP3   OH243692   5.869   0.522   5.650  0.0901  0.0251 -0.3579
 7426TIP3    H143693   5.841   0.531   5.559 -0.6364 -0.5289 -0.1903
 7426TIP3    H243694   5.910   0.436   5.654 -0.7801 -0.3737  0.0715
 7427TIP3   OH243695   2.131   1.122   2.948  0.0527 -0.0602  0.0568
 7427TIP3    H143696   2.109   1.177   3.023  1.1354 -1.6875  1.6728
 7427TIP3    H243697   2.067   1.144   2.881 -2.3403 -0.0241  2.2057
 7428TIP3   OH243698   0.583   5.452   5.255  0.0517 -0.5873 -0.1433
 7428TIP3    H143699   0.626   5.367   5.258 -0.0827 -0.6756 -0.6137
 7428TIP3    H243700   0.648   5.511   5.217 -0.1559 -0.6710 -0.6375
 7429TIP3   OH243701   1.862   5.072  11.716 -0.0611  0.6689 -0.1642
 7429TIP3    H143702   1.808   5.071  11.638  1.2864  0.4696 -1.1322
 7429TIP3    H243703   1.917   5.150  11.706  0.3026  0.4972  0.4554
 7430TIP3   OH243704   6.319   4.157   4.707 -0.3529  0.0409  0.7906
 7430TIP3    H143705   6.296   4.066   4.727 -0.2377  0.0321  0.8784
 7430TIP3    H243706   6.284   4.171   4.619 -1.8413  0.4177  1.3986
 7431TIP3   OH243707   4.120   6.072  11.306  0.3446 -0.1381  0.4052
 7431TIP3    H143708   4.153   5.985  11.286 -0.0654 -0.1089 -0.4253
 7431TIP3    H243709   4.191   6.131  11.280 -0.6099 -0.0174 -2.1667
 7432TIP3   OH243710   6.556   0.063  13.835  0.5077 -0.2418  0.4757
 7432TIP3    H143711   6.468   0.083  13.866 -1.0127 -3.0195 -1.5580
 7432TIP3    H243712   6.565   0.111  13.753 -0.1836 -1.7753 -0.5607
 7433TIP3   OH243713   0.835   6.675  12.169 -0.4904 -0.4003  0.1520
 7433TIP3    H143714   0.890   6.610  12.125 -0.8369 -1.5052  1.2937
 7433TIP3    H243715   0.855   6.757  12.124  1.3418 -0.9499 -0.1153
 7434TIP3   OH243716   3.783   3.641   1.184 -0.2991 -0.0480  0.2893
 7434TIP3    H143717   3.814   3.571   1.242  0.1197  0.0789  0.2237
 7434TIP3    H243718   3.847   3.642   1.112 -0.0720  0.6756  0.4974
 7435TIP3   OH243719   4.576   3.607   2.572 -0.1968 -1.2606  0.2071
 7435TIP3    H143720   4.558   3.562   2.490 -0.6224  0.4301 -0.6689
 7435TIP3    H243721   4.626   3.544   2.623 -2.6397 -3.5858 -0.0288
 7436TIP3   OH243722   3.873   4.670   3.875  1.0603 -0.4299  0.1224
 7436TIP3    H143723   3.953   4.618   3.877  1.2357 -0.2946 -1.6082
 7436TIP3    H243724   3.806   4.609   3.844  0.9938  0.0375 -0.6704
 7437TIP3   OH243725   6.385   4.890  16.900 -0.2998 -0.0044  0.2024
 7437TIP3    H143726   6.453   4.887  16.968 -1.0349  1.8283  1.1097
 7437TIP3    H243727   6.410   4.964  16.845  0.0619 -1.2217 -1.3300
 7438TIP3   OH243728   6.109   3.173  11.123  0.1804 -0.0369 -0.3231
 7438TIP3    H143729   6.020   3.206  11.111 -0.0484  0.6165  2.4482
 7438TIP3    H243730   6.097   3.083  11.154  0.6330 -0.8482 -2.3366
 7439TIP3   OH243731   3.747   4.333  15.565 -0.3367  0.1955 -0.0334
 7439TIP3    H143732   3.814   4.303  15.504  0.5829 -1.5367  1.7204
 7439TIP3    H243733   3.722   4.255  15.614 -4.2893  0.5699 -1.1032
 7440TIP3   OH243734   4.635   5.741   0.697  0.1727 -0.3928  0.0083
 7440TIP3    H143735   4.703   5.690   0.653 -0.0036  0.1532 -0.8987
 7440TIP3    H243736   4.616   5.690   0.776  0.6684 -1.2510 -0.4057
 7441TIP3   OH243737   1.586   1.349  13.125  0.1573  0.0209  0.4844
 7441TIP3    H143738   1.538   1.347  13.208  2.1617 -0.5779  1.6809
 7441TIP3    H243739   1.646   1.423  13.134  0.6021 -0.2356 -0.3301
 7442TIP3   OH243740   2.804   4.671  11.623  0.2033 -0.0716  0.1545
 7442TIP3    H143741   2.788   4.625  11.540 -0.1933 -0.4075  0.4140
 7442TIP3    H243742   2.823   4.761  11.597 -1.7452  0.2670 -0.1989
 7443TIP3   OH243743   1.468   1.456   0.316  0.1307 -0.0167 -0.7247
 7443TIP3    H143744   1.523   1.466   0.394 -1.9845 -0.1248  0.9105
 7443TIP3    H243745   1.503   1.517   0.253 -0.0805  2.6933  1.5741
 7444TIP3   OH243746   6.233   6.071   1.025 -0.0475  0.4704 -0.0759
 7444TIP3    H143747   6.221   6.083   0.931 -0.4328  0.3603 -0.0410
 7444TIP3    H243748   6.154   6.108   1.064  0.9668  2.3427  0.3240
 7445TIP3   OH243749   2.423   4.415   3.246  0.0382 -0.1315  0.0653
 7445TIP3    H143750   2.336   4.441   3.216  0.2467  3.0458  1.7663
 7445TIP3    H243751   2.482   4.447   3.178  0.0569  0.1467  0.2147
 7446TIP3   OH243752   6.070   5.627   0.286 -0.0263 -0.4348 -0.7213
 7446TIP3    H143753   6.027   5.541   0.280  1.9406 -1.4615 -0.9662
 7446TIP3    H243754   6.000   5.687   0.312 -0.7762 -2.7852  3.9147
 7447TIP3   OH243755   0.700   5.115  15.986  0.1216 -0.3093  0.0419
 7447TIP3    H143756   0.795   5.126  15.976  0.4212 -2.4312  0.0871
 7447TIP3    H243757   0.691   5.048  16.053 -1.4311 -0.2205 -0.0529
 7448TIP3   OH243758   6.451   4.861   0.951 -0.2293 -0.2813 -0.0010
 7448TIP3    H143759   6.394   4.937   0.939 -0.4579  0.0922  2.7137
 7448TIP3    H243760   6.538   4.892   0.926 -0.3171  0.9280  1.0908
 7449TIP3   OH243761   1.678   6.079  16.625 -0.4124  0.0758 -0.6126
 7449TIP3    H143762   1.698   6.056  16.534  2.0417  0.2398 -0.1802
 7449TIP3    H243763   1.659   6.173  16.621  0.4590  0.2509 -0.8667
 7450TIP3   OH243764   6.538   0.697   3.857  0.5817 -0.0802  0.1835
 7450TIP3    H143765   6.577   0.712   3.771  0.8778  0.8586  0.4728
 7450TIP3    H243766   6.458   0.647   3.839  1.0384 -0.5584 -0.5593
 7451TIP3   OH243767   0.928   5.141  15.127 -0.0744 -0.5468  0.0080
 7451TIP3    H143768   0.982   5.163  15.202  0.3276 -2.7356  0.4260
 7451TIP3    H243769   0.963   5.193  15.055 -0.5941  1.7415  1.3198
 7452TIP3   OH243770   3.693   0.777   0.776 -0.0073  0.0225  0.2101
 7452TIP3    H143771   3.644   0.695   0.775 -0.0044  0.0132  0.5119
 7452TIP3    H243772   3.649   0.830   0.843 -0.3213  0.4632 -0.3425
 7453TIP3   OH243773   1.631   3.326   4.012 -0.0729  0.0533 -0.1764
 7453TIP3    H143774   1.541   3.330   3.980  0.4886  1.2362 -1.7591
 7453TIP3    H243775   1.683   3.370   3.944  1.4924  0.8253  1.4252
 7454TIP3   OH243776   2.319   2.340  16.865 -0.3141  0.0132 -0.3393
 7454TIP3    H143777   2.236   2.378  16.892 -0.3923  0.4137 -1.1266
 7454TIP3    H243778   2.325   2.258  16.915 -0.9555  0.2111  0.0698
 7455TIP3   OH243779   3.720   5.171  13.052  0.2736  0.6453  0.3283
 7455TIP3    H143780   3.800   5.119  13.054 -0.2134 -0.1746 -0.4156
 7455TIP3    H243781   3.658   5.121  13.105 -0.6247 -0.3294 -1.5271
 7456TIP3   OH243782   0.484   5.271  16.054 -0.2434 -1.0706  0.5372
 7456TIP3    H143783   0.515   5.358  16.077 -0.3851 -1.1814  1.1693
 7456TIP3    H243784   0.558   5.230  16.009  0.4642 -1.2601  1.8431
 7457TIP3   OH243785   3.040   6.454  13.364  0.0090  0.0845 -0.1989
 7457TIP3    H143786   3.082   6.497  13.290  1.6258 -0.3492  0.4089
 7457TIP3    H243787   3.044   6.361  13.343  0.2973 -0.0265  0.3273
 7458TIP3   OH243788   2.054   1.450  12.440  0.1546 -0.5672 -0.1210
 7458TIP3    H143789   1.984   1.508  12.469  1.0438 -0.2888  1.6507
 7458TIP3    H243790   2.091   1.493  12.363 -1.0967 -0.3301 -0.6108
 7459TIP3   OH243791   5.790   4.712  10.958  0.0483  0.2485  0.2884
 7459TIP3    H143792   5.721   4.771  10.927  1.3467  2.1133  0.7454
 7459TIP3    H243793   5.799   4.733  11.051  2.6885  1.7306 -0.1818
 7460TIP3   OH243794   5.858   6.544   3.807  0.1896  0.6283  0.2397
 7460TIP3    H143795   5.797   6.583   3.870  0.4503  0.1871  0.7695
 7460TIP3    H243796   5.815   6.556   3.722 -1.4199 -1.1128  0.7316
 7461TIP3   OH243797   0.883   0.408   3.622  0.7965  0.1221 -0.4286
 7461TIP3    H143798   0.878   0.477   3.555 -1.2997 -0.4719 -0.9509
 7461TIP3    H243799   0.827   0.338   3.589  0.4601 -0.5850  1.4972
 7462TIP3   OH243800   4.279   0.566  10.515 -0.0227  0.0895  0.4686
 7462TIP3    H143801   4.272   0.578  10.421 -0.5767 -3.4053 -0.0935
 7462TIP3    H243802   4.190   0.541  10.543  0.5016 -0.6325  1.5748
 7463TIP3   OH243803   4.945   1.902   5.348  0.8785  0.8756 -0.0007
 7463TIP3    H143804   5.026   1.890   5.397  0.9313  0.5628 -0.1676
 7463TIP3    H243805   4.890   1.829   5.374  1.1168  0.3875 -0.8373
 7464TIP3   OH243806   1.244   1.843  16.570  0.3026 -0.3870  0.3581
 7464TIP3    H143807   1.242   1.799  16.655 -2.9676  0.3353  0.7795
 7464TIP3    H243808   1.224   1.775  16.506  0.0400 -0.4316  0.4869
 7465TIP3   OH243809   1.797   0.167   1.073  0.3678 -0.3601 -0.3609
 7465TIP3    H143810   1.874   0.111   1.060  0.3033 -0.5921  0.2141
 7465TIP3    H243811   1.782   0.207   0.988  0.3517 -1.3009 -0.8124
 7466TIP3   OH243812   0.622   5.870  10.969 -0.0621  0.0244 -0.3528
 7466TIP3    H143813   0.694   5.842  10.912 -0.7834  0.1497 -1.3540
 7466TIP3    H243814   0.586   5.947  10.926 -1.3517 -0.5473 -0.3392
 7467TIP3   OH243815   3.045   1.888  10.722 -0.0942 -0.4807 -0.3282
 7467TIP3    H143816   3.067   1.930  10.805  0.6307 -1.1121 -0.1888
 7467TIP3    H243817   3.130   1.860  10.686 -0.5445 -1.7849 -0.4305
 7468TIP3   OH243818   6.385   5.696  14.259  0.2327 -0.3613 -0.4066
 7468TIP3    H143819   6.391   5.646  14.177  1.7130 -2.2228  0.7691
 7468TIP3    H243820   6.370   5.631  14.327 -0.3714  1.0835  0.9229
 7469TIP3   OH243821   5.878   1.712   4.325 -0.6523  0.3474  0.5883
 7469TIP3    H143822   5.880   1.750   4.237 -1.3035 -1.5844 -0.3202
 7469TIP3    H243823   5.793   1.738   4.360 -0.7774  0.3739  0.2734
 7470TIP3   OH243824   3.512   3.360   4.642 -0.2648 -0.0633 -0.1428
 7470TIP3    H143825   3.490   3.270   4.618 -0.4734  0.1627 -0.8123
 7470TIP3    H243826   3.499   3.410   4.561  1.1622  0.3391 -0.1459
 7471TIP3   OH243827   1.069   5.087  16.576  0.1901 -0.1986 -0.1437
 7471TIP3    H143828   0.976   5.099  16.597  0.0993 -0.6184 -0.2926
 7471TIP3    H243829   1.115   5.134  16.645 -0.1270 -0.6630  0.4000
 7472TIP3   OH243830   1.621   4.970  12.258 -0.5725 -1.0761 -0.3207
 7472TIP3    H143831   1.712   4.986  12.282 -0.4714  2.5122 -2.4697
 7472TIP3    H243832   1.572   4.983  12.340  0.7296 -2.7532  0.7878
 7473TIP3   OH243833   3.824   3.680  11.297 -0.5746  0.6065 -0.2097
 7473TIP3    H143834   3.739   3.719  11.279 -0.0172  2.0349  0.0664
 7473TIP3    H243835   3.875   3.752  11.335  0.7990 -0.1684 -0.5294
 7474TIP3   OH243836   3.773   3.359  11.376 -0.5326 -0.6566  0.1971
 7474TIP3    H143837   3.758   3.444  11.334 -0.3274  0.4000  2.1139
 7474TIP3    H243838   3.688   3.335  11.413 -0.1445 -0.2331  1.4224
 7475TIP3   OH243839   2.437   2.365   4.401 -0.1027 -0.1240 -0.1303
 7475TIP3    H143840   2.419   2.298   4.468  0.3967  1.0342  1.2048
 7475TIP3    H243841   2.350   2.395   4.374 -0.3330 -1.2743 -0.7282
 7476TIP3   OH243842   2.114   3.552   2.360 -0.1793 -0.5129 -0.4181
 7476TIP3    H143843   2.025   3.587   2.363 -0.8175 -2.0108 -0.5692
 7476TIP3    H243844   2.123   3.504   2.443  0.4652 -0.4128 -0.4275
 7477TIP3   OH243845   3.872   3.696   0.267 -0.1446  0.0809 -0.0221
 7477TIP3    H143846   3.864   3.601   0.280 -1.1093  0.3981  1.8802
 7477TIP3    H243847   3.884   3.705   0.172 -1.6209 -1.8432 -0.4581
 7478TIP3   OH243848   6.771   2.864  16.895 -0.3570 -0.1132  0.1392
 7478TIP3    H143849   6.743   2.913  16.819  1.0022  0.4163 -0.0510
 7478TIP3    H243850   6.847   2.813  16.865  0.3436  0.2708  1.1645
 7479TIP3   OH243851   2.082   2.522   3.019  0.1221  0.1393 -0.1960
 7479TIP3    H143852   2.119   2.475   3.095 -0.5052  0.7889  0.5243
 7479TIP3    H243853   2.059   2.452   2.957  0.0639 -0.4481  0.4698
 7480TIP3   OH243854   3.541   4.798  11.561  0.0907  0.5564  0.1185
 7480TIP3    H143855   3.486   4.762  11.631  0.6552  1.2459  0.9257
 7480TIP3    H243856   3.578   4.878  11.598 -0.3558  1.4519 -1.3109
 7481TIP3   OH243857   5.885   6.753   2.975 -0.1628 -0.3144 -0.3276
 7481TIP3    H143858   5.820   6.711   2.920  0.6081 -2.0293  0.0027
 7481TIP3    H243859   5.847   6.838   2.997 -1.6438 -0.6999 -1.2809
 7482TIP3   OH243860   3.441   4.351   4.667 -0.2675 -0.1970 -0.0656
 7482TIP3    H143861   3.530   4.367   4.637 -0.1791  1.4065  0.9263
 7482TIP3    H243862   3.400   4.301   4.596  0.0744  2.8368 -2.6165
 7483TIP3   OH243863   3.661   2.970  16.994  0.0315  0.1081  1.0940
 7483TIP3    H143864   3.753   2.992  17.008 -0.3020  0.6345  2.6549
 7483TIP3    H243865   3.660   2.875  16.984  0.6649  0.0161  1.8457
 7484TIP3   OH243866   1.631   2.760   1.631  0.2879 -0.2493 -0.3604
 7484TIP3    H143867   1.683   2.839   1.642  0.1002 -0.2274  0.4466
 7484TIP3    H243868   1.658   2.725   1.546  1.2398  0.0293 -0.1802
 7485TIP3   OH243869   5.690   3.163   3.904 -0.1803  0.2702 -0.4173
 7485TIP3    H143870   5.655   3.088   3.953  1.3482 -0.3565 -0.2260
 7485TIP3    H243871   5.629   3.234   3.922 -1.0771 -0.6471  0.2770
 7486TIP3   OH243872   6.112   4.405   2.799 -0.1473  0.0640 -0.2790
 7486TIP3    H143873   6.198   4.443   2.818  0.1565 -0.6670 -0.1193
 7486TIP3    H243874   6.050   4.476   2.814  0.4984  0.8606 -1.2721
 7487TIP3   OH243875   2.298   2.810  11.051 -0.9595 -0.1940 -0.0860
 7487TIP3    H143876   2.341   2.784  11.133 -1.9997 -0.6376  0.3275
 7487TIP3    H243877   2.244   2.736  11.027  0.2900 -0.5839 -1.8927
 7488TIP3   OH243878   6.385   6.015   3.990 -0.1447  0.2271 -0.2187
 7488TIP3    H143879   6.454   6.073   3.960  1.6987 -1.2201  0.9755
 7488TIP3    H243880   6.309   6.072   4.003  0.7711  1.8657 -1.5905
 7489TIP3   OH243881   6.430   5.079   5.216  0.3823 -0.0582  0.4747
 7489TIP3    H143882   6.466   5.025   5.145  2.0522  1.2499  0.2405
 7489TIP3    H243883   6.343   5.102   5.186  0.9848  0.3294 -1.1149
 7490TIP3   OH243884   2.753   5.412  16.806 -0.5406  0.1794  0.3532
 7490TIP3    H143885   2.796   5.470  16.869 -0.0199 -0.6480  0.7825
 7490TIP3    H243886   2.676   5.380  16.852 -1.5921  1.5809 -0.3785
 7491TIP3   OH243887   2.464   3.621   2.617  0.0505 -0.0682  0.8870
 7491TIP3    H143888   2.497   3.613   2.528  0.8825  0.6287  1.1190
 7491TIP3    H243889   2.494   3.707   2.646 -2.1489  0.7110  1.0548
 7492TIP3   OH243890   3.804   5.848  11.944 -0.2769  0.0627 -0.3381
 7492TIP3    H143891   3.755   5.790  12.001  1.8625 -1.1002  0.4152
 7492TIP3    H243892   3.827   5.923  11.999  0.1459 -0.1470 -0.2286
 7493TIP3   OH243893   6.355   6.545  16.713 -0.1871  0.0604  0.9254
 7493TIP3    H143894   6.339   6.636  16.737  0.2958  0.3877  0.0144
 7493TIP3    H243895   6.440   6.545  16.670  0.1514 -0.9386  1.5514
 7494TIP3   OH243896   2.109   5.442  10.683 -0.5204 -0.4606 -0.5343
 7494TIP3    H143897   2.091   5.359  10.728  0.3390 -0.3125  0.1058
 7494TIP3    H243898   2.085   5.426  10.592  1.1250 -1.9437 -0.7644
 7495TIP3   OH243899   1.432   1.672  11.309 -0.1478 -0.2217  0.5437
 7495TIP3    H143900   1.398   1.615  11.239 -0.9645  0.2260  0.5622
 7495TIP3    H243901   1.382   1.648  11.386  0.5830 -0.5405  0.9253
 7496TIP3   OH243902   2.262   2.807   2.167  0.4932 -0.0395 -0.1912
 7496TIP3    H143903   2.352   2.836   2.172  0.6410 -0.6736  1.6860
 7496TIP3    H243904   2.211   2.880   2.202  0.3721 -0.0132 -0.4243
 7497TIP3   OH243905   4.761   6.286  13.118  0.3076 -0.1833  0.9437
 7497TIP3    H143906   4.737   6.373  13.084 -0.3745 -0.5150  0.5613
 7497TIP3    H243907   4.838   6.261  13.068  1.5931  0.9381  2.2504
 7498TIP3   OH243908   3.405   0.232  11.087  0.0204 -0.1271  0.8470
 7498TIP3    H143909   3.484   0.241  11.033  0.2446  1.3729  1.3634
 7498TIP3    H243910   3.341   0.190  11.029  1.2148 -1.5097  0.4623
 7499TIP3   OH243911   5.245   3.439   5.469 -0.5577 -0.1106 -0.5860
 7499TIP3    H143912   5.281   3.350   5.469 -1.5391 -0.5181 -0.2546
 7499TIP3    H243913   5.307   3.490   5.520 -1.2637 -1.1610  1.4168
 7500TIP3   OH243914   5.996   2.330   0.056  0.1108 -0.0722 -0.9106
 7500TIP3    H143915   6.000   2.303  -0.036 -0.5471 -1.4867 -0.5608
 7500TIP3    H243916   5.969   2.422   0.054 -3.2103 -0.9299 -2.0967
 7501TIP3   OH243917   0.771   4.319   5.032  0.0357  0.1232 -0.3584
 7501TIP3    H143918   0.785   4.323   4.937  1.3638 -0.0339 -0.1947
 7501TIP3    H243919   0.831   4.384   5.067 -1.1335  0.8557  0.3313
 7502TIP3   OH243920   5.097   6.592  13.556 -0.0423 -0.0688  0.1799
 7502TIP3    H143921   5.029   6.525  13.541  0.3436 -0.6167  0.8293
 7502TIP3    H243922   5.150   6.590  13.476 -0.1065 -0.4596  0.1435
 7503TIP3   OH243923   2.572   0.192   4.304 -0.2672  0.7030 -0.0566
 7503TIP3    H143924   2.501   0.217   4.363  0.0504 -1.0371  1.1333
 7503TIP3    H243925   2.639   0.156   4.361  0.5792  0.1124 -1.3749
 7504TIP3   OH243926   0.524   3.279  14.521  0.4088  0.0193 -0.3875
 7504TIP3    H143927   0.599   3.242  14.474 -0.4877 -0.6954 -1.2821
 7504TIP3    H243928   0.546   3.372  14.529  0.1108  0.4265 -3.2617
 7505TIP3   OH243929   0.344   4.596  15.058 -0.1559 -0.6126 -0.2887
 7505TIP3    H143930   0.279   4.527  15.071  0.2900 -0.8869  0.5908
 7505TIP3    H243931   0.326   4.630  14.970 -1.7354 -0.4040  0.0832
 7506TIP3   OH243932   6.495   3.603   4.864 -0.4063 -0.2818  0.2892
 7506TIP3    H143933   6.400   3.605   4.853 -0.2403 -0.9721 -1.5354
 7506TIP3    H243934   6.526   3.540   4.800  1.2847 -0.2565  1.0210
 7507TIP3   OH243935   3.422   3.095   2.655 -0.0064  0.3784 -0.2149
 7507TIP3    H143936   3.334   3.131   2.642  0.0466  0.6776  0.2378
 7507TIP3    H243937   3.424   3.016   2.600  0.5538  2.1019 -2.8650
 7508TIP3   OH243938   5.265   0.307   3.740 -0.6876 -0.5059  0.0117
 7508TIP3    H143939   5.333   0.308   3.672 -1.5696 -0.1411 -0.8943
 7508TIP3    H243940   5.271   0.220   3.779 -0.0268 -0.6504 -0.3915
 7509TIP3   OH243941   5.945   4.582  13.955 -0.1989  0.1811 -0.0136
 7509TIP3    H143942   5.954   4.488  13.941 -0.6875 -0.2661  2.2496
 7509TIP3    H243943   5.851   4.598  13.950 -0.1054  0.5930 -0.5440
 7510TIP3   OH243944   5.107   3.610  13.359 -0.0771 -0.7449  0.4939
 7510TIP3    H143945   5.053   3.586  13.434  0.3594 -3.4759  0.0640
 7510TIP3    H243946   5.076   3.553  13.288  0.6020  0.6032 -0.9485
 7511TIP3   OH243947   6.373   4.560   0.877  0.2610 -0.4694 -0.0347
 7511TIP3    H143948   6.303   4.536   0.937 -0.5675 -0.5825 -1.0297
 7511TIP3    H243949   6.374   4.655   0.876  0.2391 -0.4688  0.1181
 7512TIP3   OH243950   1.024   3.229   2.934 -0.4887  0.0322  0.0374
 7512TIP3    H143951   0.993   3.144   2.901 -2.1723  0.0921  1.3092
 7512TIP3    H243952   1.113   3.211   2.963 -0.5733 -1.1381 -0.3336
 7513TIP3   OH243953   1.131   5.714  14.665 -0.7185  0.1768 -0.3448
 7513TIP3    H143954   1.080   5.743  14.590 -1.1406  1.6966  0.4990
 7513TIP3    H243955   1.203   5.777  14.671 -0.2324 -0.4066  0.0440
 7514TIP3   OH243956   1.680   2.420   2.319 -0.6466 -0.0036 -0.1729
 7514TIP3    H143957   1.593   2.391   2.345 -1.1676  0.3808 -1.4140
 7514TIP3    H243958   1.678   2.419   2.223  0.1066  1.7680 -0.2432
 7515TIP3   OH243959   1.346   0.188  12.992  0.0761  0.4225  0.0551
 7515TIP3    H143960   1.392   0.266  13.024  1.2057  0.8644 -2.3787
 7515TIP3    H243961   1.364   0.121  13.058  1.4204  1.4907  0.8395
 7516TIP3   OH243962   2.884   5.758   5.233 -0.4461  0.0505 -0.4587
 7516TIP3    H143963   2.911   5.829   5.175  1.3172 -1.4869 -1.6478
 7516TIP3    H243964   2.851   5.690   5.174 -0.7328 -0.6886  0.5182
 7517TIP3   OH243965   5.249   6.603  16.577 -0.0135 -0.5660  0.3245
 7517TIP3    H143966   5.321   6.599  16.639 -0.1594 -0.3264  0.5106
 7517TIP3    H243967   5.216   6.692  16.583 -1.1226 -1.0131  1.1586
 7518TIP3   OH243968   3.922   2.350   5.922  0.4216 -0.3078  0.9501
 7518TIP3    H143969   3.835   2.310   5.913 -0.2221  1.3085 -0.6667
 7518TIP3    H243970   3.969   2.322   5.844 -0.5235  2.9859 -1.0196
 7519TIP3   OH243971   5.491   1.655  10.906 -0.1984  0.1587  0.0001
 7519TIP3    H143972   5.487   1.693  10.994 -0.4799 -1.3602  0.6730
 7519TIP3    H243973   5.399   1.644  10.881 -0.1253  0.9141 -0.6622
 7520TIP3   OH243974   3.601   2.434   3.083  0.2514  0.0300  0.7402
 7520TIP3    H143975   3.648   2.500   3.032  1.4204 -0.0569  1.6675
 7520TIP3    H243976   3.529   2.482   3.124 -0.2299  0.2575 -0.3411
 7521TIP3   OH243977   1.013   1.503  14.135 -0.4697 -0.1941  0.1414
 7521TIP3    H143978   0.954   1.431  14.160  0.2634 -1.5263 -1.7133
 7521TIP3    H243979   1.073   1.511  14.209  0.0116 -2.1716  0.0406
 7522TIP3   OH243980   5.442   6.427   1.972  0.6323 -0.3493 -0.2563
 7522TIP3    H143981   5.530   6.464   1.978  0.6953 -0.7198  1.5330
 7522TIP3    H243982   5.402   6.475   1.900  1.8460  0.7839 -0.2303
 7523TIP3   OH243983   2.605   2.406  13.204  0.1766  0.3921 -0.2704
 7523TIP3    H143984   2.697   2.407  13.231  0.2444 -0.7622 -0.3950
 7523TIP3    H243985   2.606   2.440  13.114  0.3105  1.5855  0.1774
 7524TIP3   OH243986   4.774   5.848   3.753  0.4429  0.3174  0.0568
 7524TIP3    H143987   4.759   5.811   3.840  0.0347 -0.1332 -0.1987
 7524TIP3    H243988   4.868   5.870   3.752  0.4349  0.3923  0.6299
 7525TIP3   OH243989   5.391   0.275  16.374 -0.1861  0.1670 -0.5839
 7525TIP3    H143990   5.319   0.326  16.412 -0.6436  0.6942 -2.1130
 7525TIP3    H243991   5.470   0.318  16.407 -0.5614  1.9704 -1.8860
 7526TIP3   OH243992   5.149   1.190  13.653 -0.2691  0.6559 -0.2000
 7526TIP3    H143993   5.233   1.232  13.635  0.9338 -0.5274  2.0900
 7526TIP3    H243994   5.126   1.221  13.741 -2.1743  0.8192 -0.7287
 7527TIP3   OH243995   5.985   6.030   3.947 -0.0307 -0.1299 -0.3885
 7527TIP3    H143996   5.916   6.021   4.013 -0.2791 -0.6599 -0.7158
 7527TIP3    H243997   6.016   5.940   3.932  2.7824  0.3128  1.9087
 7528TIP3   OH243998   0.695   6.235   0.433  0.1773 -0.1540  0.2809
 7528TIP3    H143999   0.785   6.259   0.413  0.4261 -1.3104 -0.0669
 7528TIP3    H244000   0.700   6.145   0.466 -1.1673 -1.9723 -3.7445
 7529TIP3   OH244001   2.873   2.600  11.538  0.2239  0.3144 -0.6647
 7529TIP3    H144002   2.914   2.660  11.600  1.1577 -1.1379  0.1537
 7529TIP3    H244003   2.780   2.621  11.544  0.5265  1.7929 -0.5385
 7530TIP3   OH244004   1.246   5.585   4.229  0.2069  0.3458 -0.3889
 7530TIP3    H144005   1.220   5.603   4.138  1.9693  1.6749 -0.6841
 7530TIP3    H244006   1.246   5.489   4.235 -1.9559  0.2318 -1.1180
 7531TIP3   OH244007   2.018   1.873  14.000 -0.9521 -0.2948 -0.5715
 7531TIP3    H144008   1.971   1.800  13.961 -1.4886 -0.1576 -0.1974
 7531TIP3    H244009   2.070   1.834  14.070 -4.3041  0.0689  2.4236
 7532TIP3   OH244010   1.314   3.802   5.523  0.5236  0.0895  0.5837
 7532TIP3    H144011   1.341   3.832   5.610 -1.8452  0.0786  1.3899
 7532TIP3    H244012   1.251   3.731   5.540  0.2229 -0.1075 -1.1459
 7533TIP3   OH244013   3.019   0.462   3.960  0.2306  0.1786 -0.2339
 7533TIP3    H144014   3.099   0.473   4.012  0.1965 -2.1363  0.4162
 7533TIP3    H244015   2.955   0.428   4.022 -0.8120  0.5186 -1.1001
 7534TIP3   OH244016   0.696   6.262  12.305 -0.0813  0.0763 -0.4787
 7534TIP3    H144017   0.631   6.222  12.248  0.4730 -1.5329 -0.0576
 7534TIP3    H244018   0.701   6.353  12.277 -2.7179  0.3425 -0.3002
 7535TIP3   OH244019   3.874   2.586  13.198 -0.7864 -0.7712  0.0570
 7535TIP3    H144020   3.818   2.604  13.273 -1.1528  0.6930 -0.5362
 7535TIP3    H244021   3.895   2.672  13.162  0.0970 -1.4002 -1.0064
 7536TIP3   OH244022   1.203   3.329  12.484 -0.0788 -0.5785  0.2748
 7536TIP3    H144023   1.220   3.235  12.487  1.8134 -0.3987 -1.9160
 7536TIP3    H244024   1.125   3.341  12.539  0.0688 -3.2807  1.2443
 7537TIP3   OH244025   1.480   5.710   4.210  0.1299 -0.0185 -0.3563
 7537TIP3    H144026   1.392   5.673   4.215 -0.2566  0.8428 -0.5754
 7537TIP3    H244027   1.502   5.707   4.117  1.1154 -1.9617 -0.1076
 7538TIP3   OH244028   1.349   3.767   0.701  0.2518  0.0110 -0.2576
 7538TIP3    H144029   1.278   3.728   0.650  0.9116 -0.6456 -0.6929
 7538TIP3    H244030   1.422   3.706   0.692  1.1776  1.1274 -0.6036
 7539TIP3   OH244031   2.228   1.133  16.472  0.2547  0.0152  0.7257
 7539TIP3    H144032   2.159   1.144  16.407  0.2742 -2.0295  0.2877
 7539TIP3    H244033   2.190   1.166  16.553 -0.1202  1.7057 -0.0812
 7540TIP3   OH244034   5.201   4.736   2.184 -0.5898  0.1525  0.1590
 7540TIP3    H144035   5.111   4.704   2.184 -0.6684  0.2678  2.1126
 7540TIP3    H244036   5.228   4.733   2.276  0.6517  2.1859 -0.0672
 7541TIP3   OH244037   3.034   0.745  13.875 -0.0698 -0.1042  0.3636
 7541TIP3    H144038   3.017   0.812  13.809 -1.8423 -1.0587 -0.2137
 7541TIP3    H244039   2.992   0.778  13.955 -1.5696 -0.7995 -0.1053
 7542TIP3   OH244040   0.950   0.014  16.873  0.0929 -0.5089 -0.5353
 7542TIP3    H144041   1.022   0.076  16.862 -1.0155  0.6897 -1.4360
 7542TIP3    H244042   0.948  -0.005  16.967  0.2927  1.0763 -0.1813
 7543TIP3   OH244043   6.707   5.358  11.478 -0.1632  0.2209 -1.0954
 7543TIP3    H144044   6.712   5.378  11.384  0.3842  0.6431 -0.9788
 7543TIP3    H244045   6.693   5.264  11.481 -0.9587  0.3097 -1.6182
 7544TIP3   OH244046   3.745   5.737   3.931 -0.3165  0.0268 -0.1926
 7544TIP3    H144047   3.812   5.785   3.981 -0.7503  1.8559 -1.2803
 7544TIP3    H244048   3.791   5.708   3.852  0.4485 -3.1192  1.2163
 7545TIP3   OH244049   1.115   2.441   6.288 -0.0486 -0.5678 -0.0205
 7545TIP3    H144050   1.074   2.473   6.368 -0.2892  0.7468 -0.6351
 7545TIP3    H244051   1.046   2.450   6.221  0.4138 -0.8289 -0.5425
 7546TIP3   OH244052   2.228   4.590   0.385 -0.4801  0.5479 -0.4311
 7546TIP3    H144053   2.228   4.623   0.295 -0.2521 -0.0446 -0.6557
 7546TIP3    H244054   2.136   4.571   0.404 -0.4400 -0.0604 -0.8204
 7547TIP3   OH244055   0.604   5.890   0.576 -0.1207 -0.0595 -0.1430
 7547TIP3    H144056   0.669   5.831   0.539  0.8145  1.1655 -0.5165
 7547TIP3    H244057   0.629   5.899   0.668  0.9965  1.3224 -0.5416
 7548TIP3   OH244058   3.169   1.274   0.079 -0.3369  0.3510  0.7791
 7548TIP3    H144059   3.158   1.255  -0.014  1.5336  2.2048  0.0964
 7548TIP3    H244060   3.191   1.189   0.118 -2.3232 -0.6974 -0.1762
 7549TIP3   OH244061   6.325   4.621   5.441  0.3798 -0.7777  0.0080
 7549TIP3    H144062   6.349   4.604   5.350 -3.6807 -3.1844 -0.8962
 7549TIP3    H244063   6.280   4.705   5.438  0.4505 -0.7452 -0.1739
 7550TIP3   OH244064   5.280   1.624  11.902 -0.1152  1.1364 -0.1218
 7550TIP3    H144065   5.340   1.672  11.845 -0.1851  0.6846 -0.5825
 7550TIP3    H244066   5.199   1.675  11.900  0.1324  1.5502  0.2126
 7551TIP3   OH244067   3.314   2.880   0.896 -0.5267  0.2865  0.3218
 7551TIP3    H144068   3.255   2.808   0.873  2.3454 -2.0953 -0.2250
 7551TIP3    H244069   3.356   2.903   0.814  1.4760 -0.2748  1.1241
 7552TIP3   OH244070   1.791   0.038  14.936 -0.0984 -0.1121  0.0097
 7552TIP3    H144071   1.742   0.060  15.015  0.3215  0.8232  0.0234
 7552TIP3    H244072   1.829  -0.048  14.955 -0.3219 -0.0711  0.6657
 7553TIP3   OH244073   1.642   5.144   5.079 -0.0340 -0.3836 -0.2124
 7553TIP3    H144074   1.681   5.071   5.032  0.7555 -1.3716  1.8876
 7553TIP3    H244075   1.709   5.213   5.077  0.7593 -1.0889  1.0084
 7554TIP3   OH244076   3.250   5.257   2.400  0.4786  0.2947 -0.4590
 7554TIP3    H144077   3.253   5.315   2.323 -1.5029  4.0933  1.9902
 7554TIP3    H244078   3.171   5.205   2.388 -0.3229  1.5099 -0.6628
 7555TIP3   OH244079   6.137   5.085  15.633  0.3626  0.0273 -0.0476
 7555TIP3    H144080   6.158   5.178  15.626 -0.5982  0.2637  0.0978
 7555TIP3    H244081   6.222   5.043  15.647  0.6821  1.0191  1.3093
 7556TIP3   OH244082   4.433   1.468   0.301  0.1121 -0.1344 -0.4159
 7556TIP3    H144083   4.391   1.517   0.372  0.7666  1.7598 -1.2660
 7556TIP3    H244084   4.396   1.380   0.307 -1.7551  0.6702  0.6589
 7557TIP3   OH244085   1.598   6.011  12.970  0.3327  0.0236 -0.0829
 7557TIP3    H144086   1.529   6.030  13.034 -1.8834 -1.0037 -2.0500
 7557TIP3    H244087   1.624   6.097  12.937  0.0309  0.4207  0.6711
 7558TIP3   OH244088   2.426   4.166  13.353  0.2548 -0.3086  0.5363
 7558TIP3    H144089   2.482   4.142  13.279 -0.8596  0.0971 -0.4912
 7558TIP3    H244090   2.410   4.084  13.399 -2.4619 -1.5193 -2.1711
 7559TIP3   OH244091   0.869   3.836   5.342  0.2400  0.0271 -0.7797
 7559TIP3    H144092   0.898   3.810   5.255  1.5854 -2.9105  0.4267
 7559TIP3    H244093   0.945   3.882   5.380 -0.0347  0.5280 -0.8233
 7560TIP3   OH244094   0.867   1.021  13.895  0.2646  0.4104 -0.1710
 7560TIP3    H144095   0.796   1.082  13.875 -0.3848 -0.0582  0.6428
 7560TIP3    H244096   0.856   0.950  13.832  0.8523  0.9845 -0.9362
 7561TIP3   OH244097   0.658   1.787  15.440 -0.4119  0.0292 -0.5810
 7561TIP3    H144098   0.682   1.767  15.349  0.0011 -1.1576 -0.2317
 7561TIP3    H244099   0.628   1.878  15.437 -0.7205 -0.0903 -1.9592
 7562TIP3   OH244100   1.857   1.510   4.053  0.0036 -0.1669  0.4905
 7562TIP3    H144101   1.873   1.575   4.121  0.2718  2.1811 -1.6882
 7562TIP3    H244102   1.944   1.483   4.023 -0.0979  0.2418 -0.1902
 7563TIP3   OH244103   0.876   1.149  11.967 -0.5463 -0.2099 -0.4471
 7563TIP3    H144104   0.843   1.117  12.051  0.0548  0.1368 -0.0649
 7563TIP3    H244105   0.831   1.097  11.901  0.1944 -1.6498  0.1407
 7564TIP3   OH244106   4.326   3.503   2.404 -0.3676 -0.6261 -0.1205
 7564TIP3    H144107   4.266   3.577   2.412  0.7066  0.3002 -0.5309
 7564TIP3    H244108   4.313   3.453   2.485 -0.6177  0.3578  0.4624
 7565TIP3   OH244109   4.351   6.399  14.109 -0.1543 -0.4921 -0.4158
 7565TIP3    H144110   4.366   6.373  14.018  2.0226 -0.0541 -0.2218
 7565TIP3    H244111   4.407   6.340  14.160  0.4585  0.7919  0.4485
 7566TIP3   OH244112   4.413   5.931  16.021  0.4423  0.2542  0.3788
 7566TIP3    H144113   4.443   5.867  15.957 -1.9920 -0.8591  0.2539
 7566TIP3    H244114   4.483   5.933  16.087  0.6779 -2.4194  0.2912
 7567TIP3   OH244115   6.054   4.987  10.668  0.0160  0.1075 -0.1937
 7567TIP3    H144116   5.980   4.947  10.714 -1.3462  1.0178 -1.5045
 7567TIP3    H244117   6.018   5.065  10.627  1.7351  0.6179 -0.8368
 7568TIP3   OH244118   0.867   1.276  10.684  0.1439  0.0564  0.2485
 7568TIP3    H144119   0.813   1.261  10.762 -0.6260 -1.5487 -0.5403
 7568TIP3    H244120   0.929   1.203  10.684  1.1516  0.8881  0.1572
 7569TIP3   OH244121   4.548   5.005  10.179 -0.2592 -0.0481  0.4730
 7569TIP3    H144122   4.627   5.032  10.131  0.2613  0.5457  1.6168
 7569TIP3    H244123   4.574   4.925  10.224  0.7112  1.6089  3.1451
 7570TIP3   OH244124   2.252   5.105   3.294 -0.0158 -0.4975 -0.4898
 7570TIP3    H144125   2.206   5.137   3.217 -1.0577  2.0750  1.0540
 7570TIP3    H244126   2.335   5.154   3.295 -0.1865 -0.2086  0.2119
 7571TIP3   OH244127   4.778   2.995   5.394  0.0123  0.0858 -0.3293
 7571TIP3    H144128   4.790   2.934   5.467 -0.3595  1.7605  1.2151
 7571TIP3    H244129   4.866   3.004   5.356  0.3310 -0.4065  0.2703
 7572TIP3   OH244130   5.278   1.182   0.162  0.1474  0.3868  0.0182
 7572TIP3    H144131   5.275   1.258   0.104 -1.2670  0.3290 -0.0070
 7572TIP3    H244132   5.267   1.107   0.103 -0.1178  0.2606  0.2273
 7573TIP3   OH244133   3.435   3.236   3.689 -0.7335 -0.4456 -0.1210
 7573TIP3    H144134   3.529   3.254   3.690 -0.5590 -1.3164 -0.0112
 7573TIP3    H244135   3.400   3.292   3.620 -0.1937  0.1603  0.0938
 7574TIP3   OH244136   6.105   2.459   5.763 -0.6216  0.5726 -0.4353
 7574TIP3    H144137   6.070   2.399   5.829  0.0546  0.3426 -0.2820
 7574TIP3    H244138   6.092   2.413   5.680 -0.1308  0.2240 -0.3216
 7575TIP3   OH244139   5.774   3.603   5.983  0.0605 -0.1277  0.0454
 7575TIP3    H144140   5.816   3.624   6.066 -0.5816  2.1732 -0.1369
 7575TIP3    H244141   5.792   3.510   5.970  3.1209  0.1911  1.0853
 7576TIP3   OH244142   2.388   5.400  13.501  0.2623  0.0128  0.0482
 7576TIP3    H144143   2.400   5.495  13.503 -0.1926  0.0631  1.2803
 7576TIP3    H244144   2.296   5.388  13.478  0.2525 -0.1327  0.1652
 7577TIP3   OH244145   3.205   2.374  12.550 -0.2396  0.5754  0.1256
 7577TIP3    H144146   3.112   2.398  12.557 -0.3261 -0.2228  2.7491
 7577TIP3    H244147   3.250   2.457  12.539 -1.2469  0.9940 -1.0261
 7578TIP3   OH244148   1.727   0.485  16.586  0.2047 -0.1078 -0.2262
 7578TIP3    H144149   1.743   0.510  16.677  1.2831  0.1626 -0.4649
 7578TIP3    H244150   1.632   0.483  16.578  0.0927 -0.2262  0.9262
 7579TIP3   OH244151   0.506   5.924   1.047 -0.3597 -0.1146 -0.0333
 7579TIP3    H144152   0.479   5.985   1.116 -1.5672 -0.1077 -0.4751
 7579TIP3    H244153   0.502   5.838   1.089  0.6711  0.0347  0.3968
 7580TIP3   OH244154   4.105   5.277  12.165 -0.0574 -0.1168  0.7732
 7580TIP3    H144155   4.175   5.338  12.190 -0.0879  1.3522 -2.3477
 7580TIP3    H244156   4.024   5.321  12.191  0.0154 -0.3977  1.5234
 7581TIP3   OH244157   4.709   4.659  16.842  0.2008  0.0080 -1.0159
 7581TIP3    H144158   4.628   4.706  16.824  0.4230  1.0335  0.4258
 7581TIP3    H244159   4.692   4.611  16.923  0.8064 -0.2900 -1.0563
 7582TIP3   OH244160   1.905   2.143   4.039 -0.1311  0.3249 -0.3729
 7582TIP3    H144161   1.876   2.090   3.963  0.2724 -0.7464  0.1973
 7582TIP3    H244162   1.893   2.233   4.011 -2.3827 -0.0461 -0.8173
 7583TIP3   OH244163   1.920   2.667  16.816  0.1538  0.2232  0.0740
 7583TIP3    H144164   1.991   2.717  16.776  0.2045  0.6190  0.6441
 7583TIP3    H244165   1.849   2.730  16.827  0.0994  0.0968  0.4958
 7584TIP3   OH244166   3.333   3.278  11.388 -0.7344  0.2269 -0.3926
 7584TIP3    H144167   3.386   3.201  11.406 -1.3961  0.1707  1.5159
 7584TIP3    H244168   3.249   3.260  11.430 -0.9869  1.8467 -0.1309
 7585TIP3   OH244169   5.239   4.849  14.121 -0.5625  0.0771 -0.3695
 7585TIP3    H144170   5.274   4.792  14.189  1.2932  2.4209  0.7461
 7585TIP3    H244171   5.281   4.819  14.041 -1.8733 -1.9414 -0.3823
 7586TIP3   OH244172   5.391   2.006   1.432 -0.1951  0.1434  0.4210
 7586TIP3    H144173   5.429   2.087   1.464 -1.5755  2.0476 -2.3862
 7586TIP3    H244174   5.467   1.950   1.413  0.9710  1.8463 -0.1964
 7587TIP3   OH244175   1.505   3.968   5.711 -0.5225  0.5069  0.1832
 7587TIP3    H144176   1.467   4.035   5.768 -2.2395 -1.0329  0.9675
 7587TIP3    H244177   1.576   3.930   5.762 -0.8943  0.3381  0.5794
 7588TIP3   OH244178   3.181   1.204   2.790  0.5405  0.0683 -0.2295
 7588TIP3    H144179   3.263   1.212   2.742  0.2543 -0.7374 -0.8684
 7588TIP3    H244180   3.158   1.295   2.812  1.2999  0.3472 -0.5455
 7589TIP3   OH244181   2.757   0.658   2.184 -0.5040  0.0520  0.4673
 7589TIP3    H144182   2.787   0.594   2.249 -0.9488  0.7517  1.3857
 7589TIP3    H244183   2.724   0.731   2.236 -0.2050  0.9433 -0.5609
 7590TIP3   OH244184   2.218   2.222  13.274 -0.0294 -0.1621  0.1166
 7590TIP3    H144185   2.165   2.263  13.343 -0.1096  0.5673 -0.3712
 7590TIP3    H244186   2.285   2.173  13.322 -1.3754 -1.4356  0.7452
 7591TIP3   OH244187   2.387   5.764  15.159  0.4556  0.6672 -0.1691
 7591TIP3    H144188   2.439   5.708  15.102 -0.7972 -0.5982 -0.1374
 7591TIP3    H244189   2.396   5.725  15.246  1.7922  2.1744  0.4168
 7592TIP3   OH244190   5.345   3.903   2.820  0.2771 -1.0514  0.1934
 7592TIP3    H144191   5.321   3.820   2.778 -1.2897 -0.9373  0.7815
 7592TIP3    H244192   5.320   3.890   2.912 -0.2693  0.1717  0.2293
 7593TIP3   OH244193   1.533   4.966   0.319  0.4087 -0.1806  0.5817
 7593TIP3    H144194   1.601   5.022   0.280  0.2996 -0.9455 -0.7766
 7593TIP3    H244195   1.453   4.990   0.273  0.1777 -0.7600  0.6724
 7594TIP3   OH244196   1.635   1.773   0.416 -0.4380  0.0711  0.3903
 7594TIP3    H144197   1.725   1.788   0.388 -0.1331 -1.8147  0.2325
 7594TIP3    H244198   1.581   1.814   0.348  0.3001 -0.0588 -0.2832
 7595TIP3   OH244199   1.861   2.969  14.620  0.0278  0.0206 -0.4000
 7595TIP3    H144200   1.940   2.970  14.565 -0.2240  0.9963 -0.7709
 7595TIP3    H244201   1.857   3.056  14.659 -0.1493 -0.4556  0.6846
 7596TIP3   OH244202   6.161   0.221  16.542  0.0844  0.4260 -0.5974
 7596TIP3    H144203   6.090   0.162  16.516  0.8551 -0.8603  0.1711
 7596TIP3    H244204   6.212   0.172  16.607  1.3896  1.5201 -0.7482
 7597TIP3   OH244205   0.007   2.701  15.331 -0.0832  0.3531  0.4806
 7597TIP3    H144206  -0.060   2.653  15.283 -0.8717  1.5964  0.2827
 7597TIP3    H244207   0.023   2.648  15.409  0.1048 -0.9173 -0.3984
 7598TIP3   OH244208   0.067   6.692   0.721 -0.3595  0.2584  0.1476
 7598TIP3    H144209  -0.019   6.727   0.699 -0.5094  0.7943  1.4640
 7598TIP3    H244210   0.097   6.746   0.794  0.8830 -0.2383  0.0353
 7599TIP3   OH244211   3.766   1.476  12.534 -1.0215 -0.2465 -0.3589
 7599TIP3    H144212   3.843   1.510  12.580 -0.6718 -0.8270 -0.5130
 7599TIP3    H244213   3.746   1.542  12.468 -2.3917  1.3335  1.4871
 7600TIP3   OH244214   1.626   1.123   0.946 -0.0541 -0.4037 -0.1632
 7600TIP3    H144215   1.639   1.051   0.885  1.3070 -1.1470  0.9216
 7600TIP3    H244216   1.548   1.100   0.996  0.3452 -1.1311  0.1387
 7601TIP3   OH244217   0.551   2.469  13.550 -0.0556  0.1761 -0.0032
 7601TIP3    H144218   0.491   2.511  13.489 -0.0173  1.0762  0.5670
 7601TIP3    H244219   0.496   2.408  13.600  0.0374 -1.1061 -1.3856
 7602TIP3   OH244220   0.746   1.123   3.329 -0.4027 -0.1194  0.3875
 7602TIP3    H144221   0.793   1.207   3.333 -0.3200 -0.2021  1.4524
 7602TIP3    H244222   0.767   1.088   3.242  0.1214  0.6420  0.1959
 7603TIP3   OH244223   4.958   1.144  15.453  0.1474 -0.2753  0.7666
 7603TIP3    H144224   5.027   1.201  15.417  1.0308 -1.2123  0.9307
 7603TIP3    H244225   4.938   1.083  15.382 -0.3353 -0.1619  0.8065
 7604TIP3   OH244226   5.050   5.123  14.615 -0.0462  0.1569  0.1493
 7604TIP3    H144227   4.994   5.050  14.643  0.0297  0.4669  1.1458
 7604TIP3    H244228   5.010   5.200  14.656 -0.7880  0.8690 -1.7815
 7605TIP3   OH244229   4.412   5.452   2.458  0.0762 -0.1620 -0.1956
 7605TIP3    H144230   4.351   5.526   2.456  1.4374  1.0272  0.2888
 7605TIP3    H244231   4.381   5.398   2.530 -0.1977  0.6398  0.3059
 7606TIP3   OH244232   1.111   2.481   1.457 -0.4796  0.2155  0.4756
 7606TIP3    H144233   1.157   2.427   1.392 -1.4792 -1.1696  0.8742
 7606TIP3    H244234   1.117   2.431   1.538 -0.9698  0.9803  0.9951
 7607TIP3   OH244235   1.099   2.664   0.930 -1.0574  0.6835  0.0273
 7607TIP3    H144236   1.102   2.664   0.834  3.0668  2.9858 -0.0742
 7607TIP3    H244237   1.123   2.575   0.955 -0.4827  0.5092 -1.1065
 7608TIP3   OH244238   1.586   4.070  12.278 -0.0478  0.2136 -0.3084
 7608TIP3    H144239   1.538   4.149  12.305 -0.3010 -0.0460  0.0045
 7608TIP3    H244240   1.567   4.006  12.346  0.5607  0.0344 -0.3044
 7609TIP3   OH244241   6.213   3.699  10.988  0.4366 -0.8858 -0.3453
 7609TIP3    H144242   6.170   3.650  10.918 -0.4375  0.4982 -0.8067
 7609TIP3    H244243   6.262   3.767  10.943  1.4013 -1.1263  0.3096
 7610TIP3   OH244244   3.177   1.979  14.352  0.0743  0.3524  0.1417
 7610TIP3    H144245   3.223   2.017  14.427  0.7692  2.1800 -1.1494
 7610TIP3    H244246   3.129   2.052  14.314  0.6837 -0.2654 -1.9040
 7611TIP3   OH244247   0.357   0.662  15.961  0.1142  0.0446  0.5543
 7611TIP3    H144248   0.452   0.663  15.974  0.3426  1.9399 -0.7786
 7611TIP3    H244249   0.325   0.736  16.012 -0.5934 -0.2932  0.6173
 7612TIP3   OH244250   0.338   2.018  11.586 -0.3336 -0.2611 -1.0853
 7612TIP3    H144251   0.286   2.022  11.667  1.5251  1.6830  0.1436
 7612TIP3    H244252   0.332   2.106  11.550  1.6212 -0.1125 -1.1622
 7613TIP3   OH244253   1.911   3.463   3.209  0.2082  0.1668 -0.3210
 7613TIP3    H144254   1.931   3.481   3.117 -2.9589  1.6710 -0.8292
 7613TIP3    H244255   1.908   3.549   3.251 -0.1903 -0.3685  0.7924
 7614TIP3   OH244256   1.703   4.189   0.547  0.0644  0.9072  0.2267
 7614TIP3    H144257   1.676   4.273   0.583  0.7526  0.4262  1.9666
 7614TIP3    H244258   1.794   4.179   0.575  0.0026 -0.3979  0.0259
 7615TIP3   OH244259   2.294   0.685   1.585 -0.3305 -0.1093 -0.2663
 7615TIP3    H144260   2.235   0.747   1.544  1.0073  1.9827  0.7697
 7615TIP3    H244261   2.368   0.678   1.524 -1.2169 -2.1284 -1.2035
 7616TIP3   OH244262   3.982   1.555  12.157  0.0466  0.2404 -0.6524
 7616TIP3    H144263   4.014   1.573  12.069 -0.4429  2.4478 -0.4458
 7616TIP3    H244264   4.026   1.621  12.212  0.7599 -1.4139  0.8687
 7617TIP3   OH244265   3.524   0.637  14.077  0.2834  0.8271  1.1267
 7617TIP3    H144266   3.521   0.546  14.107 -0.7325  1.2571  2.3821
 7617TIP3    H244267   3.433   0.665  14.073  0.5283  1.5269 -0.1392
 7618TIP3   OH244268   1.358   4.222   2.352  0.2655 -0.1958  0.3593
 7618TIP3    H144269   1.343   4.307   2.393  0.2452  0.0867 -0.2240
 7618TIP3    H244270   1.280   4.171   2.375  1.2781 -0.8483  2.6294
 7619TIP3   OH244271   3.897   2.180  15.727 -0.5817 -0.2347 -0.8228
 7619TIP3    H144272   3.887   2.269  15.760  0.8777 -0.2668 -0.2495
 7619TIP3    H244273   3.906   2.190  15.632  1.9260  0.4675 -0.5621
 7620TIP3   OH244274   3.889   2.861   5.674  0.0715  0.3759  0.1122
 7620TIP3    H144275   3.875   2.769   5.695 -1.9429  0.7522  0.7048
 7620TIP3    H244276   3.970   2.884   5.720  1.5418 -1.4555 -1.3997
 7621TIP3   OH244277   2.954   1.123  15.360  0.1924  0.0991 -0.4890
 7621TIP3    H144278   2.896   1.164  15.296  0.3750 -0.2730 -0.8975
 7621TIP3    H244279   3.010   1.066  15.308 -1.8156 -2.8071  0.2717
 7622TIP3   OH244280   1.249   3.401  15.603  0.0780 -0.0571  0.5247
 7622TIP3    H144281   1.326   3.343  15.599 -1.0340 -1.7787 -5.0261
 7622TIP3    H244282   1.284   3.486  15.628  3.2881 -1.3527  0.9505
 7623TIP3   OH244283   0.637   4.989  16.346 -0.2648  0.2003  0.4439
 7623TIP3    H144284   0.564   5.052  16.344 -1.3525 -1.0007  0.5553
 7623TIP3    H244285   0.634   4.947  16.260  0.4680  0.3124  0.3598
 7624TIP3   OH244286   4.524   3.375  14.190  0.2118 -1.0170  0.2298
 7624TIP3    H144287   4.597   3.412  14.240  1.5886 -0.5991 -1.9648
 7624TIP3    H244288   4.491   3.305  14.246 -0.2133  1.1859  2.9585
 7625TIP3   OH244289   0.707   1.997  11.829 -0.3404 -0.5375 -0.2594
 7625TIP3    H144290   0.643   1.935  11.795 -1.2919 -1.3780  2.7283
 7625TIP3    H244291   0.667   2.032  11.909  2.2414  0.1437  0.8597
 7626TIP3   OH244292   0.367   2.291  14.251 -0.3418 -0.1461 -0.1085
 7626TIP3    H144293   0.339   2.383  14.260 -0.6798 -0.1883 -0.7290
 7626TIP3    H244294   0.314   2.257  14.180  0.7131 -0.4678 -0.7488
 7627TIP3   OH244295   4.664   5.252  14.519 -0.0747 -0.1500 -0.6613
 7627TIP3    H144296   4.753   5.287  14.510 -0.2794  0.1785 -1.4988
 7627TIP3    H244297   4.612   5.328  14.545 -0.1463 -0.3076 -0.3357
 7628TIP3   OH244298   0.244   1.192  12.937 -0.4115 -0.1819  0.3720
 7628TIP3    H144299   0.226   1.264  12.996  2.8421  1.2655 -0.1797
 7628TIP3    H244300   0.263   1.118  12.994 -1.0615  0.1481  1.0236
 7629TIP3   OH244301   2.693   4.823   5.491  0.2713 -0.3787 -0.4399
 7629TIP3    H144302   2.610   4.784   5.464  0.0499  0.4302 -0.9753
 7629TIP3    H244303   2.711   4.890   5.425  0.5509  0.5352  0.5282
 7630TIP3   OH244304   0.617   0.380   0.974  0.7863 -0.0289  0.3888
 7630TIP3    H144305   0.627   0.420   0.888 -0.7580  1.0018  0.6599
 7630TIP3    H244306   0.602   0.454   1.034 -0.3274 -0.8700  1.1908
 7631TIP3   OH244307   0.278   6.214  16.256  0.1760 -0.2221  0.3574
 7631TIP3    H144308   0.216   6.141  16.246 -0.6757  0.1482  2.3997
 7631TIP3    H244309   0.357   6.173  16.293  0.1046 -0.2759  0.4495
 7632TIP3   OH244310   1.896   1.123   9.883 -0.3795  0.1085 -0.6420
 7632TIP3    H144311   1.916   1.206   9.925  0.2500  0.1656 -1.0430
 7632TIP3    H244312   1.848   1.147   9.804  0.8363  0.1842 -1.3871
 7633TIP3   OH244313   5.484   3.077   1.362  0.1289 -0.0530  0.3487
 7633TIP3    H144314   5.535   3.030   1.427 -0.4952  0.4182  1.2036
 7633TIP3    H244315   5.394   3.072   1.394  0.1026  2.1742  0.7847
 7634TIP3   OH244316   2.881   1.978   3.860  0.3307  0.3608 -0.2681
 7634TIP3    H144317   2.887   1.902   3.919 -0.2439 -0.4565 -1.2344
 7634TIP3    H244318   2.803   2.025   3.889  0.1383  0.0453 -0.2645
 7635TIP3   OH244319   5.101   3.042  16.573 -0.5806 -0.1297 -0.1065
 7635TIP3    H144320   5.018   3.029  16.527  0.0678 -0.0817 -1.3259
 7635TIP3    H244321   5.164   2.988  16.525  0.4548  1.1997 -0.2803
 7636TIP3   OH244322   5.520   1.257   4.152  0.4934  0.0011  0.4590
 7636TIP3    H144323   5.446   1.266   4.093 -1.4434  0.0835  2.7367
 7636TIP3    H244324   5.572   1.336   4.139 -0.1245  0.2137 -0.7773
 7637TIP3   OH244325   3.059   6.446   2.768 -1.0874  0.5375  0.0984
 7637TIP3    H144326   3.005   6.433   2.691 -0.2526 -0.0230 -0.4092
 7637TIP3    H244327   3.022   6.524   2.810 -0.5231  1.8879 -1.7701
 7638TIP3   OH244328   0.388   2.841  12.038 -0.0288  0.1716  0.4319
 7638TIP3    H144329   0.462   2.861  12.096  1.5062 -0.5000 -1.1984
 7638TIP3    H244330   0.416   2.762  11.991 -2.2084 -0.6499  0.4270
 7639TIP3   OH244331   0.417   1.151  12.732  0.1719 -0.2997  0.0114
 7639TIP3    H144332   0.421   1.056  12.722  0.8930 -0.3226  0.4223
 7639TIP3    H244333   0.344   1.166  12.792  0.2789 -0.6278  0.2314
 7640TIP3   OH244334   0.921   4.273   0.662 -0.1607  0.1916 -0.2539
 7640TIP3    H144335   1.006   4.303   0.696 -0.7863 -0.1911  1.7658
 7640TIP3    H244336   0.929   4.178   0.660 -0.3898  0.1786 -0.4632
 7641TIP3   OH244337   3.905   5.139  13.300 -0.1718 -0.2950 -0.0594
 7641TIP3    H144338   3.895   5.224  13.342  0.6712 -0.4559  0.4871
 7641TIP3    H244339   3.815   5.109  13.287 -0.4822  0.8411 -0.6264
 7642TIP3   OH244340   0.466   0.848   0.768  0.8552  0.2276 -0.3895
 7642TIP3    H144341   0.539   0.815   0.716 -0.3956 -1.4088 -1.2064
 7642TIP3    H244342   0.468   0.796   0.848  2.0135  1.8791  0.7235
 7643TIP3   OH244343   1.211   1.507   1.191  0.4798 -0.3787 -0.8777
 7643TIP3    H144344   1.282   1.569   1.170 -0.2575  1.5472  1.7847
 7643TIP3    H244345   1.136   1.538   1.140 -0.0876  1.5500  0.9542
 7644TIP3   OH244346   0.398   5.187   1.032 -0.0427  0.2833  0.4768
 7644TIP3    H144347   0.422   5.095   1.024 -0.2342  0.2354  0.4560
 7644TIP3    H244348   0.356   5.193   1.118 -1.9597 -0.0740 -0.3959
 7645TIP3   OH244349   2.039   5.552  15.130 -0.4170 -0.2416 -0.0740
 7645TIP3    H144350   2.129   5.581  15.117 -0.4923 -0.1769 -0.4482
 7645TIP3    H244351   1.985   5.624  15.096 -0.6326  0.5161  1.7245
 7646TIP3   OH244352   3.337   0.510  13.679  0.3436  0.3561  0.3462
 7646TIP3    H144353   3.244   0.530  13.694  0.1520  0.0479 -0.3817
 7646TIP3    H244354   3.376   0.593  13.654 -0.1586  0.1272 -1.2941
 7647TIP3   OH244355   4.322   0.908   5.667 -0.1642 -0.6414  0.2072
 7647TIP3    H144356   4.388   0.916   5.598 -0.4815 -0.4792 -0.0832
 7647TIP3    H244357   4.367   0.865   5.739  0.8839  1.3640  0.8276
 7648TIP3   OH244358   3.264   0.324  12.411 -0.4461 -0.1348 -0.3912
 7648TIP3    H144359   3.180   0.310  12.366 -0.6232 -0.4799  0.0424
 7648TIP3    H244360   3.319   0.366  12.345 -0.5565 -1.0544 -1.1020
 7649TIP3   OH244361   0.627   2.473  16.580  1.0085  0.3741  0.0368
 7649TIP3    H144362   0.696   2.436  16.635  0.6347  0.6705  0.7119
 7649TIP3    H244363   0.594   2.398  16.530  2.6056  0.4226 -1.1933
 7650TIP3   OH244364   2.762   3.546   5.884 -0.0713  0.1115 -0.5183
 7650TIP3    H144365   2.744   3.510   5.971 -1.3979  2.1546  0.1255
 7650TIP3    H244366   2.719   3.631   5.884 -0.8929 -0.1748 -3.4883
 7651TIP3   OH244367   0.884   2.238  10.946  0.3643 -0.4233  0.3570
 7651TIP3    H144368   0.788   2.241  10.945  0.3758  0.2583  0.4426
 7651TIP3    H244369   0.905   2.161  10.999 -0.1378 -0.1817  0.9255
 7652TIP3   OH244370   3.009   6.639   5.877  0.3419  0.4176  0.4128
 7652TIP3    H144371   2.951   6.665   5.949 -0.5822  0.7957 -0.4361
 7652TIP3    H244372   2.990   6.702   5.807  2.3655  1.0388  0.3588
 7653TIP3   OH244373   2.469   6.459   0.184  0.2794  0.3497 -0.4364
 7653TIP3    H144374   2.474   6.554   0.188  2.1298  0.2940 -0.8390
 7653TIP3    H244375   2.375   6.441   0.173 -0.1888  2.0704  0.3437
 7654TIP3   OH244376   3.693   0.770   5.615  0.2182  0.4256  0.4559
 7654TIP3    H144377   3.600   0.792   5.609 -0.0927 -0.6936  0.8582
 7654TIP3    H244378   3.730   0.837   5.672 -0.5997  0.1939  1.2845
 7655TIP3   OH244379   4.286   3.471   1.701 -0.5687  0.0058  0.4500
 7655TIP3    H144380   4.363   3.420   1.676 -0.9933 -0.5706  0.2737
 7655TIP3    H244381   4.311   3.562   1.685 -0.7862 -0.2947 -2.1534
 7656TIP3   OH244382   0.676   0.677   4.686  0.6632 -0.1626  0.0183
 7656TIP3    H144383   0.659   0.585   4.663  0.3099 -0.6408  1.9904
 7656TIP3    H244384   0.667   0.680   4.781 -5.2557  3.0222 -0.1386
 7657TIP3   OH244385   2.179   4.087   5.451 -0.3457  0.0339  0.2908
 7657TIP3    H144386   2.266   4.122   5.470 -0.7005  1.1507 -0.0814
 7657TIP3    H244387   2.150   4.049   5.534 -0.2258  1.2539  0.9088
 7658TIP3   OH244388   1.342   3.793   5.968  0.3548 -0.3502 -0.1152
 7658TIP3    H144389   1.420   3.782   6.023 -0.2698 -3.8058  0.3186
 7658TIP3    H244390   1.327   3.706   5.930 -3.3614  0.1324 -0.0969
 7659TIP3   OH244391   6.766   1.725  16.184 -0.0266 -0.5760  0.1446
 7659TIP3    H144392   6.751   1.631  16.179 -0.8164 -0.5740  1.8399
 7659TIP3    H244393   6.686   1.760  16.223 -0.7291  1.1283 -2.5749
 7660TIP3   OH244394   2.177   0.087  14.462 -0.0406  0.2187 -0.1452
 7660TIP3    H144395   2.272   0.100  14.455  0.0070  0.8355  1.2233
 7660TIP3    H244396   2.143   0.106  14.375  0.9600  1.3845 -0.3063
 7661TIP3   OH244397   5.604   1.428   4.651  0.3211  0.2314  0.1195
 7661TIP3    H144398   5.596   1.360   4.585  0.4365  0.8875 -0.5913
 7661TIP3    H244399   5.687   1.409   4.696 -0.0799 -0.5932  0.5258
 7662TIP3   OH244400   5.905   3.219  11.396 -0.2721 -0.6572 -0.3210
 7662TIP3    H144401   5.895   3.200  11.303  2.1868 -3.0929 -0.2354
 7662TIP3    H244402   5.865   3.144  11.440  0.0107 -0.3190  0.5374
 7663TIP3   OH244403   5.289   5.829   1.717 -0.2491  0.5951  0.2542
 7663TIP3    H144404   5.212   5.885   1.720 -1.0537 -0.5184  0.8764
 7663TIP3    H244405   5.357   5.879   1.763 -1.1683  0.7600  1.4847
 7664TIP3   OH244406   2.936   1.446  11.944  0.4782 -0.6901 -0.7197
 7664TIP3    H144407   2.982   1.459  12.027 -0.0514  0.6803 -0.6099
 7664TIP3    H244408   2.893   1.362  11.953  0.5556 -0.6265  0.3361
 7665TIP3   OH244409   3.461   5.137   2.486  0.2771 -0.0987  0.2597
 7665TIP3    H144410   3.392   5.190   2.448  1.1081  0.4025 -0.5845
 7665TIP3    H244411   3.443   5.048   2.456  0.1244  0.0611 -0.1167
 7666TIP3   OH244412   2.735   3.505  11.325  0.3814 -0.1864 -0.1806
 7666TIP3    H144413   2.757   3.483  11.235 -1.5131  0.2980 -0.7986
 7666TIP3    H244414   2.790   3.580  11.346  0.6945 -0.1825 -0.9873
 7667TIP3   OH244415   3.746   4.588   4.799 -0.2422 -0.1559  0.1989
 7667TIP3    H144416   3.735   4.518   4.735  2.8304  2.0027 -3.0621
 7667TIP3    H244417   3.830   4.569   4.841 -0.2892  0.6126  0.6643
 7668TIP3   OH244418   6.652   2.245  15.530  0.5207  0.5178 -0.7702
 7668TIP3    H144419   6.718   2.206  15.587 -0.4522  0.8694  0.6735
 7668TIP3    H244420   6.607   2.309  15.586 -1.9681 -0.7026 -1.2150
 7669TIP3   OH244421   1.410   0.207  10.771  0.1459  0.7799  0.4311
 7669TIP3    H144422   1.485   0.235  10.825  0.4219  1.1778 -0.1512
 7669TIP3    H244423   1.349   0.170  10.834  0.6922  0.7529  0.9619
 7670TIP3   OH244424   0.698   4.327  11.869  0.0797  0.3518 -0.2398
 7670TIP3    H144425   0.754   4.274  11.925 -0.0602  0.2118 -0.2321
 7670TIP3    H244426   0.736   4.320  11.782 -0.0340  0.1077 -0.2693
 7671TIP3   OH244427   1.448   4.301  12.412 -0.3687 -0.4044  0.4182
 7671TIP3    H144428   1.436   4.344  12.327 -0.4274  1.0414  1.1333
 7671TIP3    H244429   1.360   4.300  12.450  0.1190  1.8319  1.7647
 7672TIP3   OH244430   3.871   4.095   3.120 -0.0128  0.1770  0.5685
 7672TIP3    H144431   3.961   4.066   3.106  0.1914  1.5069 -1.1459
 7672TIP3    H244432   3.839   4.039   3.192  1.8618 -0.9262  0.6137
 7673TIP3   OH244433   5.028   6.501   5.553 -0.0047 -0.0415 -0.7796
 7673TIP3    H144434   4.946   6.453   5.561 -1.7149  2.8200  0.4677
 7673TIP3    H244435   5.037   6.517   5.459  0.8513 -2.9987 -1.2769
 7674TIP3   OH244436   6.758   6.829   2.916 -0.0201  0.3065 -0.5387
 7674TIP3    H144437   6.693   6.759   2.927  1.2723 -1.0162 -0.9730
 7674TIP3    H244438   6.842   6.783   2.913  1.0145  2.0016  0.5437
 7675TIP3   OH244439   2.776   0.634  15.075 -0.0504 -0.2845 -0.0746
 7675TIP3    H144440   2.753   0.627  15.167 -2.4227  0.2218 -0.5782
 7675TIP3    H244441   2.726   0.565  15.032  0.1377  0.2209 -1.1420
 7676TIP3   OH244442   6.106   6.715   3.116 -0.1271 -0.0979  0.4360
 7676TIP3    H144443   6.122   6.800   3.157 -0.3482 -0.1817  0.7036
 7676TIP3    H244444   6.041   6.732   3.047  0.4042  0.0804 -0.0243
 7677TIP3   OH244445   6.201   1.047   0.991 -0.0163 -0.0833  0.0747
 7677TIP3    H144446   6.185   1.141   0.997  1.2428  0.2194 -0.9309
 7677TIP3    H244447   6.206   1.029   0.897  1.0611 -0.9191  0.2717
 7678TIP3   OH244448   1.237   6.218   5.527  0.1791  0.0583 -0.6436
 7678TIP3    H144449   1.243   6.263   5.612  1.2888  1.2804 -1.3127
 7678TIP3    H244450   1.328   6.208   5.500 -0.1686  0.0073 -1.8423
 7679TIP3   OH244451   1.218   4.985  15.408 -0.0263 -0.4720  0.3417
 7679TIP3    H144452   1.242   5.051  15.343  0.6731  0.0518  1.1200
 7679TIP3    H244453   1.186   5.034  15.483  1.0123 -0.9749  1.1416
 7680TIP3   OH244454   3.148   5.174   4.320 -0.4802  0.4267  0.4815
 7680TIP3    H144455   3.065   5.220   4.312 -0.6563 -0.0123 -0.2751
 7680TIP3    H244456   3.171   5.149   4.231  1.0484  1.5398  0.5231
 7681TIP3   OH244457   4.336   2.816   0.063  0.2921 -0.9938 -0.1880
 7681TIP3    H144458   4.242   2.810   0.082  0.5245 -0.5048  1.2927
 7681TIP3    H244459   4.343   2.886  -0.002 -0.3025 -0.4291  0.3444
 7682TIP3   OH244460   5.337   4.769   5.502 -0.2085 -0.1200 -0.5798
 7682TIP3    H144461   5.402   4.751   5.570 -0.6896  2.1063  0.5682
 7682TIP3    H244462   5.369   4.846   5.457 -0.8979 -0.3961 -1.5948
 7683TIP3   OH244463   0.325   6.442  12.400  0.6238  0.3084 -0.1946
 7683TIP3    H144464   0.315   6.407  12.312 -1.0746 -1.8691  0.7741
 7683TIP3    H244465   0.365   6.370  12.450  0.4822  1.0848  1.0806
 7684TIP3   OH244466   2.396   3.723  15.150 -0.2459 -0.0668  0.3929
 7684TIP3    H144467   2.308   3.718  15.189 -0.3499 -0.7914  0.0766
 7684TIP3    H244468   2.424   3.632  15.144  0.3755  0.1419  0.1383
 7685TIP3   OH244469   5.970   5.767  13.165 -0.0275 -0.5767 -0.6227
 7685TIP3    H144470   5.917   5.834  13.209  0.3660  0.3718 -1.5409
 7685TIP3    H244471   6.005   5.713  13.236 -1.5706 -0.7403  0.0430
 7686TIP3   OH244472   6.564   4.948  13.579 -0.1045 -0.4478  0.2090
 7686TIP3    H144473   6.469   4.957  13.567 -0.7063 -1.6757  3.1032
 7686TIP3    H244474   6.590   5.026  13.627  0.3092 -0.2800 -0.2787
 7687TIP3   OH244475   3.269   1.115  14.115 -0.3272  0.4525 -0.4152
 7687TIP3    H144476   3.297   1.077  14.032  2.7613 -1.7310  1.4008
 7687TIP3    H244477   3.210   1.049  14.153  1.6748 -0.6973  0.8813
 7688TIP3   OH244478   0.083   3.949   0.907  0.1310 -0.6449 -0.3130
 7688TIP3    H144479   0.118   3.970   0.820 -0.5381 -1.3425 -0.7577
 7688TIP3    H244480   0.161   3.934   0.961  0.5519 -0.1642 -0.7688
 7689TIP3   OH244481   5.288   6.045  13.957 -0.3865  0.5645 -0.0566
 7689TIP3    H144482   5.372   6.080  13.985  0.1431  0.0468 -0.9662
 7689TIP3    H244483   5.286   6.057  13.862 -0.1152 -1.9247 -0.4503
 7690TIP3   OH244484   3.343   3.707  12.025  0.5610 -0.0098  0.0121
 7690TIP3    H144485   3.346   3.614  12.001  1.6677  0.0485 -0.1170
 7690TIP3    H244486   3.419   3.745  11.981  0.2942  0.8983  0.3293
 7691TIP3   OH244487   1.502   1.830  11.105 -0.0802 -0.2197  0.5448
 7691TIP3    H144488   1.503   1.792  11.193  0.5129 -1.1089  0.1729
 7691TIP3    H244489   1.462   1.916  11.116  2.3491  0.7971  2.1496
 7692TIP3   OH244490   2.944   1.303   4.641  0.2785  0.3593  0.1288
 7692TIP3    H144491   2.951   1.363   4.715 -1.3202  1.0560 -0.2480
 7692TIP3    H244492   2.947   1.216   4.680  1.9218  0.6623  0.7463
 7693TIP3   OH244493   3.799   4.793   2.525 -0.0682 -0.4449  0.4616
 7693TIP3    H144494   3.789   4.760   2.436 -1.2338 -0.1537  0.4735
 7693TIP3    H244495   3.893   4.783   2.543  0.3831  0.4046 -1.1596
 7694TIP3   OH244496   0.489   0.038  12.278  0.3328 -0.2843  0.2214
 7694TIP3    H144497   0.498  -0.019  12.355  1.0251 -0.5206 -0.0207
 7694TIP3    H244498   0.520   0.123  12.307  0.1427 -0.2571  0.3401
 7695TIP3   OH244499   1.404   4.381   4.686  0.3351 -0.4620  0.1151
 7695TIP3    H144500   1.330   4.336   4.644 -0.2378 -0.8456  1.5032
 7695TIP3    H244501   1.401   4.469   4.650 -1.4834 -0.1395  0.9439
 7696TIP3   OH244502   6.324   2.259   1.802 -0.2216  0.1092  0.2782
 7696TIP3    H144503   6.342   2.319   1.875 -2.1691  0.9180  0.1621
 7696TIP3    H244504   6.229   2.263   1.791  0.0819  0.7708 -2.9703
 7697TIP3   OH244505   5.508   3.771  12.371  0.2929  0.4767  0.2106
 7697TIP3    H144506   5.486   3.827  12.296  0.1022  0.6019  0.3592
 7697TIP3    H244507   5.484   3.683  12.342  1.7655  0.2814 -0.4978
 7698TIP3   OH244508   4.838   1.416  15.061 -0.5719 -0.4752 -0.0684
 7698TIP3    H144509   4.917   1.402  15.113 -1.5957 -0.3202  1.6034
 7698TIP3    H244510   4.792   1.332  15.065 -1.5957  0.1130  0.9500
 7699TIP3   OH244511   0.143   2.014   0.148  0.1786 -0.1855 -0.4687
 7699TIP3    H144512   0.120   1.928   0.184 -0.9224  0.4140  0.3015
 7699TIP3    H244513   0.239   2.014   0.145  0.1935 -1.4020 -0.4015
 7700TIP3   OH244514   2.673   2.040  10.966  0.2183  0.5117  0.0637
 7700TIP3    H144515   2.669   1.970  10.901  3.6781  0.4741 -0.2915
 7700TIP3    H244516   2.602   2.099  10.942 -0.0084 -0.6196 -2.3777
 7701TIP3   OH244517   6.486   0.804  14.315 -0.8499 -0.1418  0.4554
 7701TIP3    H144518   6.484   0.836  14.224 -0.1169  2.2070  1.1802
 7701TIP3    H244519   6.451   0.877  14.366 -0.6173 -1.1629  2.1320
 7702TIP3   OH244520   1.356   2.367   5.571 -0.6125 -0.4016  0.6012
 7702TIP3    H144521   1.350   2.409   5.656 -3.5456  0.6245  0.0286
 7702TIP3    H244522   1.343   2.274   5.589  1.6415 -0.6118  1.4653
 7703TIP3   OH244523   0.006   5.392   1.317 -0.2764  0.2549  0.3836
 7703TIP3    H144524  -0.084   5.423   1.327 -0.1753  0.3038  1.2174
 7703TIP3    H244525   0.059   5.455   1.366  0.3042  0.6449 -0.7131
 7704TIP3   OH244526   3.780   3.729   4.884  0.1359 -0.1246 -0.2005
 7704TIP3    H144527   3.757   3.788   4.956  0.0955 -0.8685  0.4162
 7704TIP3    H244528   3.861   3.764   4.848  0.3584  0.0513  0.4576
 7705TIP3   OH244529   2.381   3.861  13.441 -0.6026 -0.0480 -0.2526
 7705TIP3    H144530   2.428   3.784  13.472  1.9271  1.4787 -0.0190
 7705TIP3    H244531   2.374   3.848  13.346  2.2586  0.5801 -0.6278
 7706TIP3   OH244532   2.891   3.757   0.384 -0.3344 -0.0189 -0.9570
 7706TIP3    H144533   2.891   3.794   0.473 -2.0475 -0.0430 -0.9113
 7706TIP3    H244534   2.820   3.803   0.340 -0.5224 -1.1203 -1.8329
 7707TIP3   OH244535   2.532   2.788   0.969 -0.6062  0.1904  0.0043
 7707TIP3    H144536   2.486   2.714   1.010  0.4688 -0.0174  0.8700
 7707TIP3    H244537   2.501   2.865   1.017 -0.7600  0.1605 -0.0456
 7708TIP3   OH244538   2.850   5.743   3.579 -0.0111  0.1914 -0.5521
 7708TIP3    H144539   2.777   5.689   3.609  1.1737 -0.9135  0.4625
 7708TIP3    H244540   2.895   5.769   3.659  0.1396  1.7293 -1.1004
 7709TIP3   OH244541   1.139   3.775   4.889 -0.0251  0.5903 -0.2572
 7709TIP3    H144542   1.146   3.754   4.796  2.4149 -0.4737  0.0960
 7709TIP3    H244543   1.184   3.858   4.899  1.8578 -0.4362  0.2685
 7710TIP3   OH244544   4.374   6.223   2.634 -0.2491 -0.4209  0.0723
 7710TIP3    H144545   4.335   6.300   2.676  0.4231 -1.3987  2.7098
 7710TIP3    H244546   4.461   6.251   2.607 -0.4269  0.0329 -0.0452
 7711TIP3   OH244547   1.787   3.741  13.044  0.1824 -0.3329 -0.1464
 7711TIP3    H144548   1.877   3.774  13.037  0.1942 -0.5350 -1.0549
 7711TIP3    H244549   1.740   3.785  12.972 -0.7005  0.5612  0.9311
 7712TIP3   OH244550   5.749   1.996  15.035  0.4545  0.6306 -0.0746
 7712TIP3    H144551   5.820   1.984  15.097  0.4062 -1.7263 -0.3892
 7712TIP3    H244552   5.792   2.006  14.950  0.4803  2.8553  0.1369
 7713TIP3   OH244553   1.002   5.502   0.957 -0.5706 -0.7109 -0.1476
 7713TIP3    H144554   0.945   5.465   0.890 -1.7883  0.7662  0.0132
 7713TIP3    H244555   1.022   5.590   0.926 -1.0078 -0.0675  1.2991
 7714TIP3   OH244556   3.673   6.197  11.785 -0.4010 -0.3441  0.7177
 7714TIP3    H144557   3.681   6.125  11.723 -2.0885 -0.2482  0.3221
 7714TIP3    H244558   3.578   6.209  11.795 -0.1582  0.2304  2.6453
 7715TIP3   OH244559   4.377   6.739   1.332  0.4058  0.6634  0.4872
 7715TIP3    H144560   4.365   6.784   1.249  0.4504 -0.5256 -0.1949
 7715TIP3    H244561   4.356   6.647   1.313  0.2542  0.3932  1.8276
 7716TIP3   OH244562   6.046   1.528   4.439  0.4420  0.7799 -0.0715
 7716TIP3    H144563   5.982   1.588   4.400  3.0466  4.1330  0.3541
 7716TIP3    H244564   6.131   1.561   4.410  2.1340 -1.9291  1.3852
 7717TIP3   OH244565   5.765   3.095   3.609  0.1041 -0.3585 -0.3340
 7717TIP3    H144566   5.858   3.093   3.632 -0.2244 -2.6954  1.0953
 7717TIP3    H244567   5.720   3.103   3.693 -1.0317  1.0966 -1.0355
 7718TIP3   OH244568   2.432   1.250  14.921 -0.2226 -0.1388 -0.6270
 7718TIP3    H144569   2.369   1.320  14.902  1.1726  0.8941 -1.6514
 7718TIP3    H244570   2.393   1.171  14.881 -1.6168  0.1115  0.1774
 7719TIP3   OH244571   2.305   0.877  16.546  0.4442  0.4821  0.1720
 7719TIP3    H144572   2.348   0.895  16.630  1.1025  1.2986 -0.3158
 7719TIP3    H244573   2.279   0.964  16.514 -0.4579  0.1112 -0.1330
 7720TIP3   OH244574   5.502   6.673   4.370  0.0915 -0.0260  0.8417
 7720TIP3    H144575   5.554   6.745   4.334  0.5375 -1.0853 -0.7065
 7720TIP3    H244576   5.505   6.687   4.465 -1.2009  2.9268  0.5597
 7721TIP3   OH244577   5.147   3.896   0.786  0.0043  0.5306  0.3046
 7721TIP3    H144578   5.167   3.810   0.822  2.3899  1.0139  0.2797
 7721TIP3    H244579   5.067   3.882   0.735  0.6014 -1.7853 -0.1247
 7722TIP3   OH244580   4.967   1.841   5.071 -0.1177  0.4703  0.3237
 7722TIP3    H144581   5.037   1.906   5.063  0.1021  0.2006  0.0096
 7722TIP3    H244582   4.928   1.857   5.157  1.0864 -0.1160  1.0181
 7723TIP3   OH244583   4.968   6.142   0.569  0.1628 -0.1170  0.2471
 7723TIP3    H144584   5.059   6.112   0.574  0.2306  0.0255 -0.1029
 7723TIP3    H244585   4.935   6.132   0.658 -0.1264 -2.2471 -0.0482
 7724TIP3   OH244586   0.346   1.295   3.620  0.5159  0.2208  0.5742
 7724TIP3    H144587   0.435   1.323   3.598  0.7985 -0.8073  0.3295
 7724TIP3    H244588   0.350   1.199   3.618 -0.8996  0.1357 -0.7638
 7725TIP3   OH244589   2.313   4.812  13.757  0.0522  0.0465 -0.4943
 7725TIP3    H144590   2.387   4.853  13.803  0.7741  0.2855 -1.8035
 7725TIP3    H244591   2.343   4.803  13.667 -0.6043 -2.1568 -0.5505
 7726TIP3   OH244592   4.048   5.569   0.366 -0.4442 -0.0004  0.0670
 7726TIP3    H144593   4.029   5.663   0.367  1.2053  0.3511  0.8390
 7726TIP3    H244594   4.143   5.564   0.364 -0.5016 -1.6688  0.7326
 7727TIP3   OH244595   4.558   0.920   2.881  0.1136  0.1194 -0.3282
 7727TIP3    H144596   4.627   0.974   2.919  1.1455 -1.1467 -0.3165
 7727TIP3    H244597   4.600   0.877   2.806 -0.8314 -0.2422 -0.6575
 7728TIP3   OH244598   3.097   0.201  10.628 -0.0672 -0.3029 -0.0857
 7728TIP3    H144599   3.147   0.120  10.634  0.6218  0.1638  0.5415
 7728TIP3    H244600   3.107   0.229  10.537  1.9076  0.4510  0.3150
 7729TIP3   OH244601   4.128   3.233  15.195 -0.2225  0.2488  0.0133
 7729TIP3    H144602   4.203   3.190  15.235 -0.3381 -0.0825 -0.1237
 7729TIP3    H244603   4.160   3.320  15.170  0.2499 -0.0664 -0.4906
 7730TIP3   OH244604   5.896   1.170   2.304 -0.5855  0.0852  0.7064
 7730TIP3    H144605   5.823   1.200   2.251 -0.8570  0.8445  1.4989
 7730TIP3    H244606   5.879   1.076   2.317  0.0162 -0.3667 -1.3545
 7731TIP3   OH244607   2.182   2.071   2.440 -0.3120 -0.6653 -0.3347
 7731TIP3    H144608   2.139   2.156   2.429 -1.8757 -1.3696  0.0382
 7731TIP3    H244609   2.218   2.074   2.529 -1.0775 -0.6961 -0.0215
 7732TIP3   OH244610   6.026   5.139   4.592 -0.4924  0.5080 -0.3461
 7732TIP3    H144611   6.014   5.139   4.687  1.6415 -0.8331 -0.0154
 7732TIP3    H244612   6.033   5.232   4.570  0.8324  0.8197  1.1330
 7733TIP3   OH244613   1.872   5.292  15.926  0.2413 -0.3758 -0.0400
 7733TIP3    H144614   1.819   5.246  15.861 -2.7831  0.3705  1.6753
 7733TIP3    H244615   1.895   5.375  15.883 -1.3618 -0.0586 -0.3779
 7734TIP3   OH244616   4.004   2.820  15.654  0.1089  0.0714 -0.4329
 7734TIP3    H144617   3.959   2.859  15.729  0.1630 -0.7425  0.0346
 7734TIP3    H244618   3.980   2.876  15.580  0.4164  1.1431  0.2623
 7735TIP3   OH244619   1.265   4.123   2.068  0.1113  0.4905 -0.0572
 7735TIP3    H144620   1.172   4.134   2.051 -0.2756 -0.0145  1.6317
 7735TIP3    H244621   1.305   4.125   1.980 -1.6188 -0.6861 -0.9315
 7736TIP3   OH244622   3.714   3.242   3.555 -0.1100 -0.0339 -0.0233
 7736TIP3    H144623   3.658   3.167   3.537 -0.4108  0.5012 -1.5015
 7736TIP3    H244624   3.776   3.244   3.482  1.2469 -0.0517  1.0808
 7737TIP3   OH244625   2.402   1.698   4.543  0.2598  0.1595 -0.4990
 7737TIP3    H144626   2.349   1.667   4.616  0.9451 -0.4879 -0.2620
 7737TIP3    H244627   2.437   1.782   4.572 -1.2269  0.9942 -0.9608
 7738TIP3   OH244628   5.911   5.801   1.976 -0.3741 -0.3600  0.5166
 7738TIP3    H144629   5.866   5.761   1.902  0.8263  0.9878 -1.0343
 7738TIP3    H244630   5.882   5.751   2.052 -2.7042 -0.9499 -0.6620
 7739TIP3   OH244631   2.305   1.455   3.240  0.2843  0.4558 -0.3751
 7739TIP3    H144632   2.311   1.360   3.249 -1.6276  0.1508 -1.6542
 7739TIP3    H244633   2.385   1.480   3.195  2.2107 -0.0858  2.5084
 7740TIP3   OH244634   6.685   0.405   3.780 -0.8109  0.2351  0.3447
 7740TIP3    H144635   6.745   0.474   3.752  0.4261 -0.6263  0.7432
 7740TIP3    H244636   6.722   0.373   3.862 -1.9766 -0.1596  0.7395
 7741TIP3   OH244637   1.278   4.322  12.701 -0.7787  0.3552  0.5041
 7741TIP3    H144638   1.282   4.394  12.637 -0.4118 -0.8086 -0.8398
 7741TIP3    H244639   1.197   4.337  12.749 -0.7490  1.6155  0.1985
 7742TIP3   OH244640   6.144   1.927  12.710 -0.2879 -0.0393 -0.2710
 7742TIP3    H144641   6.236   1.926  12.735  0.0019  1.1286 -1.1992
 7742TIP3    H244642   6.143   1.970  12.625 -1.9026  2.0525  0.7078
 7743TIP3   OH244643   4.173   3.430   6.431 -0.1823 -0.2339  0.2629
 7743TIP3    H144644   4.230   3.506   6.443 -1.3235  0.6671  0.1259
 7743TIP3    H244645   4.137   3.414   6.518  0.3069 -0.8400  0.3610
 7744TIP3   OH244646   5.307   6.673  13.798  0.0906 -0.0777 -0.5655
 7744TIP3    H144647   5.292   6.592  13.749 -0.5954 -0.4073  0.1786
 7744TIP3    H244648   5.262   6.660  13.881  0.1603  0.9859 -0.3478
 7745TIP3   OH244649   3.698   1.503  15.682 -0.4520  0.5682 -0.4635
 7745TIP3    H144650   3.629   1.450  15.722 -1.0105  1.6158  0.0056
 7745TIP3    H244651   3.698   1.477  15.590  0.0804 -1.0597 -0.0415
 7746TIP3   OH244652   2.398   6.484  11.894  0.3130 -0.5865 -0.7244
 7746TIP3    H144653   2.364   6.408  11.941  1.8309 -0.1278  1.2667
 7746TIP3    H244654   2.345   6.489  11.814 -1.3898 -2.3135  0.2163
 7747TIP3   OH244655   1.805   5.107   0.795 -0.0335 -0.2327 -0.9623
 7747TIP3    H144656   1.798   5.013   0.774 -0.5366 -0.4879  0.2478
 7747TIP3    H244657   1.898   5.125   0.794  0.1474 -1.0185 -0.1774
 7748TIP3   OH244658   1.654   1.956   3.501 -0.0323 -0.7943 -0.2782
 7748TIP3    H144659   1.605   1.968   3.420  0.6850 -1.0028 -0.7587
 7748TIP3    H244660   1.729   2.016   3.492 -0.9915  0.7203  1.1351
 7749TIP3   OH244661   2.173   1.063  12.787 -0.4947 -0.6279  0.4802
 7749TIP3    H144662   2.195   1.135  12.729 -2.2269 -0.6154 -0.2510
 7749TIP3    H244663   2.206   0.985  12.743 -1.2071 -0.5484 -0.2162
 7750TIP3   OH244664   1.744   0.162  12.018  0.3619  0.3264 -0.8194
 7750TIP3    H144665   1.702   0.192  12.099  2.4693 -0.3983  0.6230
 7750TIP3    H244666   1.702   0.214  11.949 -0.3937  2.1398  0.8937
 7751TIP3   OH244667   3.179   4.554   5.849  0.1104 -0.2146 -0.0823
 7751TIP3    H144668   3.190   4.642   5.883  0.4309 -0.9664  1.8805
 7751TIP3    H244669   3.084   4.542   5.843  0.0648  0.1912 -0.1760
 7752TIP3   OH244670   5.999   3.725   3.330  0.1785  0.4694  0.1383
 7752TIP3    H144671   6.058   3.785   3.285 -0.0529 -1.9436 -3.8762
 7752TIP3    H244672   6.051   3.647   3.345 -0.9924 -0.3792 -0.0489
 7753TIP3   OH244673   6.317   6.756   1.836 -0.6556  0.0689  0.3214
 7753TIP3    H144674   6.350   6.836   1.796 -1.1267  0.2543  0.2927
 7753TIP3    H244675   6.225   6.776   1.857 -1.8718 -1.5306 -2.7883
 7754TIP3   OH244676   6.457   1.173   2.057 -0.3086 -0.3588 -0.0069
 7754TIP3    H144677   6.493   1.087   2.077  0.9446  0.1192 -0.0999
 7754TIP3    H244678   6.403   1.160   1.979  1.5647 -0.6970 -1.3101
 7755TIP3   OH244679   0.190   0.085   3.128  0.1089 -0.6895 -0.6206
 7755TIP3    H144680   0.268   0.129   3.096  0.1218 -0.7091 -0.6162
 7755TIP3    H244681   0.214  -0.008   3.131 -0.6197 -1.0254 -2.8115
 7756TIP3   OH244682   4.672   1.883   4.469 -0.1349 -0.0813  0.0239
 7756TIP3    H144683   4.706   1.963   4.508 -2.7581  0.9934  0.3138
 7756TIP3    H244684   4.604   1.854   4.530 -0.5994 -1.4098 -1.0862
 7757TIP3   OH244685   0.550   2.159   0.240  0.2745  0.6108  0.0231
 7757TIP3    H144686   0.567   2.065   0.251  0.3766  0.5688 -0.4681
 7757TIP3    H244687   0.580   2.199   0.322 -0.1105  0.1714  0.3847
 7758TIP3   OH244688   5.479   6.132   0.545  0.4848  0.4758 -0.3828
 7758TIP3    H144689   5.409   6.069   0.527  1.4631 -0.8941  0.4060
 7758TIP3    H244690   5.496   6.123   0.638  0.6644  1.9364 -0.2491
 7759TIP3   OH244691   4.908   4.499   5.695 -0.3885  0.0764 -0.6502
 7759TIP3    H144692   4.981   4.551   5.729  0.3794 -0.2896 -1.6914
 7759TIP3    H244693   4.869   4.459   5.772  0.4195  0.3932 -0.0602
 7760TIP3   OH244694   1.361   0.752   0.312  0.0331 -0.3809  0.2068
 7760TIP3    H144695   1.349   0.690   0.385  1.2164 -0.0657  0.7039
 7760TIP3    H244696   1.411   0.824   0.351 -2.3866  1.5380 -0.0470
 7761TIP3   OH244697   6.652   5.286   4.833  0.0340 -0.3028  0.2174
 7761TIP3    H144698   6.669   5.193   4.817  0.5126 -0.0071 -1.0917
 7761TIP3    H244699   6.598   5.287   4.912  0.9962 -1.6332  0.9514
 7762TIP3   OH244700   2.785   4.716   3.425  0.5805 -0.1054  0.3166
 7762TIP3    H144701   2.859   4.685   3.478  0.7978  1.4671  0.9627
 7762TIP3    H244702   2.721   4.645   3.431  1.3112 -0.7213  1.2157
 7763TIP3   OH244703   1.714   0.085   0.479 -0.4525  0.2585 -0.0343
 7763TIP3    H144704   1.627   0.089   0.520 -0.7930  2.0093 -0.8324
 7763TIP3    H244705   1.710   0.149   0.409  1.2338 -0.2504 -0.6398
 7764TIP3   OH244706   1.782   3.220   2.562 -0.3508  0.4200 -0.0745
 7764TIP3    H144707   1.798   3.313   2.576  1.8024  0.1071 -0.1445
 7764TIP3    H244708   1.777   3.183   2.650 -0.1215  0.4419 -0.0522
 7765TIP3   OH244709   1.891   0.030   1.878 -0.3223 -0.6311 -1.2268
 7765TIP3    H144710   1.809   0.035   1.830 -0.4708  2.9656 -0.8310
 7765TIP3    H244711   1.866   0.001   1.966 -1.2331  0.5760 -1.0724
 7766TIP3   OH244712   1.192   0.542  16.352  0.0203  0.4257 -0.2142
 7766TIP3    H144713   1.169   0.544  16.260 -1.0563  2.1479  0.0458
 7766TIP3    H244714   1.249   0.618  16.364 -0.2950  0.5396  0.6301
 7767TIP3   OH244715   5.488   0.723   1.052 -0.3407  0.0912  0.3636
 7767TIP3    H144716   5.576   0.760   1.047 -0.4356  0.2834  0.1218
 7767TIP3    H244717   5.444   0.775   1.119 -1.0482  1.6276 -1.2163
 7768TIP3   OH244718   5.193   1.967   3.526  0.3721 -0.0147 -0.3178
 7768TIP3    H144719   5.274   2.018   3.520  1.5985 -1.8139  0.0001
 7768TIP3    H244720   5.208   1.892   3.469 -0.6384 -0.9160  0.5566
 7769TIP3   OH244721   6.479   2.175   1.245  0.1956  0.1597  0.1687
 7769TIP3    H144722   6.506   2.142   1.331 -0.0888  1.8580  0.9548
 7769TIP3    H244723   6.552   2.229   1.217 -0.1156  0.3795 -0.2160
 7770TIP3   OH244724   3.026   5.095   2.383 -0.3421  0.3224  0.5893
 7770TIP3    H144725   2.975   5.081   2.304  0.3577 -0.4857  0.2593
 7770TIP3    H244726   3.019   5.012   2.431  0.1933  0.3923  0.8022
 7771TIP3   OH244727   4.402   6.672   1.635  0.2070 -0.5064 -0.0889
 7771TIP3    H144728   4.471   6.614   1.666 -1.3885 -1.7822  1.3209
 7771TIP3    H244729   4.378   6.637   1.549  0.6538 -0.6684 -0.1480
 7772TIP3   OH244730   5.308   0.521  16.822 -0.4315  0.0885  1.1730
 7772TIP3    H144731   5.221   0.499  16.856  0.7349  0.4249  4.7306
 7772TIP3    H244732   5.366   0.455  16.858  1.0994  1.0293  0.5288
 7773TIP3   OH244733   1.919   3.568  10.881  0.0117 -0.0659  0.2601
 7773TIP3    H144734   1.850   3.573  10.948 -0.6932 -0.7710 -0.3896
 7773TIP3    H244735   1.985   3.510  10.919  3.4898  5.2458  3.6387
 7774TIP3   OH244736   2.754   2.202   0.022  0.4460 -0.2264  0.4622
 7774TIP3    H144737   2.799   2.118   0.026  1.5179  0.3574  1.0181
 7774TIP3    H244738   2.824   2.266   0.011 -0.4909  0.4488 -2.1138
 7775TIP3   OH244739   4.062   2.250  14.806  0.0355  0.3942  0.4879
 7775TIP3    H144740   4.012   2.319  14.761  0.9581  1.5878  1.2186
 7775TIP3    H244741   3.997   2.208  14.863 -0.8431 -0.2573 -0.9498
 7776TIP3   OH244742   4.883   2.362  14.393 -0.1559 -0.5896  0.0665
 7776TIP3    H144743   4.881   2.339  14.300 -0.7618  2.3778 -0.7325
 7776TIP3    H244744   4.801   2.409  14.408  1.1362  1.3587  1.3994
 7777TIP3   OH244745   1.194   2.402  16.394 -0.1737  0.2468 -0.0580
 7777TIP3    H144746   1.211   2.404  16.488 -1.6754  0.3570  0.2472
 7777TIP3    H244747   1.275   2.433  16.354 -0.4500  3.2063  1.3639
 7778TIP3   OH244748   1.372   2.579  14.533  0.1020  0.0289 -0.1783
 7778TIP3    H144749   1.355   2.605  14.623 -0.3914 -0.7754 -0.0334
 7778TIP3    H244750   1.296   2.611  14.484 -2.0203 -3.5150  0.4607
 7779TIP3   OH244751   5.277   1.274   4.030  0.9785  0.2406 -0.4162
 7779TIP3    H144752   5.186   1.304   4.034  0.8059 -0.3908  2.7462
 7779TIP3    H244753   5.275   1.188   4.072  2.7205 -0.8087 -2.3234
 7780TIP3   OH244754   5.356   1.484  16.930  0.3824  0.1851  0.1590
 7780TIP3    H144755   5.435   1.481  16.985  0.0316  0.7081  0.6997
 7780TIP3    H244756   5.285   1.458  16.989 -0.0102  0.8347 -0.0234
 7781TIP3   OH244757   3.979   2.360   4.218 -0.4889 -0.2569  0.6358
 7781TIP3    H144758   4.033   2.398   4.149 -0.4582  1.8468  1.7395
 7781TIP3    H244759   3.940   2.282   4.178 -0.2799  0.7387 -1.6557
 7782TIP3   OH244760   0.512   1.132  14.557 -0.7744  0.9216  0.4386
 7782TIP3    H144761   0.493   1.198  14.491 -0.5355  2.3125  1.7073
 7782TIP3    H244762   0.444   1.144  14.623 -1.1352 -0.5842  0.3649
 7783TIP3   OH244763   2.509   1.205  13.370 -0.0308 -0.6085 -0.5607
 7783TIP3    H144764   2.477   1.294  13.351  2.0147  0.2704 -0.1707
 7783TIP3    H244765   2.557   1.215  13.452  1.8023 -1.6718 -1.4523
 7784TIP3   OH244766   4.637   2.346  14.057 -0.4524  0.5764 -0.2467
 7784TIP3    H144767   4.723   2.329  14.094 -0.8944  0.0445  0.5866
 7784TIP3    H244768   4.591   2.396  14.125 -0.2877  2.2664 -1.3288
 7785TIP3   OH244769   5.922   1.750  15.936  0.5326 -0.1907  0.6557
 7785TIP3    H144770   5.941   1.660  15.964  0.0275 -0.2050  0.9567
 7785TIP3    H244771   5.827   1.752  15.925  0.6625 -0.0635 -0.6321
 7786TIP3   OH244772   4.117   1.874  16.870 -0.0734 -0.2090 -0.1124
 7786TIP3    H144773   4.050   1.822  16.915 -0.7836  1.3299  0.6672
 7786TIP3    H244774   4.114   1.844  16.779  0.2535 -2.2251  0.4768
 7787TIP3   OH244775   4.416   6.777   0.192  0.2171  0.6597  0.7654
 7787TIP3    H144776   4.511   6.780   0.181  0.1056  1.0515 -0.1860
 7787TIP3    H244777   4.402   6.803   0.283  0.9396  2.3060  0.4520
 7788TIP3   OH244778   4.937   1.562  12.066  0.0147  0.0241 -0.0121
 7788TIP3    H144779   4.851   1.592  12.038 -0.7334  0.3380  2.4162
 7788TIP3    H244780   4.926   1.468  12.083 -0.2330  0.3177  1.5507
 7789TIP3   OH244781   4.495   2.741   3.951  1.4296  0.3879  0.2847
 7789TIP3    H144782   4.444   2.774   4.024  0.1852  0.3694 -0.5451
 7789TIP3    H244783   4.546   2.817   3.921  1.0570  0.7007  0.4366
 7790TIP3   OH244784   5.260   2.193  11.185  0.0256  0.3856  0.1662
 7790TIP3    H144785   5.203   2.225  11.115  0.7869  1.5909  0.0802
 7790TIP3    H244786   5.347   2.188  11.146  0.0416 -1.2988  0.3441
 7791TIP3   OH244787   4.218   5.384  12.567 -0.4920 -0.3847 -0.4758
 7791TIP3    H144788   4.290   5.414  12.511  0.3557 -0.3434  0.6169
 7791TIP3    H244789   4.156   5.457  12.568 -0.2102 -0.1356 -0.8354
 7792TIP3   OH244790   6.355   1.101  16.605 -0.2923  0.7712 -1.0850
 7792TIP3    H144791   6.448   1.076  16.610 -1.1432 -3.4152 -2.1709
 7792TIP3    H244792   6.314   1.055  16.678 -1.6104  2.4077 -0.7343
 7793TIP3   OH244793   6.080   3.359  10.325 -0.2710 -0.0823  0.0554
 7793TIP3    H144794   6.000   3.349  10.378 -0.3346 -1.5375 -0.2587
 7793TIP3    H244795   6.142   3.298  10.365  0.7694  1.1834  0.4115
 7794TIP3   OH244796   4.698   0.218   4.460 -0.0578  0.0077 -0.5625
 7794TIP3    H144797   4.696   0.295   4.402 -0.0419 -0.4894 -1.2434
 7794TIP3    H244798   4.746   0.152   4.409 -1.1891 -0.8689 -0.5287
 7795TIP3   OH244799   3.045   6.324   1.572  0.0522  0.0484  0.2675
 7795TIP3    H144800   3.005   6.407   1.601  0.4233 -0.1616  1.4459
 7795TIP3    H244801   2.990   6.257   1.612 -0.3063 -0.2968 -0.7716
 7796TIP3   OH244802   1.447   4.879   0.599  0.5627 -0.1280  0.2675
 7796TIP3    H144803   1.485   4.930   0.527  0.5478  2.0754  1.7093
 7796TIP3    H244804   1.390   4.816   0.556  0.5289  1.1340 -1.6743
 7797TIP3   OH244805   2.669   0.228  15.432 -0.0517 -0.0852  0.7228
 7797TIP3    H144806   2.676   0.173  15.511  1.9695 -0.8771  0.0525
 7797TIP3    H244807   2.663   0.165  15.360 -2.5977  0.6237  0.2176
 7798TIP3   OH244808   0.099   3.344  11.134  0.0605  0.3411 -0.5511
 7798TIP3    H144809   0.157   3.419  11.120  0.4725  0.4950  1.6660
 7798TIP3    H244810   0.019   3.382  11.169  0.5110 -0.2713  1.2225
 7799TIP3   OH244811   1.082   1.226  16.010  0.3988 -0.1442  0.4122
 7799TIP3    H144812   1.038   1.145  16.037  1.2443 -0.2434  1.5603
 7799TIP3    H244813   1.175   1.206  16.018  0.6154  1.0910  1.1768
 7800TIP3   OH244814   1.917   0.292  11.786 -0.1509  0.0730 -0.3034
 7800TIP3    H144815   1.941   0.241  11.708 -2.6869  0.1482 -1.2335
 7800TIP3    H244816   1.830   0.326  11.766  0.0491  1.9709  1.7012
 7801TIP3   OH244817   4.468   4.277   3.247  0.1347  0.4555  0.1364
 7801TIP3    H144818   4.554   4.316   3.260  0.5022 -0.6714  1.3041
 7801TIP3    H244819   4.475   4.230   3.164  0.3478  1.0981 -0.2184
 7802TIP3   OH244820   2.291   3.390  16.715 -0.2429 -0.6063  0.2942
 7802TIP3    H144821   2.258   3.316  16.767  0.2092 -0.5492  0.6617
 7802TIP3    H244822   2.385   3.390  16.730 -0.3368  0.6199  1.0580
 7803TIP3   OH244823   6.500   5.436  10.251  0.3159 -0.1103  0.5876
 7803TIP3    H144824   6.517   5.343  10.233  0.4986 -0.0320  0.3447
 7803TIP3    H244825   6.530   5.449  10.341  1.0705 -0.0993  0.3468
 7804TIP3   OH244826   1.090   4.533  12.537 -0.5284 -0.0849 -0.1996
 7804TIP3    H144827   1.171   4.564  12.578  0.8619 -1.2851 -1.9069
 7804TIP3    H244828   1.047   4.613  12.505  0.0736  0.5411  0.5269
 7805TIP3   OH244829   1.179   2.774   4.287  0.0460 -0.2598 -0.2397
 7805TIP3    H144830   1.084   2.776   4.299 -0.2308  3.4997 -1.7089
 7805TIP3    H244831   1.198   2.682   4.267 -3.2782 -1.1228 -0.0691
 7806TIP3   OH244832   5.209   0.487   3.408 -0.2271 -0.1608 -0.5168
 7806TIP3    H144833   5.137   0.549   3.393  0.5513  0.7417 -0.5794
 7806TIP3    H244834   5.255   0.521   3.484  2.1743  1.2281 -2.4709
 7807TIP3   OH244835   5.716   6.147   4.429  0.1405 -0.3507 -0.2740
 7807TIP3    H144836   5.790   6.172   4.374 -0.0347  0.0061 -0.3519
 7807TIP3    H244837   5.716   6.051   4.428  1.7272 -0.4108  1.2307
 7808TIP3   OH244838   6.275   3.008   3.748 -0.1885  0.1436  0.3065
 7808TIP3    H144839   6.303   3.086   3.796  0.8518  0.5217 -0.8512
 7808TIP3    H244840   6.307   2.934   3.799 -0.2060  0.5005  0.8368
 7809TIP3   OH244841   0.135   4.386   4.930  0.3650  0.4626  0.5875
 7809TIP3    H144842   0.081   4.402   5.007 -1.7222 -1.4194 -0.3570
 7809TIP3    H244843   0.164   4.295   4.940 -1.2643 -0.3915 -1.4696
 7810TIP3   OH244844   0.111   0.080  11.302 -0.2047  0.1283 -0.4236
 7810TIP3    H144845   0.081   0.045  11.218  0.1899  0.9860 -0.9303
 7810TIP3    H244846   0.040   0.136  11.332 -0.1988  0.0983 -0.3539
 7811TIP3   OH244847   0.018   2.145  13.097 -0.0473  0.1095  0.6131
 7811TIP3    H144848   0.057   2.097  13.025  0.6185  1.5956 -0.0682
 7811TIP3    H244849  -0.001   2.232  13.061 -1.5031  0.2709  1.6898
 7812TIP3   OH244850   4.874   5.854   2.555 -0.0635  0.6855 -0.2585
 7812TIP3    H144851   4.930   5.930   2.569 -0.1914  0.7179  0.0697
 7812TIP3    H244852   4.809   5.885   2.492 -0.1996  0.8918 -0.0194
 7813TIP3   OH244853   3.815   1.935  16.984  0.1194 -0.4950  0.3332
 7813TIP3    H144854   3.860   1.859  17.019 -1.7189 -2.5495 -1.4573
 7813TIP3    H244855   3.764   1.969  17.058 -2.2780 -3.6048  0.3060
 7814TIP3   OH244856   5.098   6.835  16.582 -0.1082 -0.0983 -0.0294
 7814TIP3    H144857   5.047   6.895  16.636  1.2804  1.5642 -0.4561
 7814TIP3    H244858   5.066   6.848  16.493  1.7793  1.9419 -0.5161
 7815TIP3   OH244859   6.431   4.280  14.869 -0.0944 -0.3238 -0.2288
 7815TIP3    H144860   6.427   4.356  14.927 -0.4329  0.4575 -1.2364
 7815TIP3    H244861   6.515   4.239  14.888  0.4788  0.7936 -0.2403
 7816TIP3   OH244862   0.662   4.433  16.213  0.3330 -0.2999 -0.1437
 7816TIP3    H144863   0.637   4.501  16.275  1.9047  0.8736 -0.7245
 7816TIP3    H244864   0.614   4.454  16.133  1.3273  0.5667 -0.5346
 7817TIP3   OH244865   5.357   0.695   4.316 -0.5055 -1.1615  0.1734
 7817TIP3    H144866   5.374   0.695   4.410  0.2763  0.8319  0.0780
 7817TIP3    H244867   5.356   0.787   4.291 -0.7908 -1.6344 -1.7665
 7818TIP3   OH244868   6.417   6.749  10.205 -0.6389 -0.0643  0.6716
 7818TIP3    H144869   6.330   6.710  10.199 -0.2510 -0.7709 -0.5994
 7818TIP3    H244870   6.401   6.834  10.246 -1.6996 -0.8503  1.9949
 7819TIP3   OH244871   3.763   4.626   1.652  0.5064 -0.2224  0.4058
 7819TIP3    H144872   3.776   4.536   1.621 -0.5330  0.1760 -1.3859
 7819TIP3    H244873   3.770   4.679   1.572 -0.4068  1.1161  1.1840
 7820TIP3   OH244874   1.056   6.587  16.006  0.8499 -0.2827 -0.1507
 7820TIP3    H144875   1.078   6.497  15.983  1.1706 -0.0164 -0.9130
 7820TIP3    H244876   0.984   6.579  16.068 -0.9923 -1.0332 -2.2226
 7821TIP3   OH244877   4.580   2.479   5.595 -0.0280 -0.3693  0.3139
 7821TIP3    H144878   4.646   2.497   5.528  0.7577 -1.3555  0.7950
 7821TIP3    H244879   4.557   2.565   5.630  0.5181  0.0412 -0.3135
 7822TIP3   OH244880   1.643   5.378   1.945  0.1803 -0.3025 -0.0828
 7822TIP3    H144881   1.598   5.299   1.914 -0.1903 -0.5586  1.0594
 7822TIP3    H244882   1.727   5.377   1.899 -0.6497 -0.2522 -1.6286
 7823TIP3   OH244883   2.143   5.806  13.078 -0.0157 -0.0047  0.2149
 7823TIP3    H144884   2.105   5.814  12.990  1.7070  0.2046 -0.5416
 7823TIP3    H244885   2.193   5.724  13.075  0.0589  0.0044  1.0068
 7824TIP3   OH244886   4.638   2.510  16.460  0.1761  0.1280 -0.1919
 7824TIP3    H144887   4.699   2.458  16.512  1.3877  0.7338 -0.9429
 7824TIP3    H244888   4.659   2.601  16.482  0.1427  0.3674 -1.1109
 7825TIP3   OH244889   0.170   5.211  16.858 -0.0862  0.4196  0.1816
 7825TIP3    H144890   0.177   5.302  16.827  0.5996  0.6574  0.9898
 7825TIP3    H244891   0.166   5.219  16.953  0.1480 -0.4139  0.2646
 7826TIP3   OH244892   1.638   6.832   1.190 -0.0764 -0.3143 -0.2701
 7826TIP3    H144893   1.682   6.768   1.135  0.3186 -0.5916  0.3568
 7826TIP3    H244894   1.686   6.914   1.174  0.6406 -0.6038  0.3694
 7827TIP3   OH244895   0.834   3.630   1.010 -0.0309  0.0299  0.3179
 7827TIP3    H144896   0.798   3.717   1.027  1.0725  0.2569  1.7556
 7827TIP3    H244897   0.860   3.632   0.918  1.4976  1.8517  0.7096
 7828TIP3   OH244898   4.526   3.878   5.524 -0.0755 -0.0636 -0.1044
 7828TIP3    H144899   4.467   3.933   5.576  1.3277 -0.7772  2.3822
 7828TIP3    H244900   4.573   3.940   5.468 -0.1581  1.0281  0.9829
 7829TIP3   OH244901   3.304   1.809  10.752  1.0217 -0.6089  0.0673
 7829TIP3    H144902   3.378   1.811  10.693  1.1307 -0.9066  0.1915
 7829TIP3    H244903   3.327   1.871  10.822  0.9213 -0.3078 -0.1682
 7830TIP3   OH244904   3.364   5.609  14.999 -0.5675 -0.8400  0.5371
 7830TIP3    H144905   3.281   5.655  14.992 -0.4764 -0.7484  0.0659
 7830TIP3    H244906   3.395   5.600  14.909  0.7518  0.6027  0.8086
 7831TIP3   OH244907   5.333   0.803  11.877  0.9176  0.0560 -0.1717
 7831TIP3    H144908   5.260   0.862  11.859  1.7962  0.3675 -3.3346
 7831TIP3    H244909   5.396   0.821  11.808  2.9861 -1.8646  1.0618
 7832TIP3   OH244910   6.597   2.916  16.216  0.4426 -0.1262  0.2492
 7832TIP3    H144911   6.600   2.850  16.285  0.4997 -0.3533  0.0352
 7832TIP3    H244912   6.683   2.958  16.219  0.5474 -0.3299  0.1329
 7833TIP3   OH244913   5.959   5.509  16.385 -0.3749  0.2276  0.0110
 7833TIP3    H144914   6.033   5.535  16.440  0.1687  0.5869 -0.8867
 7833TIP3    H244915   5.988   5.525  16.296 -1.0836 -0.8049 -0.4193
 7834TIP3   OH244916   6.266   4.297  10.757  0.1432  0.4193 -0.6556
 7834TIP3    H144917   6.305   4.236  10.694  0.9474  1.6505 -1.3804
 7834TIP3    H244918   6.230   4.240  10.825  0.9889 -0.8662 -1.2347
 7835TIP3   OH244919   2.200   3.189  11.861  0.0040  0.4324 -0.1806
 7835TIP3    H144920   2.244   3.106  11.842  2.0158  1.5730 -0.8342
 7835TIP3    H244921   2.256   3.230  11.928  0.3923  2.2410 -1.5287
 7836TIP3   OH244922   0.468   2.488   3.536 -0.1985 -0.1070  0.3674
 7836TIP3    H144923   0.539   2.485   3.600 -0.2472 -0.9636  0.3896
 7836TIP3    H244924   0.432   2.399   3.536 -1.3416  0.3409  0.4413
 7837TIP3   OH244925   0.094   0.945   2.265 -0.4574  0.4085  0.0023
 7837TIP3    H144926   0.136   0.907   2.187 -1.0850 -0.1109 -0.0976
 7837TIP3    H244927   0.116   1.038   2.261  0.8633  0.1244  0.0829
 7838TIP3   OH244928   4.228   2.170   0.561  0.4086 -0.4863 -0.5224
 7838TIP3    H144929   4.252   2.238   0.624 -0.1486 -0.9224  0.1805
 7838TIP3    H244930   4.181   2.216   0.492  1.6709  0.1090 -1.0194
 7839TIP3   OH244931   3.004   1.582   5.356  0.2495  0.2317 -0.1518
 7839TIP3    H144932   2.996   1.677   5.369  0.3068 -0.0120  2.0174
 7839TIP3    H244933   2.921   1.546   5.387  0.3275 -0.4594 -0.7204
 7840TIP3   OH244934   2.738   2.504   4.920  0.5070 -0.7175 -0.0860
 7840TIP3    H144935   2.664   2.455   4.883  0.4188 -0.3717 -0.3755
 7840TIP3    H244936   2.742   2.477   5.011 -1.7659  1.3121  0.7258
 7841TIP3   OH244937   3.958   4.549   4.975  0.5583 -0.2597 -0.6000
 7841TIP3    H144938   4.005   4.521   5.054 -0.8473  0.5836  0.5876
 7841TIP3    H244939   3.930   4.467   4.934  1.0013 -0.7018 -0.0417
 7842TIP3   OH244940   1.678   0.264  13.097  0.0222  0.4336 -0.3128
 7842TIP3    H144941   1.744   0.210  13.140  1.1045  0.4165 -1.8913
 7842TIP3    H244942   1.632   0.204  13.039  0.6887  0.9804 -1.4689
 7843TIP3   OH244943   2.542   3.589  11.085  0.1971  0.0586 -0.5346
 7843TIP3    H144944   2.515   3.497  11.086  2.4272 -0.6432  0.4256
 7843TIP3    H244945   2.637   3.586  11.083  0.3162  2.3932 -2.3283
 7844TIP3   OH244946   2.322   1.747   1.713 -0.6468  0.4258 -0.1752
 7844TIP3    H144947   2.275   1.731   1.794 -0.7385 -3.4416 -0.8333
 7844TIP3    H244948   2.287   1.831   1.682 -1.9108  1.1371  2.7976
 7845TIP3   OH244949   5.640   1.330  11.861  0.2522  0.2832  0.4980
 7845TIP3    H144950   5.604   1.241  11.860 -1.4597  0.9289  0.9756
 7845TIP3    H244951   5.648   1.354  11.769  2.2211 -0.8996  0.3121
 7846TIP3   OH244952   4.311   6.809   0.676 -0.3173  0.3159  0.1534
 7846TIP3    H144953   4.308   6.880   0.740 -1.0014  0.4712 -0.0401
 7846TIP3    H244954   4.229   6.817   0.627 -0.2051 -0.3410 -0.1590
 7847TIP3   OH244955   2.310   3.121   0.979 -0.1613  0.2306  0.4018
 7847TIP3    H144956   2.388   3.139   0.927 -0.5011  0.9087  0.1127
 7847TIP3    H244957   2.237   3.133   0.918 -0.4570 -1.5094  0.3740
 7848TIP3   OH244958   3.469   5.306   5.413  0.0583  0.2733 -0.4023
 7848TIP3    H144959   3.426   5.313   5.498 -0.0097  0.3478 -0.4424
 7848TIP3    H244960   3.452   5.216   5.384  0.0075  0.2748 -0.3768
 7849TIP3   OH244961   6.002   6.244   3.506 -0.2426  0.4218  0.5960
 7849TIP3    H144962   5.974   6.278   3.591  1.7727 -0.4982  1.6955
 7849TIP3    H244963   6.068   6.178   3.527  0.9795  0.8005 -1.7235
 7850TIP3   OH244964   3.424   6.584   5.538 -0.1522 -0.5094  0.3865
 7850TIP3    H144965   3.519   6.587   5.554 -0.0322 -1.9492  0.0997
 7850TIP3    H244966   3.393   6.513   5.594 -1.2338  0.5373  1.1629
 7851TIP3   OH244967   2.509   2.732   3.066  0.2871 -0.2187  0.2185
 7851TIP3    H144968   2.433   2.688   3.028 -0.4008  0.2452  1.0261
 7851TIP3    H244969   2.495   2.825   3.048  1.2425 -0.2193 -0.6183
 7852TIP3   OH244970   5.814   2.526   4.002 -0.2935 -0.4324 -0.4454
 7852TIP3    H144971   5.836   2.434   4.014  1.6320 -0.0054 -0.4517
 7852TIP3    H244972   5.787   2.556   4.089 -0.1156 -0.7870 -0.2669
 7853TIP3   OH244973   0.338   5.117  12.983  0.0567 -0.2467  0.4052
 7853TIP3    H144974   0.388   5.198  12.975 -1.5434  0.6030 -2.2207
 7853TIP3    H244975   0.390   5.052  12.935  0.6746 -0.4760  1.3547
 7854TIP3   OH244976   1.981   2.929   4.146  0.2004 -0.2193 -0.4634
 7854TIP3    H144977   1.958   2.902   4.234  2.0396 -0.7635 -0.1050
 7854TIP3    H244978   1.900   2.966   4.110  0.3843  4.4017  3.0249
 7855TIP3   OH244979   2.457   0.868  10.860  0.0443  0.2503  0.1948
 7855TIP3    H144980   2.377   0.816  10.862 -0.0452  0.3854  0.1380
 7855TIP3    H244981   2.475   0.882  10.767  0.2973 -0.0278  0.1997
 7856TIP3   OH244982   3.941   2.311  11.012  0.0133 -0.2610 -0.2190
 7856TIP3    H144983   3.909   2.284  10.926  1.1933 -1.4239 -0.3465
 7856TIP3    H244984   4.035   2.323  10.999 -0.1462  1.9632  0.3659
 7857TIP3   OH244985   3.837   3.971  11.811 -0.3461  0.3545  0.3927
 7857TIP3    H144986   3.863   3.948  11.721 -0.4283 -1.5039  0.8068
 7857TIP3    H244987   3.817   3.887  11.852 -2.9519  1.3458  1.3712
 7858TIP3   OH244988   0.697   3.033  13.915 -0.0463 -0.4166 -0.5099
 7858TIP3    H144989   0.772   3.042  13.973 -0.3061  0.1386 -0.2516
 7858TIP3    H244990   0.656   3.120  13.914  0.0195 -0.3826 -1.6256
 7859TIP3   OH244991   2.589   4.473   5.633  0.1265 -0.1386  0.1140
 7859TIP3    H144992   2.498   4.450   5.614 -0.1263 -1.8837  2.8528
 7859TIP3    H244993   2.590   4.490   5.727  2.5978  0.1187  0.1059
 7860TIP3   OH244994   3.972   4.183  14.434  0.1261 -0.2940 -0.2802
 7860TIP3    H144995   3.918   4.228  14.499  1.5150  1.0791 -0.0133
 7860TIP3    H244996   4.008   4.107  14.480  0.5772  0.3097  0.3945
 7861TIP3   OH244997   2.134   1.467   2.078  0.7089 -0.1359  0.3323
 7861TIP3    H144998   2.154   1.424   1.995  1.5486  0.9991 -0.0701
 7861TIP3    H244999   2.044   1.442   2.097 -0.3972  1.6016 -2.1899
 7862TIP3   OH245000   2.190   6.621  16.603  0.3392  0.0793  0.4403
 7862TIP3    H145001   2.128   6.548  16.591  1.5481 -0.8411 -0.5449
 7862TIP3    H245002   2.178   6.647  16.694 -2.5448  0.9646 -0.0820
 7863TIP3   OH245003   0.013   1.556  11.983 -0.8916  0.2345  0.0313
 7863TIP3    H145004  -0.073   1.517  11.970 -0.1322 -1.8359  0.8780
 7863TIP3    H245005   0.055   1.552  11.897 -1.7331  1.6602 -0.4929
 7864TIP3   OH245006   4.921   2.212   5.278 -0.5894 -0.4554  0.4623
 7864TIP3    H145007   4.943   2.235   5.187  0.2999 -0.9839  0.5318
 7864TIP3    H245008   4.962   2.127   5.291 -1.8622 -1.0168  0.9455
 7865TIP3   OH245009   0.768   0.772  12.341 -0.3728  0.4117  0.1726
 7865TIP3    H145010   0.681   0.808  12.324 -0.2468  0.6992  0.1293
 7865TIP3    H245011   0.779   0.778  12.436  0.2860  1.9907  0.0207
 7866TIP3   OH245012   3.621   5.153  15.285 -0.1025  0.3579 -0.5838
 7866TIP3    H145013   3.599   5.087  15.351 -0.3572 -0.0356 -1.0478
 7866TIP3    H245014   3.704   5.190  15.314 -0.6261  0.7962  0.4029
 7867TIP3   OH245015   3.172   0.611  11.692 -0.0258 -0.7071 -0.6774
 7867TIP3    H145016   3.080   0.598  11.714  0.0003 -0.1733 -0.2442
 7867TIP3    H245017   3.193   0.538  11.633 -1.2966  0.2891 -2.4782
 7868TIP3   OH245018   6.475   1.902   4.240  0.4786  0.5498  0.2451
 7868TIP3    H145019   6.398   1.946   4.206 -0.0517  0.1579  0.9167
 7868TIP3    H245020   6.529   1.883   4.163 -0.5749 -0.1047 -0.3486
 7869TIP3   OH245021   0.684   0.899   0.079 -0.1764 -0.1796  0.4572
 7869TIP3    H145022   0.628   0.939   0.145 -0.1587  1.3421 -0.3968
 7869TIP3    H245023   0.766   0.948   0.084  0.0410 -0.4422 -0.2746
 7870TIP3   OH245024   0.655   6.349  13.760  0.6410  0.0857  0.1396
 7870TIP3    H145025   0.617   6.427  13.720  0.2433 -1.2155 -2.2397
 7870TIP3    H245026   0.608   6.339  13.843 -1.3457  0.7878 -0.8352
 7871TIP3   OH245027   5.090   2.537  11.315  0.4617 -0.7855  0.1183
 7871TIP3    H145028   5.140   2.571  11.390  1.2898  0.6331 -1.0164
 7871TIP3    H245029   4.999   2.556  11.335  0.5690 -1.3555  1.2097
 7872TIP3   OH245030   3.998   0.549   5.358 -0.0427 -0.5880  0.3726
 7872TIP3    H145031   3.923   0.580   5.410 -0.2872 -2.8118  1.4735
 7872TIP3    H245032   3.964   0.545   5.268 -1.0352 -0.9004  0.7456
 7873TIP3   OH245033   1.057   1.488  10.703  0.3770 -0.3775  0.8692
 7873TIP3    H145034   1.051   1.494  10.608  2.2983 -3.0258  0.4855
 7873TIP3    H245035   0.970   1.460  10.731  0.3334 -1.4747 -0.3204
 7874TIP3   OH245036   0.399   0.685   0.993  0.1519 -0.3840  0.1155
 7874TIP3    H145037   0.340   0.628   1.042  0.5826 -1.0360 -0.1135
 7874TIP3    H245038   0.481   0.684   1.043  0.1555  0.0591  0.1238
 7875TIP3   OH245039   1.870   3.231  15.693 -0.1746  0.3213 -0.0247
 7875TIP3    H145040   1.901   3.208  15.606 -2.4834  0.7174 -1.0347
 7875TIP3    H245041   1.945   3.273  15.735  0.6049  1.4039 -2.3325
 7876TIP3   OH245042   5.550   2.111  13.536 -0.0911 -0.4001  0.5352
 7876TIP3    H145043   5.630   2.083  13.490 -0.4509  1.0297 -1.0715
 7876TIP3    H245044   5.482   2.052  13.503 -0.0669 -0.3588  0.4115
 7877TIP3   OH245045   3.443   0.047  15.573 -0.0742  0.3864 -0.1607
 7877TIP3    H145046   3.497   0.061  15.496 -2.2374 -1.2564 -2.0996
 7877TIP3    H245047   3.353   0.047  15.540 -0.9646 -3.4329  1.7445
 7878TIP3   OH245048   5.295   1.634   2.807 -0.4167  0.0546 -0.2994
 7878TIP3    H145049   5.237   1.708   2.791 -3.2846 -1.7595  1.0081
 7878TIP3    H245050   5.259   1.563   2.755  3.1865 -0.2155 -2.7822
 7879TIP3   OH245051   5.479   4.707   3.884 -0.3238  0.4920  0.7279
 7879TIP3    H145052   5.528   4.780   3.848  1.8031  0.3677  3.0947
 7879TIP3    H245053   5.465   4.729   3.976  1.3086 -2.3929  1.8243
 7880TIP3   OH245054   6.135   0.969   0.481 -0.4048  0.1868 -0.1077
 7880TIP3    H145055   6.175   0.890   0.518  0.0047 -0.4638 -1.8128
 7880TIP3    H245056   6.208   1.030   0.470 -0.6111  0.5710  0.5950
 7881TIP3   OH245057   4.246   1.477  12.735 -0.2636  0.0837  0.4125
 7881TIP3    H145058   4.257   1.512  12.823 -0.8511  0.4865  0.3267
 7881TIP3    H245059   4.321   1.417  12.723  0.4447  0.8861  0.7603
 7882TIP3   OH245060   2.512   6.585  10.874  0.1243  0.1432 -0.1477
 7882TIP3    H145061   2.483   6.522  10.941  2.6528 -0.9421  0.0327
 7882TIP3    H245062   2.526   6.531  10.797 -0.9664  1.1054 -1.0595
 7883TIP3   OH245063   4.648   0.541   4.381  0.1649 -1.0854  0.0036
 7883TIP3    H145064   4.742   0.548   4.398 -0.1560  0.9527  1.2853
 7883TIP3    H245065   4.607   0.552   4.466 -1.2790  0.3409 -0.8122
 7884TIP3   OH245066   0.018   3.589   2.781  0.1603  0.1836  0.1600
 7884TIP3    H145067  -0.061   3.564   2.734  0.9384 -1.7037 -0.2039
 7884TIP3    H245068   0.006   3.683   2.799 -0.8133  0.6506 -2.4871
 7885TIP3   OH245069   1.710   5.731  13.128  0.1665  0.2752 -0.3314
 7885TIP3    H145070   1.772   5.717  13.057  0.0816  1.1102 -0.5788
 7885TIP3    H245071   1.665   5.812  13.105 -1.1711 -0.4164 -0.2721
 7886TIP3   OH245072   0.997   0.243   2.216 -0.4784  0.2200 -0.4117
 7886TIP3    H145073   1.054   0.276   2.147 -2.0332  1.4380 -1.1776
 7886TIP3    H245074   0.987   0.150   2.196 -0.6248  0.4799 -1.6205
 7887TIP3   OH245075   1.430   5.888   2.530 -0.2057  0.3360 -0.7592
 7887TIP3    H145076   1.498   5.830   2.495  0.7264  0.8546  0.1674
 7887TIP3    H245077   1.418   5.860   2.620 -0.6639  0.7738 -0.6779
 7888TIP3   OH245078   1.259   1.289  11.757  0.1602  0.5665  0.7801
 7888TIP3    H145079   1.192   1.355  11.745  0.3124  0.4919 -0.6957
 7888TIP3    H245080   1.236   1.245  11.839 -3.7675 -1.8992 -1.3325
 7889TIP3   OH245081   2.473   3.395   1.302  0.4435 -0.0042 -0.5533
 7889TIP3    H145082   2.412   3.321   1.292  0.8425 -0.4100 -0.0495
 7889TIP3    H245083   2.521   3.375   1.383 -0.3204  1.4286  0.2931
 7890TIP3   OH245084   4.373   2.835   0.879  0.1513 -0.1481  0.4019
 7890TIP3    H145085   4.313   2.876   0.817  0.5409 -1.8143 -1.1855
 7890TIP3    H245086   4.460   2.850   0.842  0.2326 -3.9517 -1.4617
 7891TIP3   OH245087   1.768   4.834  12.666  0.0441 -0.4061 -0.6767
 7891TIP3    H145088   1.826   4.773  12.713 -0.9305 -0.5667  0.3416
 7891TIP3    H245089   1.733   4.892  12.733 -0.4566  0.1225 -1.3768
 7892TIP3   OH245090   2.559   4.458   4.614 -0.1036 -0.1253 -0.0386
 7892TIP3    H145091   2.544   4.553   4.606 -0.4923 -0.0456  1.2724
 7892TIP3    H245092   2.620   4.437   4.543 -2.0351  0.6085 -2.0298
 7893TIP3   OH245093   2.980   4.170   3.664  0.6435  0.2754 -0.3840
 7893TIP3    H145094   3.007   4.201   3.577  2.1707 -0.9245 -0.3901
 7893TIP3    H245095   2.914   4.232   3.692  1.7356  2.0236 -1.4563
 7894TIP3   OH245096   2.008   6.240   5.146 -0.3260  0.3022 -0.4757
 7894TIP3    H145097   1.919   6.210   5.126 -0.5208  0.3941  0.2025
 7894TIP3    H245098   2.010   6.330   5.113  0.0681 -0.2497 -1.9827
 7895TIP3   OH245099   0.972   2.984  11.932 -0.3539 -0.4285  0.0039
 7895TIP3    H145100   0.879   2.985  11.909 -0.1055 -0.7961 -1.0943
 7895TIP3    H245101   1.010   2.916  11.876  0.4724 -0.7044  0.8767
 7896TIP3   OH245102   4.074   2.016   0.749  0.1351  0.3713  0.2071
 7896TIP3    H145103   4.098   2.084   0.686  1.6143 -1.3665 -1.2384
 7896TIP3    H245104   4.152   2.006   0.804  1.0545 -1.9197 -1.3442
 7897TIP3   OH245105   6.126   6.127   2.790 -0.2777 -0.1436 -0.3339
 7897TIP3    H145106   6.112   6.110   2.697  1.8925  2.1861 -1.1995
 7897TIP3    H245107   6.037   6.129   2.827 -1.1234 -2.8000 -1.9373
 7898TIP3   OH245108   5.159   0.491   1.561 -0.9052  0.3520 -0.2070
 7898TIP3    H145109   5.093   0.555   1.535 -1.6854 -0.2082  0.3645
 7898TIP3    H245110   5.180   0.514   1.651 -1.4098 -0.3781  0.1005
 7899TIP3   OH245111   4.050   5.469  16.904 -0.7395 -0.5384  0.4994
 7899TIP3    H145112   4.083   5.473  16.994 -0.0226  0.3782  0.2187
 7899TIP3    H245113   3.967   5.517  16.907 -0.3671  0.1173  0.5397
 7900TIP3   OH245114   3.519   4.844   2.610 -0.0627  0.0860  0.2978
 7900TIP3    H145115   3.557   4.777   2.554 -0.8641 -1.1829  1.2316
 7900TIP3    H245116   3.591   4.876   2.663  0.3494  0.0565 -0.2414
 7901TIP3   OH245117   2.665   6.464  13.189 -0.1001  0.4603  0.3119
 7901TIP3    H145118   2.684   6.500  13.102  1.0137  1.7650  1.0656
 7901TIP3    H245119   2.710   6.379  13.190 -0.1154  0.4394 -0.3733
 7902TIP3   OH245120   3.718   3.182   4.996  0.6837 -0.1277 -0.2835
 7902TIP3    H145121   3.677   3.103   4.959  1.1968 -0.4941 -0.0780
 7902TIP3    H245122   3.711   3.247   4.926 -1.2336  0.1678  0.1306
 7903TIP3   OH245123   4.703   6.293  16.575 -0.5011 -0.1238 -0.5042
 7903TIP3    H145124   4.635   6.229  16.596 -3.1268  3.0047  1.6276
 7903TIP3    H245125   4.769   6.282  16.643 -0.1744 -1.3958 -0.9966
 7904TIP3   OH245126   6.677   4.848   5.278  0.0281  0.3007 -0.1409
 7904TIP3    H145127   6.639   4.795   5.348 -0.4362  0.7702 -0.0263
 7904TIP3    H245128   6.618   4.837   5.204  1.4883 -1.6590 -1.1021
 7905TIP3   OH245129   1.476   4.182  16.356 -0.1000 -0.1674  0.4930
 7905TIP3    H145130   1.509   4.106  16.308 -2.2127  0.6022 -2.5381
 7905TIP3    H245131   1.554   4.227  16.388  1.5969 -0.4969 -2.7991
 7906TIP3   OH245132   3.908   3.782   0.725  0.0240  0.2633 -0.2372
 7906TIP3    H145133   3.918   3.689   0.707 -1.2267 -0.3795  2.0073
 7906TIP3    H245134   3.844   3.812   0.661 -0.7324 -0.7968 -0.0103
 7907TIP3   OH245135   3.817   3.081   6.284 -0.4613  0.5453 -0.2660
 7907TIP3    H145136   3.791   3.084   6.376 -0.2048 -2.9870  0.0329
 7907TIP3    H245137   3.909   3.053   6.285 -0.4042  0.5908 -1.6025
 7908TIP3   OH245138   1.712   1.353   3.218  0.2046 -0.6517  0.2066
 7908TIP3    H145139   1.655   1.429   3.228  0.7285  0.1252 -2.1360
 7908TIP3    H245140   1.790   1.374   3.269 -0.3065 -0.3239  0.8581
 7909TIP3   OH245141   3.738   0.438  14.419  0.6243 -0.2975 -0.2409
 7909TIP3    H145142   3.821   0.390  14.429  0.7729 -0.6607 -2.6162
 7909TIP3    H245143   3.749   0.489  14.339 -0.8237  1.0670  0.3734
 7910TIP3   OH245144   3.442   0.918  15.260 -0.4307  1.1441  0.1275
 7910TIP3    H145145   3.402   0.942  15.344  2.3255  0.3013  1.8286
 7910TIP3    H245146   3.452   0.823  15.265 -0.0101  1.1116 -1.0584
 7911TIP3   OH245147   2.144   6.738  16.100  0.3139  0.5907  0.4624
 7911TIP3    H145148   2.145   6.827  16.066 -1.6546  0.6073  0.3187
 7911TIP3    H245149   2.212   6.692  16.052 -0.2491  1.4273 -1.1874
 7912TIP3   OH245150   6.735   6.063   3.554 -0.1334 -0.0670  0.2079
 7912TIP3    H145151   6.668   6.124   3.521  0.3162  0.6967  0.6675
 7912TIP3    H245152   6.771   6.108   3.631 -0.1010 -1.1236  0.8252
 7913TIP3   OH245153   1.120   4.236  10.986  0.2088  0.0655 -0.8065
 7913TIP3    H145154   1.080   4.297  10.923 -1.0911 -1.3588 -1.4089
 7913TIP3    H245155   1.210   4.266  10.993 -0.1567  1.5234 -1.7635
 7914TIP3   OH245156   3.340   6.321  11.831 -0.1182 -0.0173 -0.1228
 7914TIP3    H145157   3.321   6.256  11.899 -0.7787  0.6691  0.3609
 7914TIP3    H245158   3.330   6.406  11.875 -3.5261  0.5642 -1.7337
 7915TIP3   OH245159   4.026   2.322  12.541 -0.3324  0.2660  0.4896
 7915TIP3    H145160   4.097   2.290  12.486 -0.3864  0.9292  0.0191
 7915TIP3    H245161   3.980   2.242  12.570 -1.1837 -0.0921 -1.6053
 7916TIP3   OH245162   0.093   6.722   5.228  0.2067 -0.5679  0.2167
 7916TIP3    H145163   0.118   6.642   5.183  0.8106  0.5120 -1.4598
 7916TIP3    H245164   0.163   6.784   5.209 -1.3726  1.0733 -0.5390
 7917TIP3   OH245165   5.655   3.881  13.253  0.2686  0.2831 -0.3634
 7917TIP3    H145166   5.662   3.787  13.239 -1.4954  0.2405 -1.2631
 7917TIP3    H245167   5.679   3.919  13.168  0.5123  0.6153 -0.1447
 7918TIP3   OH245168   0.839   6.603   1.521 -0.0819  0.0564 -0.6379
 7918TIP3    H145169   0.908   6.588   1.585  0.1666 -0.4636 -1.0177
 7918TIP3    H245170   0.811   6.693   1.536  1.3264  0.5975 -1.1162
 7919TIP3   OH245171   1.109   0.193  16.178  0.0120  0.3397 -0.0192
 7919TIP3    H145172   1.175   0.135  16.216 -1.6770 -0.9821  1.0761
 7919TIP3    H245173   1.149   0.225  16.097  1.6792 -0.9967  0.2027
 7920TIP3   OH245174   4.810   3.957   0.858  0.3587 -0.1400  0.4696
 7920TIP3    H145175   4.764   4.040   0.856  0.0339 -0.3268 -0.1693
 7920TIP3    H245176   4.873   3.965   0.930  1.0453  1.0361 -0.2390
 7921TIP3   OH245177   3.154   6.728   2.699 -0.2379  0.2318 -0.0432
 7921TIP3    H145178   3.133   6.641   2.665  1.2195 -0.0046 -0.4056
 7921TIP3    H245179   3.085   6.746   2.762 -0.4676 -1.2690  0.1710
 7922TIP3   OH245180   3.887   4.657  13.014 -0.2168 -0.3405 -0.6218
 7922TIP3    H145181   3.849   4.591  12.956 -1.0249 -0.1182 -0.3562
 7922TIP3    H245182   3.847   4.639  13.099 -2.8780  2.3661 -1.1461
 7923TIP3   OH245183   5.148   4.102  14.398 -0.7292 -0.3833 -0.4263
 7923TIP3    H145184   5.226   4.121  14.346 -2.0507  1.3333 -1.9097
 7923TIP3    H245185   5.088   4.058  14.338 -2.1256  1.2490 -0.3201
 7924TIP3   OH245186   5.382   3.826  13.644  0.5255 -0.7568 -0.1493
 7924TIP3    H145187   5.477   3.818  13.635  0.9304  1.8097  0.9790
 7924TIP3    H245188   5.357   3.757  13.705  1.9946 -0.1723  1.1583
 7925TIP3   OH245189   1.822   6.607  13.999  0.0329  0.5207  0.3081
 7925TIP3    H145190   1.911   6.626  13.972 -0.0450  1.0095  0.3828
 7925TIP3    H245191   1.768   6.629  13.923 -0.0974  1.0035  0.5360
 7926TIP3   OH245192   6.530   4.190   1.284  0.0877 -0.2030  0.1242
 7926TIP3    H145193   6.500   4.261   1.228 -0.0403 -0.8412 -0.6278
 7926TIP3    H245194   6.589   4.139   1.229  1.3317  0.1200  1.0908
 7927TIP3   OH245195   4.768   4.889   4.060  0.6275 -0.1440 -0.0670
 7927TIP3    H145196   4.699   4.953   4.074 -0.1352 -0.2242 -2.7830
 7927TIP3    H245197   4.731   4.806   4.090  0.3760  0.1606  0.4623
 7928TIP3   OH245198   5.454   2.060  16.536 -0.4022  0.2495  0.2670
 7928TIP3    H145199   5.466   2.102  16.451 -1.7882 -1.7151 -0.9945
 7928TIP3    H245200   5.362   2.073  16.557 -0.6349 -1.2412  0.2982
 7929TIP3   OH245201   5.801   0.341  14.293 -0.4848  0.3662 -0.1271
 7929TIP3    H145202   5.862   0.392  14.348 -1.2208 -0.0758  1.1402
 7929TIP3    H245203   5.749   0.291  14.356  0.5646 -2.4030 -1.3131
 7930TIP3   OH245204   6.146   5.352  17.011 -0.2241 -0.3916  0.9749
 7930TIP3    H145205   6.148   5.345  16.915 -0.6658 -2.0293  1.0500
 7930TIP3    H245206   6.172   5.265  17.041  0.3549  0.2374  2.3639
 7931TIP3   OH245207   3.080   5.578  14.040 -0.1273 -0.1048  0.4111
 7931TIP3    H145208   3.048   5.523  13.969 -1.4231  1.0205  0.0792
 7931TIP3    H245209   3.120   5.517  14.102  0.7348 -1.1461 -1.1055
 7932TIP3   OH245210   5.490   2.068  16.274  0.1519  0.3937 -0.0874
 7932TIP3    H145211   5.582   2.048  16.256  0.5397  1.0395  1.1151
 7932TIP3    H245212   5.455   2.096  16.190  0.1406 -3.0793 -1.4090
 7933TIP3   OH245213   0.907   3.036  14.773 -0.4064 -0.2349 -0.0555
 7933TIP3    H145214   0.877   3.125  14.754  1.7572  0.3339 -1.1054
 7933TIP3    H245215   0.904   2.991  14.688  0.3776 -0.5621  0.0813
 7934TIP3   OH245216   6.482   3.172   3.831  0.4087  0.2441 -0.2375
 7934TIP3    H145217   6.520   3.097   3.784 -2.0563 -1.7023  0.6612
 7934TIP3    H245218   6.520   3.167   3.918  0.2997  0.0813 -0.1991
 7935TIP3   OH245219   6.693   1.588   2.479  0.0098  0.1275 -0.5073
 7935TIP3    H145220   6.617   1.579   2.421  0.1373  0.8468 -0.7978
 7935TIP3    H245221   6.658   1.627   2.559 -0.0693 -0.3519 -0.3024
 7936TIP3   OH245222   0.487   5.082  16.886 -0.2608 -0.4812  0.2092
 7936TIP3    H145223   0.469   5.103  16.795 -1.3545 -2.8352 -0.1973
 7936TIP3    H245224   0.574   5.044  16.885 -0.1461 -0.2227  0.2116
 7937TIP3   OH245225   3.909   1.444   4.264 -0.1006 -0.5280 -0.1144
 7937TIP3    H145226   3.840   1.448   4.331 -0.7679  1.0179 -0.8306
 7937TIP3    H245227   3.896   1.524   4.212  0.3606 -1.6844 -2.1259
 7938TIP3   OH245228   5.308   5.716   2.736 -0.0680 -0.0648 -0.0403
 7938TIP3    H145229   5.353   5.790   2.776  0.0895  0.1018 -0.5174
 7938TIP3    H245230   5.320   5.729   2.642  0.4993 -1.0194 -0.1142
 7939TIP3   OH245231   0.830   0.890   0.796 -0.1726  0.4206 -0.0431
 7939TIP3    H145232   0.848   0.980   0.769  2.6473 -0.0464 -0.0334
 7939TIP3    H245233   0.780   0.853   0.723  0.2740  1.4838 -0.9255
 7940TIP3   OH245234   5.326   6.104  16.966 -0.0026 -0.9289  0.1131
 7940TIP3    H145235   5.324   6.025  16.912 -1.3737 -0.7825 -0.0884
 7940TIP3    H245236   5.264   6.087  17.037 -2.0958  0.7677 -1.1744
 7941TIP3   OH245237   3.776   1.935   3.622  0.1841 -0.1990  0.4585
 7941TIP3    H145238   3.693   1.887   3.625  0.5352 -0.8085  0.5847
 7941TIP3    H245239   3.812   1.924   3.710  0.1094  0.5948  0.5971
 7942TIP3   OH245240   0.956   0.306  14.198 -0.2903  0.1721  0.2393
 7942TIP3    H145241   0.923   0.304  14.288 -0.4216  0.4104  0.1962
 7942TIP3    H245242   1.028   0.242  14.198 -0.2859  0.1752  0.5136
 7943TIP3   OH245243   2.894   5.396  13.525  0.4101 -0.3265  0.3254
 7943TIP3    H145244   2.815   5.443  13.498  0.0113 -1.8455 -1.3106
 7943TIP3    H245245   2.863   5.312  13.558  1.3071 -0.7042  0.2478
 7944TIP3   OH245246   0.400   1.737   5.389 -0.4139 -0.3638  0.0757
 7944TIP3    H145247   0.486   1.705   5.414 -0.4068 -0.6844 -0.3531
 7944TIP3    H245248   0.340   1.668   5.418 -0.6445  0.3341  1.3476
 7945TIP3   OH245249   4.405   6.263  16.846 -0.3789 -0.2164 -0.1050
 7945TIP3    H145250   4.318   6.259  16.886 -0.0397  0.7755  0.7916
 7945TIP3    H245251   4.394   6.320  16.770 -0.4283  0.3268  0.2967
 7946TIP3   OH245252   1.379   0.897   5.055 -0.1138  0.1382 -0.6468
 7946TIP3    H145253   1.304   0.951   5.032 -0.3926  0.0660  0.1054
 7946TIP3    H245254   1.393   0.913   5.148 -0.0811 -0.9428 -0.4629
 7947TIP3   OH245255   3.955   1.957   1.561 -0.5926 -0.3068 -0.1900
 7947TIP3    H145256   3.905   2.000   1.630  2.4595  2.2181  0.6976
 7947TIP3    H245257   3.962   2.022   1.491  1.4175 -0.5019 -0.2347
 7948TIP3   OH245258   3.052   1.172   5.290  0.3108 -0.4351 -0.3279
 7948TIP3    H145259   3.002   1.231   5.233  1.0518 -0.7319 -1.3309
 7948TIP3    H245260   3.011   1.180   5.376 -0.0971  0.9383 -0.6276
 7949TIP3   OH245261   5.360   3.846   4.806 -0.6765  0.7171 -0.0544
 7949TIP3    H145262   5.344   3.910   4.736 -0.6794  0.1850 -0.5449
 7949TIP3    H245263   5.444   3.873   4.843  0.4253 -0.2681 -1.7076
 7950TIP3   OH245264   0.506   5.815   5.718 -0.0653 -0.0632  0.7048
 7950TIP3    H145265   0.469   5.817   5.630 -2.3254 -0.5389  1.5887
 7950TIP3    H245266   0.494   5.904   5.752  2.4508  0.6336 -0.0439
 7951TIP3   OH245267   2.234   5.916   3.141  0.1880  0.3981  0.2611
 7951TIP3    H145268   2.275   5.996   3.176 -0.1615 -0.2285  2.2371
 7951TIP3    H245269   2.305   5.870   3.097  0.7463  1.0624  0.4394
 7952TIP3   OH245270   1.815   1.389   1.285 -0.2811 -0.6042 -0.0276
 7952TIP3    H145271   1.887   1.410   1.345 -0.5045 -0.4826  0.2019
 7952TIP3    H245272   1.736   1.404   1.337 -0.4831 -0.1880 -0.4512
 7953TIP3   OH245273   5.552   3.898  10.817  0.3414  0.0665 -0.5584
 7953TIP3    H145274   5.584   3.849  10.741  0.0577 -2.9242  1.0900
 7953TIP3    H245275   5.457   3.892  10.810  0.3197 -0.9779  0.4351
 7954TIP3   OH245276   4.186   3.572  10.694 -0.4174 -0.5822  0.1508
 7954TIP3    H145277   4.139   3.542  10.772 -3.0130  0.1191 -1.0162
 7954TIP3    H245278   4.155   3.514  10.625  1.2226 -0.6811 -0.5293
 7955TIP3   OH245279   4.358   1.409   1.412 -0.0829 -0.4779 -0.4261
 7955TIP3    H145280   4.342   1.346   1.483 -1.4830  0.1047 -0.2003
 7955TIP3    H245281   4.314   1.370   1.336  0.8222 -0.7595 -0.8254
 7956TIP3   OH245282   4.328   3.808   5.192 -0.0584  0.1608 -0.2262
 7956TIP3    H145283   4.238   3.820   5.222 -0.5484 -1.2204 -1.0784
 7956TIP3    H245284   4.352   3.893   5.155 -0.7119  0.7870  0.7465
 7957TIP3   OH245285   5.347   0.655  16.322  0.0342 -0.3927  0.2620
 7957TIP3    H145286   5.262   0.689  16.349  0.9251  0.4466  2.1958
 7957TIP3    H245287   5.406   0.731  16.327  1.4243 -1.4988  1.6194
 7958TIP3   OH245288   5.512   4.165  14.067  0.1536  0.0699 -0.3617
 7958TIP3    H145289   5.443   4.104  14.044  0.2686 -0.2873  0.2333
 7958TIP3    H245290   5.569   4.116  14.126 -0.2479  1.0364  0.8525
 7959TIP3   OH245291   6.347   6.169  16.286 -0.2322  0.1185  0.6850
 7959TIP3    H145292   6.376   6.082  16.314  0.9429  0.2365 -0.0976
 7959TIP3    H245293   6.262   6.180  16.328  0.0018 -1.0370  1.5282
 7960TIP3   OH245294   4.511   2.451   0.975 -0.1709 -0.4896 -0.3802
 7960TIP3    H145295   4.448   2.425   0.908 -0.0448 -0.7940 -0.3857
 7960TIP3    H245296   4.460   2.500   1.039 -0.1847  0.3149 -0.9914
 7961TIP3   OH245297   3.863   6.703  16.637 -0.3120  0.2131  0.9218
 7961TIP3    H145298   3.823   6.704  16.724  1.0217  0.0162  1.5543
 7961TIP3    H245299   3.806   6.645  16.585 -0.3689 -0.7725  2.0393
 7962TIP3   OH245300   3.720   2.197   3.153 -0.0310 -0.1861  0.6957
 7962TIP3    H145301   3.687   2.285   3.135  1.9195  0.3405 -0.5484
 7962TIP3    H245302   3.743   2.162   3.067  0.2962 -1.4863  1.2828
 7963TIP3   OH245303   0.122   3.944  14.175 -0.0097  0.5290  0.6984
 7963TIP3    H145304   0.135   3.953  14.081  1.9457 -0.2647  0.8464
 7963TIP3    H245305   0.065   3.867  14.184 -0.1092  0.5399  0.1636
 7964TIP3   OH245306   6.308   1.581  15.372 -0.3895 -0.1370  0.2667
 7964TIP3    H145307   6.224   1.548  15.403 -1.7532  1.2491 -1.7015
 7964TIP3    H245308   6.357   1.503  15.346 -1.1599 -0.9448  1.1538
 7965TIP3   OH245309   0.677   2.973  15.334  0.6010 -0.9984 -0.3521
 7965TIP3    H145310   0.695   3.010  15.421  2.2621 -0.0032 -1.0637
 7965TIP3    H245311   0.605   3.026  15.300  1.5527  0.2398 -0.5159
 7966TIP3   OH245312   0.063   2.190  15.643 -0.5220 -0.2251  0.3832
 7966TIP3    H145313   0.010   2.165  15.719 -1.8765  1.7458  0.1385
 7966TIP3    H245314   0.143   2.227  15.681 -0.8715  0.0698  0.8384
 7967TIP3   OH245315   6.613   0.130   5.702 -0.1280 -0.8889  0.0120
 7967TIP3    H145316   6.621   0.189   5.628  0.9563 -2.8685 -1.5779
 7967TIP3    H245317   6.703   0.115   5.731 -0.4114 -1.3553  0.7055
 7968TIP3   OH245318   1.833   6.103   0.186 -0.4957  0.2112  0.0202
 7968TIP3    H145319   1.749   6.148   0.181 -0.2735  0.6913  0.4468
 7968TIP3    H245320   1.829   6.036   0.118 -0.6524  1.1827 -0.9586
 7969TIP3   OH245321   2.516   6.031  10.734 -0.1370 -0.2619 -0.0213
 7969TIP3    H145322   2.440   6.040  10.791  1.4539 -0.5947  2.3002
 7969TIP3    H245323   2.490   6.075  10.653 -2.3425  0.7126  1.1060
 7970TIP3   OH245324   6.414   5.729  13.794 -0.8697 -0.3618 -0.3203
 7970TIP3    H145325   6.333   5.779  13.805  0.3329  1.8128 -0.7845
 7970TIP3    H245326   6.414   5.703  13.702 -0.7440  0.2219 -0.4899
 7971TIP3   OH245327   1.706   3.350  11.975  0.2921  0.4617  0.2906
 7971TIP3    H145328   1.775   3.290  11.948  0.2692  0.4988  0.1463
 7971TIP3    H245329   1.628   3.296  11.983  0.1449  0.5600 -0.3759
 7972TIP3   OH245330   4.881   0.894   3.767  0.0858 -0.0190  0.6784
 7972TIP3    H145331   4.857   0.829   3.701  1.2033 -0.3066  0.5214
 7972TIP3    H245332   4.953   0.853   3.815  0.8593  1.1142  0.5396
 7973TIP3   OH245333   3.623   1.632  14.514  0.3797 -0.3595  0.2511
 7973TIP3    H145334   3.668   1.609  14.595  1.7495 -0.1515 -0.4133
 7973TIP3    H245335   3.687   1.614  14.445 -0.3826  0.4405 -0.7004
 7974TIP3   OH245336   2.188   2.970   5.556  0.1719  0.6496 -0.2546
 7974TIP3    H145337   2.198   2.930   5.643  1.7234  0.8465 -0.3108
 7974TIP3    H245338   2.247   2.920   5.500  0.9699  2.0133 -0.6715
 7975TIP3   OH245339   4.352   5.420  12.268 -0.6612 -0.1354  0.8855
 7975TIP3    H145340   4.345   5.441  12.175 -2.3189 -0.6015  0.8604
 7975TIP3    H245341   4.374   5.503  12.310 -0.7958  0.2751  0.1662
 7976TIP3   OH245342   2.728   2.255  14.744  0.7332  0.0663 -0.0512
 7976TIP3    H145343   2.758   2.342  14.717  1.6118 -0.0555  0.4745
 7976TIP3    H245344   2.790   2.195  14.703  0.6255 -0.2587  0.2585
 7977TIP3   OH245345   5.242   1.418   5.495  0.0323 -0.3675  0.0471
 7977TIP3    H145346   5.150   1.439   5.479  0.5495  0.6980 -1.8666
 7977TIP3    H245347   5.266   1.359   5.423  1.2354  0.7070 -0.4820
 7978TIP3   OH245348   4.932   3.044   2.231 -0.1456  0.3606  0.1087
 7978TIP3    H145349   4.989   2.974   2.200 -0.0529  0.6962 -0.5039
 7978TIP3    H245350   4.849   3.030   2.187  0.1615  1.1733 -0.7734
 7979TIP3   OH245351   1.024   0.424  11.280  0.4830 -0.6043  0.3150
 7979TIP3    H145352   0.976   0.461  11.206  0.5652  0.3508  0.7324
 7979TIP3    H245353   1.115   0.421  11.250  0.8472  1.6381  1.0523
 7980TIP3   OH245354   3.649   4.876  14.881  0.2212  0.7188 -0.3612
 7980TIP3    H145355   3.647   4.965  14.915 -1.2953  0.7272 -0.4221
 7980TIP3    H245356   3.723   4.835  14.926 -1.1954  0.9708  2.3430
 7981TIP3   OH245357   3.680   0.351  14.087 -0.1075 -0.1097  0.0276
 7981TIP3    H145358   3.768   0.315  14.087  0.4838  1.1159 -2.5647
 7981TIP3    H245359   3.691   0.443  14.114 -0.2457  0.5944 -2.1481
 7982TIP3   OH245360   5.881   5.625   0.993 -0.4512  0.1578 -0.3141
 7982TIP3    H145361   5.890   5.706   0.942 -0.1761 -0.5882 -1.4838
 7982TIP3    H245362   5.790   5.599   0.981  0.2818 -1.5882 -2.9573
 7983TIP3   OH245363   1.597   0.544  10.936  0.1822 -0.0831  0.2547
 7983TIP3    H145364   1.677   0.501  10.968  1.6226  1.6479 -0.8613
 7983TIP3    H245365   1.614   0.558  10.843  0.2497  3.7174  0.6970
 7984TIP3   OH245366   4.455   6.633   2.181  0.2370 -0.3854  0.3636
 7984TIP3    H145367   4.442   6.643   2.275 -1.1229 -0.6113  0.2114
 7984TIP3    H245368   4.464   6.723   2.148  0.4146 -0.2932  0.6593
 7985TIP3   OH245369   1.043   5.960   2.056  0.1494 -0.1294 -0.2849
 7985TIP3    H145370   1.063   5.964   2.149 -0.1285 -0.5827 -0.2028
 7985TIP3    H245371   1.125   5.983   2.012  0.3398 -0.1432  0.0646
 7986TIP3   OH245372   6.160   2.791  15.998 -0.4541 -0.1203  0.2998
 7986TIP3    H145373   6.209   2.715  16.029  0.4351  1.1225  2.0981
 7986TIP3    H245374   6.214   2.866  16.021 -2.6915  1.2560  1.3894
 7987TIP3   OH245375   4.270   6.462   5.882 -0.2636 -0.2372  0.2511
 7987TIP3    H145376   4.315   6.481   5.801  0.4542 -3.8700 -0.3935
 7987TIP3    H245377   4.178   6.457   5.858 -0.3988  1.5210  0.3277
 7988TIP3   OH245378   4.132   3.487   5.830 -0.2784 -0.1717 -0.3857
 7988TIP3    H145379   4.197   3.417   5.835 -1.1327 -1.0032 -0.6540
 7988TIP3    H245380   4.054   3.451   5.871 -0.7172  0.6632 -0.4504
 7989TIP3   OH245381   0.853   4.782  15.168  0.1415  0.0392  0.3170
 7989TIP3    H145382   0.804   4.731  15.102 -0.1113  0.8609 -0.1479
 7989TIP3    H245383   0.789   4.845  15.201 -0.1416 -1.2372  2.3816
 7990TIP3   OH245384   5.280   5.263  14.601 -0.2797  0.1331 -0.2081
 7990TIP3    H145385   5.315   5.235  14.517 -0.7501 -0.1014 -0.3326
 7990TIP3    H245386   5.202   5.208  14.614  0.8355 -1.1854  1.2595
 7991TIP3   OH245387   3.654   3.460  14.745 -0.3358  0.2114  0.1167
 7991TIP3    H145388   3.625   3.424  14.662 -0.1617 -0.0183  0.1543
 7991TIP3    H245389   3.631   3.553  14.740  0.6233  0.4336 -0.6354
 7992TIP3   OH245390   2.526   0.671   3.050 -0.4967  0.4834  0.3212
 7992TIP3    H145391   2.569   0.599   3.097 -1.2567 -0.5151 -0.4672
 7992TIP3    H245392   2.515   0.739   3.116 -0.0747 -0.2568  1.1835
 7993TIP3   OH245393   0.954   2.251   0.681 -0.2954 -0.3578  0.0626
 7993TIP3    H145394   1.043   2.255   0.645  0.1132 -0.7894  0.9953
 7993TIP3    H245395   0.901   2.216   0.609  0.4185 -0.7530 -0.2832
 7994TIP3   OH245396   3.196   6.243  14.247  0.4558  0.4832  0.2065
 7994TIP3    H145397   3.186   6.338  14.254  2.1513  0.6469  0.8811
 7994TIP3    H245398   3.283   6.231  14.210 -0.1355 -0.8173 -0.8094
 7995TIP3   OH245399   1.568   5.856  14.685 -0.3295  0.2469 -0.0998
 7995TIP3    H145400   1.527   5.847  14.599 -1.6763  2.7951  0.2025
 7995TIP3    H245401   1.501   5.896  14.740  1.1911  0.6025  1.5812
 7996TIP3   OH245402   4.452   5.602  15.833 -0.4098  0.6498 -0.1263
 7996TIP3    H145403   4.408   5.585  15.750 -0.7697  0.8034  0.0276
 7996TIP3    H245404   4.540   5.628  15.809  0.3050 -1.7575 -0.3662
 7997TIP3   OH245405   5.210   0.555   2.208 -0.1917  0.7497  0.0383
 7997TIP3    H145406   5.173   0.625   2.153  0.6588  1.3272  0.1784
 7997TIP3    H245407   5.226   0.598   2.293 -0.2597  0.2150  0.3230
 7998TIP3   OH245408   2.737   3.704   3.545 -0.5457 -0.0142  0.0246
 7998TIP3    H145409   2.694   3.620   3.565 -1.1678  0.5722  1.2689
 7998TIP3    H245410   2.665   3.762   3.520 -0.6168  1.0960  2.5209
 7999TIP3   OH245411   3.811   2.623   0.149 -0.1822  0.5998 -0.5396
 7999TIP3    H145412   3.794   2.533   0.175 -0.5515  0.8277  0.0343
 7999TIP3    H245413   3.757   2.636   0.071  0.5701  0.0546 -1.1591
 8000TIP3   OH245414   5.350   2.117  16.827 -0.3362  0.6014 -0.5149
 8000TIP3    H145415   5.301   2.035  16.833 -2.0016  1.5950  0.5346
 8000TIP3    H245416   5.442   2.092  16.830 -0.8082 -1.1164  1.6195
 8001TIP3   OH245417   6.204   3.569   3.348  0.1576  0.3331  0.7315
 8001TIP3    H145418   6.233   3.499   3.407  2.0162  1.2662  1.0138
 8001TIP3    H245419   6.284   3.597   3.304 -0.1891  3.4143  1.8679
 8002TIP3   OH245420   4.625   6.364   1.536 -0.1441 -0.0135 -0.4623
 8002TIP3    H145421   4.552   6.379   1.476  0.4774  0.5301 -1.1004
 8002TIP3    H245422   4.610   6.276   1.571  0.4808 -1.1836 -2.8903
 8003TIP3   OH245423   1.293   0.480   0.056 -0.0722 -0.1513 -0.0782
 8003TIP3    H145424   1.275   0.407   0.115  1.2143 -0.6698 -0.2837
 8003TIP3    H245425   1.239   0.463  -0.021  0.0786 -0.8042 -0.0479
 8004TIP3   OH245426   2.269   3.812  11.027 -0.1004  0.2226 -0.4601
 8004TIP3    H145427   2.351   3.849  11.059 -0.5276  0.7900 -0.0039
 8004TIP3    H245428   2.201   3.856  11.078 -0.8314  1.5060 -2.4125
 8005TIP3   OH245429   2.798   2.962  16.599  0.2090 -0.4170 -0.6753
 8005TIP3    H145430   2.731   3.031  16.589  0.8347  0.0999 -1.4120
 8005TIP3    H245431   2.768   2.911  16.674 -0.8112  0.0391 -0.7470
 8006TIP3   OH245432   0.511   2.601  11.943 -0.0381 -0.2327 -0.3026
 8006TIP3    H145433   0.560   2.521  11.960  1.5384  0.6970 -0.1845
 8006TIP3    H245434   0.419   2.574  11.942  0.4513 -2.0268 -0.3270
 8007TIP3   OH245435   0.400   0.274   3.034  0.1935  0.0721 -0.5661
 8007TIP3    H145436   0.412   0.320   3.117  2.1233  0.6149 -1.1083
 8007TIP3    H245437   0.346   0.334   2.982  0.8212  0.7207 -0.4783
 8008TIP3   OH245438   4.832   2.106  16.670 -0.3475 -0.4856 -0.2674
 8008TIP3    H145439   4.900   2.050  16.634 -0.7399 -0.9466 -0.2975
 8008TIP3    H245440   4.771   2.046  16.713 -0.6345 -0.0626 -0.0749
 8009TIP3   OH245441   4.408   1.468  15.047 -0.4569 -0.3935 -0.0982
 8009TIP3    H145442   4.348   1.415  14.996 -0.4089 -0.5848  0.0437
 8009TIP3    H245443   4.452   1.406  15.105 -1.4612 -0.0147  1.1189
 8010TIP3   OH245444   6.322   5.085  14.888  0.3392  0.6470 -0.0984
 8010TIP3    H145445   6.260   5.157  14.875 -0.3878 -0.0875 -0.8688
 8010TIP3    H245446   6.336   5.049  14.801  0.4120 -0.3652  0.3144
 8011TIP3   OH245447   5.873   5.298   5.412 -0.4133  0.3934  0.1202
 8011TIP3    H145448   5.957   5.256   5.393 -1.1819 -0.1417 -2.6038
 8011TIP3    H245449   5.852   5.271   5.501  1.6223 -0.6192  0.3541
 8012TIP3   OH245450   3.641   5.094   4.643 -0.7690 -0.1011  0.0733
 8012TIP3    H145451   3.552   5.084   4.609  0.2884 -0.7368 -2.8137
 8012TIP3    H245452   3.676   5.170   4.597  0.6192 -0.7203  0.0473
 8013TIP3   OH245453   5.928   4.620  15.699 -0.1433 -0.2513  0.3674
 8013TIP3    H145454   6.004   4.630  15.757  1.7412 -0.5627 -1.9168
 8013TIP3    H245455   5.914   4.708  15.663 -0.5389 -0.3105  0.3735
 8014TIP3   OH245456   5.731   0.063  15.618 -0.0819 -0.4333  0.2200
 8014TIP3    H145457   5.659   0.089  15.675 -1.3372 -1.0523 -1.0167
 8014TIP3    H245458   5.779  -0.003  15.669 -1.8781 -1.8584  0.1552
 8015TIP3   OH245459   2.307   1.423  15.346 -0.9216  0.1401  0.1273
 8015TIP3    H145460   2.334   1.358  15.412  1.0813 -0.2117 -0.9844
 8015TIP3    H245461   2.229   1.384  15.306 -0.0968 -1.3501 -0.1244
 8016TIP3   OH245462   3.879   4.102  14.197 -0.5078  0.0777 -0.0857
 8016TIP3    H145463   3.910   4.142  14.279 -1.0513  1.0443 -0.3453
 8016TIP3    H245464   3.801   4.153  14.173 -1.3501 -1.2707 -0.3153
 8017TIP3   OH245465   1.656   2.737   2.415 -0.7028 -0.1734  0.2226
 8017TIP3    H145466   1.727   2.720   2.476 -0.3528  1.1866  0.2161
 8017TIP3    H245467   1.700   2.757   2.332 -1.1113 -0.0204  0.0407
 8018TIP3   OH245468   1.334   6.340   1.868  0.2329 -0.7160  0.1479
 8018TIP3    H145469   1.385   6.361   1.790 -0.4616 -0.6261 -0.2937
 8018TIP3    H245470   1.349   6.413   1.927 -0.0271 -0.2898 -0.3044
 8019TIP3   OH245471   0.698   0.071   6.106 -0.3226 -0.2444 -0.5606
 8019TIP3    H145472   0.636   0.071   6.034 -1.3429  0.7658  0.2724
 8019TIP3    H245473   0.756  -0.003   6.088 -0.3333  0.1760 -2.5641
 8020TIP3   OH245474   0.602   5.587  16.853 -0.3622  0.1726 -0.2527
 8020TIP3    H145475   0.681   5.641  16.858 -0.0039 -0.2953 -0.6581
 8020TIP3    H245476   0.602   5.537  16.935  0.1394 -0.3140 -0.5374
 8021TIP3   OH245477   0.993   4.937   1.796  0.1901  0.3538 -0.0591
 8021TIP3    H145478   0.974   4.873   1.728 -0.5308  0.7551 -0.2458
 8021TIP3    H245479   1.084   4.961   1.782  1.0134 -1.8525  1.0357
 8022TIP3   OH245480   4.813   2.138   3.918  0.2206 -0.7005  0.0279
 8022TIP3    H145481   4.909   2.132   3.914  0.1895 -1.1200 -0.1941
 8022TIP3    H245482   4.787   2.164   3.830  0.2201  0.8850  0.4767
 8023TIP3   OH245483   6.600   4.137  13.159  0.6422  0.3859  0.5247
 8023TIP3    H145484   6.517   4.133  13.206  0.6436  3.2253  0.9011
 8023TIP3    H245485   6.575   4.153  13.068  0.7024 -3.6672 -0.3867
 8024TIP3   OH245486   4.343   4.733  11.988  0.1444  0.1868 -0.6751
 8024TIP3    H145487   4.419   4.698  12.034 -0.1387 -0.4368 -0.6732
 8024TIP3    H245488   4.365   4.825  11.972  1.1783 -0.1330 -1.2386
 8025TIP3   OH245489   4.021   1.928  15.384 -0.1111  0.0099  0.0329
 8025TIP3    H145490   3.959   1.898  15.452 -1.0502  0.1595 -0.7361
 8025TIP3    H245491   3.972   1.993  15.334  0.9260  0.6647 -0.1608
 8026TIP3   OH245492   3.817   0.349  15.539  0.1665 -0.6935  0.1258
 8026TIP3    H145493   3.767   0.405  15.598  0.0655  0.7890 -1.3189
 8026TIP3    H245494   3.908   0.361  15.567  0.0691 -0.4614  0.3456
 8027TIP3   OH245495   2.877   3.601  16.639  0.5140  0.2328 -0.6782
 8027TIP3    H145496   2.886   3.506  16.631  0.2459  0.1241  0.2636
 8027TIP3    H245497   2.889   3.619  16.732 -2.9404  0.7061 -0.1898
 8028TIP3   OH245498   5.573   1.456   2.287  0.3702 -0.1770 -0.0453
 8028TIP3    H145499   5.649   1.416   2.246  0.9467 -0.1507  0.9586
 8028TIP3    H245500   5.610   1.520   2.348 -0.4995  0.9068 -0.6229
 8029TIP3   OH245501   1.038   0.076  12.554 -0.2139  0.2100  0.0253
 8029TIP3    H145502   1.001  -0.002  12.595  0.8490 -1.3088 -1.7796
 8029TIP3    H245503   1.078   0.124  12.627 -1.7162 -0.3912  1.3107
 8030TIP3   OH245504   1.682   2.620   4.498 -0.4616  0.4624  0.2236
 8030TIP3    H145505   1.663   2.706   4.536 -1.9850  0.5000 -0.5388
 8030TIP3    H245506   1.690   2.562   4.573 -1.1844  0.9587  0.7032
 8031TIP3   OH245507   1.582   6.785  15.386  0.3474 -0.2847 -0.3445
 8031TIP3    H145508   1.517   6.734  15.337 -0.9906 -1.5626  2.4953
 8031TIP3    H245509   1.667   6.750  15.357 -0.1980  0.4475 -3.1024
 8032TIP3   OH245510   0.238   2.888   3.243  0.7556 -0.7888 -0.2904
 8032TIP3    H145511   0.309   2.830   3.215  0.3803 -1.0527 -0.7155
 8032TIP3    H245512   0.175   2.830   3.284  2.3480 -0.1656  3.4315
 8033TIP3   OH245513   0.439   5.223  11.310  0.2464  0.5746 -0.1258
 8033TIP3    H145514   0.445   5.305  11.359 -2.7265  0.6945  0.2188
 8033TIP3    H245515   0.484   5.159  11.365 -0.7593  1.2377  1.5592
 8034TIP3   OH245516   1.537   1.313  16.964  0.4724 -0.2959 -0.3771
 8034TIP3    H145517   1.579   1.305  16.878  0.3230  0.7755 -0.5605
 8034TIP3    H245518   1.475   1.385  16.954  0.6021 -0.0231  0.6848
 8035TIP3   OH245519   6.525   2.922  15.106  0.4590 -0.7281  0.1282
 8035TIP3    H145520   6.545   2.839  15.062  0.6616 -1.0664  0.8456
 8035TIP3    H245521   6.436   2.911  15.139 -0.4150  0.2091 -1.7423
 8036TIP3   OH245522   6.458   6.757  10.876  0.4449  0.0031 -0.3485
 8036TIP3    H145523   6.498   6.776  10.791 -0.2835  1.0392 -0.4733
 8036TIP3    H245524   6.386   6.820  10.884 -0.8842 -1.4822  0.0686
 8037TIP3   OH245525   5.265   0.261   1.683  0.1521 -0.2847  0.5867
 8037TIP3    H145526   5.360   0.262   1.667  0.3846  0.0314  1.9248
 8037TIP3    H245527   5.239   0.353   1.679 -0.1447 -0.3907  0.0022
 8038TIP3   OH245528   3.926   3.005  12.492 -0.2911 -0.1601  0.3615
 8038TIP3    H145529   3.969   2.969  12.414 -0.0562  0.8662 -0.0019
 8038TIP3    H245530   3.845   2.955  12.500 -1.3995  1.1173 -1.8277
 8039TIP3   OH245531   5.763   0.696  12.221  0.9673 -0.4029  0.8248
 8039TIP3    H145532   5.805   0.769  12.266  1.7499 -0.5734  0.3799
 8039TIP3    H245533   5.689   0.735  12.175  0.2573 -0.1910  2.0848
 8040TIP3   OH245534   1.205   6.494   3.878  0.4310  0.1879  0.1022
 8040TIP3    H145535   1.175   6.565   3.822 -2.6916 -0.0435  1.2289
 8040TIP3    H245536   1.252   6.434   3.820 -0.8846  0.9576 -1.8350
 8041TIP3   OH245537   1.433   2.484  16.209  0.5636  0.0202 -0.1699
 8041TIP3    H145538   1.445   2.575  16.184  0.8830  0.1117  0.3296
 8041TIP3    H245539   1.501   2.437  16.160  0.3219  0.0273 -0.5237
 8042TIP3   OH245540   6.353   3.457   3.840  0.0187 -0.7951  0.0011
 8042TIP3    H145541   6.413   3.432   3.911  2.6669  0.0770 -1.7657
 8042TIP3    H245542   6.365   3.389   3.773 -1.9766 -1.2735  0.0570
 8043TIP3   OH245543   1.151   2.551   3.058  0.5492 -0.4493 -0.4354
 8043TIP3    H145544   1.080   2.488   3.066 -1.2574  0.8519 -4.0532
 8043TIP3    H245545   1.111   2.636   3.080  2.1956 -0.1077  1.5973
 8044TIP3   OH245546   2.129   5.806   3.758  0.4104 -0.0937 -0.3376
 8044TIP3    H145547   2.143   5.900   3.744 -0.7523  0.4490  1.7379
 8044TIP3    H245548   2.036   5.792   3.741 -0.0184 -0.2905  1.8415
 8045TIP3   OH245549   3.910   4.191  16.878  0.2754 -0.1061 -0.0537
 8045TIP3    H145550   4.004   4.184  16.862  0.0948 -1.2776 -0.7182
 8045TIP3    H245551   3.902   4.210  16.972  1.1334 -1.4614  0.3077
 8046TIP3   OH245552   3.138   6.182   2.826 -0.2568 -0.2119 -0.0167
 8046TIP3    H145553   3.102   6.268   2.803 -0.5759 -0.2561  0.3094
 8046TIP3    H245554   3.158   6.141   2.742  1.8884  1.0033 -0.1667
 8047TIP3   OH245555   1.251   2.286  11.937 -1.2250  0.3119  0.6150
 8047TIP3    H145556   1.297   2.342  11.999  0.4123  0.1602 -0.4132
 8047TIP3    H245557   1.319   2.231  11.898 -2.4711 -0.8816  0.0131
 8048TIP3   OH245558   1.945   3.132  15.167  0.2230  0.3435  0.0007
 8048TIP3    H145559   2.036   3.120  15.196  0.3964  2.1444  0.2857
 8048TIP3    H245560   1.929   3.058  15.109  0.6535 -2.1276  2.7562
 8049TIP3   OH245561   4.662   3.007  15.863  0.2489  0.2685 -0.7758
 8049TIP3    H145562   4.680   3.011  15.769 -1.6756  0.7953 -1.1565
 8049TIP3    H245563   4.655   2.914  15.883 -0.0251  0.1772 -1.2963
 8050TIP3   OH245564   1.829   2.620   3.590 -0.5208  0.0167 -0.3178
 8050TIP3    H145565   1.857   2.671   3.665 -0.9001 -1.6551  1.0322
 8050TIP3    H245566   1.743   2.656   3.566 -0.6150  0.2508  0.3636
 8051TIP3   OH245567   2.808   5.057  15.535 -0.2007 -0.3791  0.2022
 8051TIP3    H145568   2.768   5.078  15.620 -0.1278  0.9563 -0.0722
 8051TIP3    H245569   2.876   4.992  15.556 -0.3775 -0.2815  1.1190
 8052TIP3   OH245570   4.324   0.208  13.492 -0.5487  0.0402  0.0500
 8052TIP3    H145571   4.296   0.120  13.466 -2.3416 -0.2253  2.4798
 8052TIP3    H245572   4.359   0.197  13.580  1.3107  1.4745 -0.4398
 8053TIP3   OH245573   1.979   6.022   3.133 -0.3171  0.4277  0.2878
 8053TIP3    H145574   2.054   5.967   3.154 -0.3295  0.9557  1.9058
 8053TIP3    H245575   2.015   6.110   3.123 -0.6827  0.6553  0.9029
 8054TIP3   OH245576   0.770   2.761   5.068 -0.1897  0.0120 -0.2099
 8054TIP3    H145577   0.707   2.730   5.132 -0.0116  0.3554  0.1364
 8054TIP3    H245578   0.719   2.813   5.006 -0.3320 -0.1631 -0.2380
 8055TIP3   OH245579   2.771   4.434  16.337 -0.1275 -0.1934 -0.3198
 8055TIP3    H145580   2.858   4.428  16.377  0.6917  2.0326 -1.5756
 8055TIP3    H245581   2.710   4.425  16.410  1.2804  2.9136  1.4692
 8056TIP3   OH245582   3.466   2.674   2.435 -0.1755  0.0558  0.5944
 8056TIP3    H145583   3.382   2.717   2.420 -0.4066 -0.1752  1.1868
 8056TIP3    H245584   3.513   2.732   2.496 -0.1693 -0.1309  0.7699
 8057TIP3   OH245585   2.445   6.055  13.714 -0.2898 -0.3694 -0.1317
 8057TIP3    H145586   2.504   6.015  13.777  1.0052  1.2470 -0.2370
 8057TIP3    H245587   2.424   6.141  13.752  1.4306  1.1270 -2.3277
 8058TIP3   OH245588   3.079   6.666  15.622  0.0148 -0.3887 -0.0459
 8058TIP3    H145589   3.116   6.745  15.663 -1.7152  0.2243  0.4464
 8058TIP3    H245590   3.092   6.680  15.528 -1.9065  1.4455 -0.1136
 8059TIP3   OH245591   1.402   6.049   0.059 -0.2789 -0.2799 -0.2687
 8059TIP3    H145592   1.382   6.114  -0.008  3.0960  0.3655 -0.8283
 8059TIP3    H245593   1.406   6.099   0.141 -4.1347 -1.0239  0.5633
 8060TIP3   OH245594   3.267   5.445  10.692  0.4733 -0.1002  0.1807
 8060TIP3    H145595   3.242   5.537  10.699 -1.1258 -0.5068  0.0927
 8060TIP3    H245596   3.362   5.448  10.681  0.8867  1.4058  3.0610
 8061TIP3   OH245597   6.620   2.902   6.012  0.3682 -0.3320 -0.0845
 8061TIP3    H145598   6.639   2.993   6.036  1.4188 -0.9578  1.6220
 8061TIP3    H245599   6.674   2.850   6.071 -2.3165 -2.1535  0.9406
 8062TIP3   OH245600   0.669   4.834  13.479  0.3755  0.0078 -0.5623
 8062TIP3    H145601   0.647   4.764  13.541 -0.9440 -0.5612 -1.6062
 8062TIP3    H245602   0.711   4.901  13.532 -2.4798  0.4409  1.3917
 8063TIP3   OH245603   5.300   3.635   3.185 -0.2732 -0.3242  0.6184
 8063TIP3    H145604   5.377   3.641   3.242  0.3049  3.6493 -0.2837
 8063TIP3    H245605   5.225   3.649   3.244  0.0712  0.4681  0.8738
 8064TIP3   OH245606   5.547   0.033   3.130 -0.4765  0.0567  0.0805
 8064TIP3    H145607   5.508  -0.006   3.052  0.9724  1.5259 -1.4705
 8064TIP3    H245608   5.631   0.066   3.100 -0.6994  2.3939  1.7814
 8065TIP3   OH245609   4.065   4.799   3.083 -0.3258 -0.6849  0.2857
 8065TIP3    H145610   4.137   4.857   3.059  0.2952  0.1149  3.5243
 8065TIP3    H245611   4.106   4.715   3.099 -0.5018 -0.8531 -0.1445
 8066TIP3   OH245612   0.763   4.213   6.000 -0.2709  0.0803 -0.3070
 8066TIP3    H145613   0.746   4.299   6.039 -0.0663 -0.3264  0.6884
 8066TIP3    H245614   0.771   4.154   6.074  0.9160 -0.5649 -0.9316
 8067TIP3   OH245615   5.962   1.436   3.339  0.1613 -0.1628 -0.0150
 8067TIP3    H145616   5.952   1.467   3.248  0.2314  2.4151  0.7680
 8067TIP3    H245617   6.056   1.425   3.350  0.2159  0.1951 -0.0865
 8068TIP3   OH245618   5.578   6.228  13.271  0.5129 -0.1660 -0.4689
 8068TIP3    H145619   5.527   6.243  13.191 -0.8664  1.2988  0.6457
 8068TIP3    H245620   5.658   6.280  13.258  1.8800 -2.4518 -2.2064
 8069TIP3   OH245621   6.040   4.590   0.187 -0.2185  0.5132  0.3930
 8069TIP3    H145622   6.075   4.668   0.143 -3.2205  2.1781  0.6342
 8069TIP3    H245623   6.085   4.589   0.272  1.6292  0.4980 -0.5332
 8070TIP3   OH245624   5.174   3.690  14.054  0.3280 -0.5632 -0.8040
 8070TIP3    H145625   5.090   3.664  14.017  0.1967  1.7361 -2.3261
 8070TIP3    H245626   5.161   3.682  14.149 -1.3182 -1.0462 -1.0305
 8071TIP3   OH245627   1.227   6.828   3.830  0.3710 -0.3369  0.0363
 8071TIP3    H145628   1.318   6.801   3.840  0.6904  0.3946 -0.8163
 8071TIP3    H245629   1.190   6.816   3.918  1.7278  0.9329  0.8320
 8072TIP3   OH245630   0.769   4.707   5.329  0.2385 -0.9461 -0.2288
 8072TIP3    H145631   0.741   4.797   5.312 -2.0896 -0.8020  3.2624
 8072TIP3    H245632   0.860   4.704   5.300 -0.1047  2.0157 -1.9813
 8073TIP3   OH245633   0.189   5.153  15.707  0.4017  0.2946 -0.3779
 8073TIP3    H145634   0.272   5.144  15.754  0.3196 -2.5039 -0.6017
 8073TIP3    H245635   0.211   5.201  15.627  2.2206 -1.9483 -1.2963
 8074TIP3   OH245636   2.580   4.742  14.747 -0.5165  0.9949  0.2828
 8074TIP3    H145637   2.581   4.822  14.801  0.3202  0.4760  1.0617
 8074TIP3    H245638   2.577   4.671  14.810  1.6335  0.3367 -0.2743
 8075TIP3   OH245639   6.627   5.108  11.505  0.1271 -0.4499  0.2490
 8075TIP3    H145640   6.546   5.098  11.555  0.4365 -2.5325  0.4409
 8075TIP3    H245641   6.628   5.033  11.445  2.1077 -0.7475  0.5765
 8076TIP3   OH245642   5.539   5.597  10.807  0.3486  0.2325  0.0406
 8076TIP3    H145643   5.513   5.666  10.746  0.0844  0.8370  0.8283
 8076TIP3    H245644   5.505   5.517  10.767 -0.9592  0.7691  0.0066
 8077TIP3   OH245645   2.635   5.509   3.030  0.2920 -0.1474 -0.5103
 8077TIP3    H145646   2.688   5.473   2.960  0.8863 -1.1215  0.4080
 8077TIP3    H245647   2.692   5.507   3.107 -1.2563 -1.9644  0.6949
 8078TIP3   OH245648   2.818   0.634   4.598  0.4539  0.1260  0.1082
 8078TIP3    H145649   2.872   0.711   4.618  2.5442 -1.2985  0.2352
 8078TIP3    H245650   2.790   0.602   4.684 -1.7782  1.5816  0.0036
 8079TIP3   OH245651   2.382   4.398   0.909  0.3582  0.6085 -0.2316
 8079TIP3    H145652   2.321   4.471   0.915  2.4053  2.2940  2.4721
 8079TIP3    H245653   2.422   4.409   0.822 -1.5133  0.7861 -1.1233
 8080TIP3   OH245654   5.664   3.240   5.586 -0.3214 -0.1261  0.4463
 8080TIP3    H145655   5.641   3.261   5.496 -0.1382 -0.7107  0.2572
 8080TIP3    H245656   5.702   3.321   5.621  0.7009 -0.2394 -0.3674
 8081TIP3   OH245657   1.451   2.542   0.848  0.0994  0.2748  0.6528
 8081TIP3    H145658   1.437   2.559   0.754  0.0328 -0.0523  0.6001
 8081TIP3    H245659   1.534   2.495   0.851  0.9308  1.6972  0.9129
 8082TIP3   OH245660   0.605   5.569   3.717 -0.4016 -0.2796 -0.3502
 8082TIP3    H145661   0.563   5.606   3.639  1.5221  1.9994 -0.4161
 8082TIP3    H245662   0.541   5.581   3.787 -0.5445  1.6907 -0.7531
 8083TIP3   OH245663   3.492   4.360  15.954 -0.2414 -0.0277 -0.1099
 8083TIP3    H145664   3.398   4.342  15.957 -0.7831  2.2809 -0.8038
 8083TIP3    H245665   3.527   4.320  16.034 -2.1910  0.8165  1.2609
 8084TIP3   OH245666   2.560   4.941   1.338  0.5474 -0.1323 -0.0092
 8084TIP3    H145667   2.647   4.905   1.353  0.6429  0.4609  0.9280
 8084TIP3    H245668   2.554   5.015   1.397 -0.2589  0.3967 -0.7305
 8085TIP3   OH245669   5.650   3.503   3.797  0.0508 -0.5462 -0.0385
 8085TIP3    H145670   5.684   3.482   3.710  0.2076  2.0268 -0.6916
 8085TIP3    H245671   5.722   3.550   3.839 -0.9697  0.7073  0.3845
 8086TIP3   OH245672   1.096   6.060  16.474 -0.1184 -0.6553  0.0125
 8086TIP3    H145673   1.188   6.077  16.457 -0.5711  0.6489 -1.2960
 8086TIP3    H245674   1.089   6.059  16.570  1.2691 -0.9595  0.1212
 8087TIP3   OH245675   0.341   1.098   6.276 -0.1406 -0.2920  0.5817
 8087TIP3    H145676   0.259   1.048   6.271  0.3500 -1.1479  0.9382
 8087TIP3    H245677   0.314   1.188   6.258 -1.2625 -0.4635  1.2751
 8088TIP3   OH245678   6.318   4.313  11.698  0.1427 -0.1091  0.1222
 8088TIP3    H145679   6.287   4.223  11.697  0.5934 -0.3349 -2.7492
 8088TIP3    H245680   6.408   4.308  11.729  0.9726 -1.0644 -2.2116
 8089TIP3   OH245681   4.910   0.136   3.230  0.3392 -0.1479  0.1047
 8089TIP3    H145682   4.921   0.193   3.306 -0.7065 -0.6991  0.6796
 8089TIP3    H245683   4.940   0.050   3.260 -0.1088 -0.3764 -0.1022
 8090TIP3   OH245684   6.743   5.184  14.747  0.4223 -0.0059  0.2905
 8090TIP3    H145685   6.779   5.110  14.796  0.6938  0.2755  0.5231
 8090TIP3    H245686   6.719   5.148  14.662 -1.5037 -0.8643  1.1427
 8091TIP3   OH245687   6.356   4.535   2.120 -0.4815  0.2068  0.4049
 8091TIP3    H145688   6.424   4.590   2.159 -1.0760  0.6610  0.8308
 8091TIP3    H245689   6.293   4.521   2.191 -1.4908  0.8793 -0.3285
 8092TIP3   OH245690   0.979   0.638  14.359  0.2143 -0.1934 -0.3168
 8092TIP3    H145691   0.929   0.611  14.436  0.4996 -0.9487 -0.3900
 8092TIP3    H245692   0.938   0.592  14.286  0.3677 -0.0011 -0.5271
 8093TIP3   OH245693   3.217   3.099   4.937  0.4408 -0.0091 -0.8192
 8093TIP3    H145694   3.159   3.140   5.002  0.0777 -2.4125  0.5049
 8093TIP3    H245695   3.302   3.140   4.952 -0.6134  3.0137 -2.2635
 8094TIP3   OH245696   0.201   0.037   5.501 -0.1088  0.3821  0.3453
 8094TIP3    H145697   0.137  -0.029   5.527  0.9250 -1.2825 -1.1703
 8094TIP3    H245698   0.244   0.062   5.583 -1.7330  0.5536  1.1899
 8095TIP3   OH245699   2.253   3.338  15.146 -0.3177  0.5084 -0.1469
 8095TIP3    H145700   2.206   3.398  15.089 -0.3669  1.1553  0.5484
 8095TIP3    H245701   2.201   3.335  15.226  0.4126  0.6289  0.3478
 8096TIP3   OH245702   0.478   5.131  14.050 -0.0971  0.9188  0.1751
 8096TIP3    H145703   0.563   5.153  14.011 -0.4536  1.4618 -0.3011
 8096TIP3    H245704   0.490   5.041  14.082  1.1413  1.4917  1.4862
 8097TIP3   OH245705   3.749   2.162   1.088 -0.5353 -0.1964  0.1098
 8097TIP3    H145706   3.655   2.179   1.092 -0.9097 -0.9142 -3.1642
 8097TIP3    H245707   3.788   2.245   1.059 -0.4169 -0.4841 -0.5569
 8098TIP3   OH245708   4.781   3.503   0.131 -0.2498 -0.4058 -0.1289
 8098TIP3    H145709   4.847   3.435   0.136 -0.4574 -0.5224  1.9787
 8098TIP3    H245710   4.717   3.479   0.198 -0.9987  1.1620 -0.2378
 8099TIP3   OH245711   2.727   1.368   3.214  0.1297  0.1746  0.2514
 8099TIP3    H145712   2.813   1.379   3.255 -0.0486  2.3861  0.1632
 8099TIP3    H245713   2.745   1.376   3.120 -0.3352  2.6157  0.3030
 8100TIP3   OH245714   3.916   2.065   4.929 -0.1021  0.4134  0.2668
 8100TIP3    H145715   3.918   2.037   4.838 -1.2306 -2.6555  1.0479
 8100TIP3    H245716   3.822   2.073   4.949  0.0024 -1.2839  1.6966
 8101TIP3   OH245717   3.940   5.167  10.680 -0.2949  0.1924  0.4729
 8101TIP3    H145718   3.913   5.096  10.622  0.6451 -0.0580  0.3320
 8101TIP3    H245719   3.873   5.235  10.667 -2.0004 -1.1778  1.6355
 8102TIP3   OH245720   5.651   1.231   6.287 -0.5673 -0.5586  0.0308
 8102TIP3    H145721   5.581   1.259   6.345 -0.8471 -0.3414 -0.4057
 8102TIP3    H245722   5.702   1.169   6.339 -2.9364 -3.3040 -0.6618
 8103TIP3   OH245723   4.558   1.991   1.512  0.1351 -0.1272 -0.1532
 8103TIP3    H145724   4.506   2.069   1.533  1.9961  1.4032 -0.8273
 8103TIP3    H245725   4.574   1.998   1.417  0.3738 -1.3092 -0.2106
 8104TIP3   OH245726   5.413   0.207  12.536  0.4331 -0.4547 -0.0696
 8104TIP3    H145727   5.368   0.127  12.565 -2.1239  1.3266  1.2807
 8104TIP3    H245728   5.383   0.219  12.446  0.2996 -0.6518 -0.0538
 8105TIP3   OH245729   0.937   0.607   0.554  0.2141  0.7038 -0.5443
 8105TIP3    H145730   0.975   0.666   0.619  0.0648  0.1661  0.0392
 8105TIP3    H245731   0.844   0.632   0.551 -0.2537 -0.6599  1.0358
 8106TIP3   OH245732   1.025   0.891  14.908  0.0975 -0.6126  0.2570
 8106TIP3    H145733   1.105   0.859  14.949  1.2057  1.3469 -0.2103
 8106TIP3    H245734   0.968   0.915  14.981  1.0657  0.5394  0.6567
 8107TIP3   OH245735   1.056   1.467   5.773  0.0053  0.1582 -0.1375
 8107TIP3    H145736   1.085   1.418   5.851  1.9351 -1.4819 -1.7530
 8107TIP3    H245737   1.124   1.533   5.760 -0.9537  1.2493  0.2134
 8108TIP3   OH245738   4.134   5.086   4.892  0.3676  0.2369 -0.0112
 8108TIP3    H145739   4.062   5.141   4.862 -0.1767  0.7467  2.0613
 8108TIP3    H245740   4.094   5.026   4.955  1.1915 -1.7002 -1.2299
 8109TIP3   OH245741   0.546   3.216   2.079  0.0406  0.2497 -0.9290
 8109TIP3    H145742   0.630   3.173   2.063  0.6612  1.7861 -2.1599
 8109TIP3    H245743   0.526   3.198   2.170  2.9473  1.8596  0.1456
 8110TIP3   OH245744   2.552   6.220   1.435 -0.2414  0.7932  0.0643
 8110TIP3    H145745   2.550   6.247   1.343 -0.1492  0.5864  0.0003
 8110TIP3    H245746   2.527   6.298   1.483 -1.2631  0.6271 -0.1902
 8111TIP3   OH245747   4.537   4.584   4.737 -0.7798  0.3635 -0.3107
 8111TIP3    H145748   4.553   4.675   4.714  0.6750  0.2944  0.3483
 8111TIP3    H245749   4.513   4.586   4.829 -0.6209  0.0638 -0.2617
 8112TIP3   OH245750   6.516   5.641  12.295 -0.8877 -0.8073 -0.0146
 8112TIP3    H145751   6.550   5.730  12.298  2.9564 -2.1288  0.8616
 8112TIP3    H245752   6.483   5.625  12.384 -0.5560 -0.6216  0.1424
 8113TIP3   OH245753   0.132   4.643   1.383 -0.2224  0.0733 -0.4550
 8113TIP3    H145754   0.090   4.562   1.412  0.2658 -0.3964 -1.0396
 8113TIP3    H245755   0.088   4.664   1.300  1.0332 -0.7234 -1.3588
 8114TIP3   OH245756   0.957   0.015  15.620  0.1405 -0.0691 -0.1946
 8114TIP3    H145757   0.974   0.101  15.582  0.6979  0.5852  1.4676
 8114TIP3    H245758   0.871   0.024  15.660  1.4156  0.7388  2.5937
 8115TIP3   OH245759   4.106   0.913   0.906  0.1831  0.4156 -0.4408
 8115TIP3    H145760   4.094   0.906   1.001  1.8650  0.0471 -0.2242
 8115TIP3    H245761   4.097   0.823   0.874 -0.6337  0.5743 -0.6806
 8116TIP3   OH245762   5.463   3.849  15.936 -0.2059  0.1116 -0.3286
 8116TIP3    H145763   5.375   3.876  15.911 -0.5443  0.2041  0.8832
 8116TIP3    H245764   5.471   3.759  15.902 -0.6032  0.2553 -0.8117
 8117TIP3   OH245765   1.360   1.552  12.696 -0.3684  0.5240  0.1696
 8117TIP3    H145766   1.381   1.486  12.631 -0.3793 -0.7512  1.4275
 8117TIP3    H245767   1.268   1.573  12.680  0.2298  2.0011 -1.7221
 8118TIP3   OH245768   5.964   4.301  15.751 -0.4212 -0.8018 -0.0381
 8118TIP3    H145769   6.047   4.311  15.797 -0.7117 -0.3664  0.3931
 8118TIP3    H245770   5.898   4.331  15.813 -0.7218  0.9233 -1.1432
 8119TIP3   OH245771   6.201   6.123  13.731 -0.3889  0.7747  0.3915
 8119TIP3    H145772   6.276   6.117  13.672 -0.7981  0.5809 -0.1141
 8119TIP3    H245773   6.206   6.212  13.768  0.4914  0.5184  0.9178
 8120TIP3   OH245774   1.435   0.879  16.237  0.4271  0.2386 -0.6273
 8120TIP3    H145775   1.412   0.853  16.326 -2.3905  1.8796 -0.7846
 8120TIP3    H245776   1.530   0.893  16.240  0.5773 -0.9271  1.7611
 8121TIP3   OH245777   5.151   5.163  11.439  0.3207 -0.0175  0.9613
 8121TIP3    H145778   5.224   5.223  11.451 -0.5394  1.0121  1.1769
 8121TIP3    H245779   5.142   5.154  11.344  0.2727  0.4252  0.9243
 8122TIP3   OH245780   3.731   2.136  13.562 -0.2779 -0.6367 -0.2331
 8122TIP3    H145781   3.718   2.170  13.474  0.7094 -2.2697 -1.0648
 8122TIP3    H245782   3.759   2.211  13.614  1.5391 -0.0855 -1.8924
 8123TIP3   OH245783   6.289   5.487   5.646 -0.2321  0.3804  0.4410
 8123TIP3    H145784   6.204   5.506   5.607 -0.0419 -1.4366 -0.9648
 8123TIP3    H245785   6.352   5.507   5.578  0.5958  2.3798  1.6993
 8124TIP3   OH245786   0.305   5.044  12.481  0.4322 -0.2100 -0.3993
 8124TIP3    H145787   0.355   5.054  12.400  0.7291 -2.0811 -0.4907
 8124TIP3    H245788   0.310   4.951  12.501 -0.6867  0.0144  1.1118
 8125TIP3   OH245789   3.132   5.420  13.633 -0.3124  0.2094  0.1013
 8125TIP3    H145790   3.130   5.508  13.669 -1.4231  0.1104  0.3428
 8125TIP3    H245791   3.059   5.418  13.571  1.5139  0.3569 -2.1919
 8126TIP3   OH245792   5.343   0.037   0.402 -0.3384  0.0636 -0.1132
 8126TIP3    H145793   5.276   0.073   0.461  0.2599  1.6350 -0.3451
 8126TIP3    H245794   5.353   0.104   0.334  1.8370  0.1297  0.2032
 8127TIP3   OH245795   2.321   4.385  15.552  0.8283 -0.1755  0.1144
 8127TIP3    H145796   2.307   4.361  15.460  2.3472 -0.2633 -0.1297
 8127TIP3    H245797   2.275   4.468  15.563 -2.2278 -1.7392  0.2257
 8128TIP3   OH245798   6.740   6.533  11.024  0.3596  0.4863 -0.2400
 8128TIP3    H145799   6.814   6.474  11.013  0.0775  0.2987 -1.2029
 8128TIP3    H245800   6.666   6.487  10.986 -0.6009  0.0562  1.9984
 8129TIP3   OH245801   6.749   3.875  16.611 -0.5212 -0.1090  0.2421
 8129TIP3    H145802   6.694   3.897  16.686 -0.5282 -0.7818  0.4408
 8129TIP3    H245803   6.700   3.805  16.566  0.8871 -1.8215  1.2775
 8130TIP3   OH245804   1.645   3.641   2.101  0.4206 -0.3103  0.3719
 8130TIP3    H145805   1.551   3.647   2.115  0.1575 -1.7348 -0.5302
 8130TIP3    H245806   1.654   3.580   2.028  1.9868  1.0885 -0.6596
 8131TIP3   OH245807   6.812   1.455  11.653 -0.1465  0.0888 -0.0761
 8131TIP3    H145808   6.762   1.383  11.615  0.1533  0.5972 -1.5128
 8131TIP3    H245809   6.762   1.533  11.630 -0.6289  0.3447  1.7328
 8132TIP3   OH245810   3.884   3.810   3.904 -0.0411  0.1489 -0.0863
 8132TIP3    H145811   3.814   3.871   3.880 -0.0400  0.6159  1.0324
 8132TIP3    H245812   3.843   3.748   3.964 -0.0774 -1.0798 -1.3214
 8133TIP3   OH245813   4.228   0.472  11.685  0.2692  0.1237  0.2039
 8133TIP3    H145814   4.142   0.469  11.726  0.0743 -1.2373 -0.2510
 8133TIP3    H245815   4.282   0.414  11.739 -0.0240 -1.7948 -1.4516
 8134TIP3   OH245816   1.980   4.847   5.336  0.2926 -0.6455  0.5666
 8134TIP3    H145817   2.002   4.927   5.289  0.7346 -1.5014 -0.7281
 8134TIP3    H245818   2.031   4.852   5.417 -0.3356  0.7552  0.9066
 8135TIP3   OH245819   6.504   3.385   4.715  0.0593 -0.0156 -0.3860
 8135TIP3    H145820   6.475   3.294   4.707  1.4066 -0.7227  1.8743
 8135TIP3    H245821   6.586   3.388   4.666 -0.3684  0.1983 -1.0987
 8136TIP3   OH245822   6.795   6.675   5.497 -0.0144  0.2166 -0.1016
 8136TIP3    H145823   6.831   6.654   5.411 -0.6166  1.0245 -0.5508
 8136TIP3    H245824   6.708   6.709   5.480 -1.9569 -3.5754  1.0722
 8137TIP3   OH245825   5.515   5.466   2.109 -0.2707 -0.5829 -0.0897
 8137TIP3    H145826   5.494   5.394   2.169 -0.2184 -0.9730 -0.5298
 8137TIP3    H245827   5.438   5.522   2.110 -0.2024 -0.4892  0.4738
 8138TIP3   OH245828   1.933   3.634  16.054  0.3918  0.1622 -0.3820
 8138TIP3    H145829   1.965   3.601  15.970  0.0352 -0.0612 -0.4295
 8138TIP3    H245830   1.838   3.623  16.050  0.4901 -1.2888  0.6547
 8139TIP3   OH245831   5.592   1.441  11.597 -0.2298 -0.1973  0.0474
 8139TIP3    H145832   5.499   1.462  11.592 -0.0035  0.6183 -1.1465
 8139TIP3    H245833   5.606   1.379  11.526  0.5040  1.2648 -1.1516
 8140TIP3   OH245834   0.050   6.064  12.477  0.2007 -0.7076  0.5972
 8140TIP3    H145835   0.043   5.971  12.498 -0.2810 -0.4886  1.4519
 8140TIP3    H245836  -0.020   6.105  12.527 -0.9498 -0.1336 -1.3932
 8141TIP3   OH245837   1.492   6.660  13.476  0.7815 -0.1415 -0.1457
 8141TIP3    H145838   1.526   6.747  13.456 -0.7461  0.3798 -0.6425
 8141TIP3    H245839   1.422   6.675  13.538  1.9489 -1.2713  1.5270
 8142TIP3   OH245840   2.231   1.009  13.885  0.5666  0.3540 -0.0911
 8142TIP3    H145841   2.244   1.097  13.851 -0.3038  0.9995  1.1556
 8142TIP3    H245842   2.292   1.001  13.958 -1.6589  1.2600  2.0214
 8143TIP3   OH245843   5.020   0.652  12.439  0.0516 -0.1901  0.1801
 8143TIP3    H145844   5.095   0.692  12.483 -0.0337  0.3377 -0.1508
 8143TIP3    H245845   4.947   0.710  12.458 -0.2979 -0.7456  0.5646
 8144TIP3   OH245846   1.643   0.576  10.672 -0.3185 -0.1637 -0.1431
 8144TIP3    H145847   1.725   0.537  10.644 -0.4995  0.0634 -0.9967
 8144TIP3    H245848   1.610   0.622  10.595 -1.0974 -0.0002  0.2786
 8145TIP3   OH245849   6.310   2.786   0.435  0.0516  0.6912 -0.2283
 8145TIP3    H145850   6.311   2.738   0.352 -0.6404  1.9113 -0.9718
 8145TIP3    H245851   6.225   2.765   0.473  0.2703  0.3212  0.0544
 8146TIP3   OH245852   0.094   3.606  13.282  0.1545  0.4615  0.0408
 8146TIP3    H145853   0.021   3.653  13.323  2.1299  1.8622  2.2743
 8146TIP3    H245854   0.168   3.668  13.288  1.8462 -1.3612 -0.8959
 8147TIP3   OH245855   2.435   5.533  12.068 -0.5024 -0.0388 -0.6220
 8147TIP3    H145856   2.527   5.558  12.072 -0.7846  0.9335  0.3004
 8147TIP3    H245857   2.399   5.560  12.152 -1.0658 -2.8345  0.1076
 8148TIP3   OH245858   4.155   5.597   4.274 -0.3489 -0.2530  0.7817
 8148TIP3    H145859   4.082   5.612   4.333  0.3232  0.8529  1.3625
 8148TIP3    H245860   4.230   5.640   4.316 -0.0798  1.5580 -1.3569
 8149TIP3   OH245861   6.259   4.372   3.124 -0.0565 -0.4444  0.1280
 8149TIP3    H145862   6.208   4.292   3.110  1.1379 -1.2712  0.3112
 8149TIP3    H245863   6.299   4.390   3.039 -1.7786  1.0589 -0.4241
 8150TIP3   OH245864   5.555   3.165   3.422  0.1396 -0.0349 -0.1058
 8150TIP3    H145865   5.623   3.139   3.485 -0.8903  0.2525  1.1700
 8150TIP3    H245866   5.482   3.193   3.476 -1.4671 -1.4510 -1.4106
 8151TIP3   OH245867   2.380   1.123  11.308  0.1737  0.3000 -0.1201
 8151TIP3    H145868   2.290   1.092  11.316  0.8071 -2.1302 -1.5328
 8151TIP3    H245869   2.402   1.110  11.216  2.1089  0.4725  0.2715
 8152TIP3   OH245870   6.803   2.460  11.408 -0.2715  0.0208 -0.2926
 8152TIP3    H145871   6.770   2.449  11.319 -0.1391  1.6554 -0.5780
 8152TIP3    H245872   6.878   2.518  11.399 -0.4160  0.4292  0.9156
 8153TIP3   OH245873   6.331   5.998  12.133 -0.1023  0.1500 -0.2764
 8153TIP3    H145874   6.315   6.090  12.111 -1.3000  0.1574  0.5795
 8153TIP3    H245875   6.349   5.998  12.227  1.4960 -0.3200 -0.5409
 8154TIP3   OH245876   6.667   5.037   5.487  0.0697 -0.2595 -0.1011
 8154TIP3    H145877   6.691   5.129   5.493  3.4815 -1.0847  1.1661
 8154TIP3    H245878   6.643   5.025   5.395  1.6967  1.4699 -0.8159
 8155TIP3   OH245879   4.446   4.160   3.603 -0.8388  0.0341 -0.3993
 8155TIP3    H145880   4.403   4.116   3.530 -0.0554 -1.8859  0.2202
 8155TIP3    H245881   4.533   4.182   3.569 -1.1099  0.8495 -0.5968
 8156TIP3   OH245882   6.570   3.706   4.163  0.4895  0.5789  0.2962
 8156TIP3    H145883   6.618   3.630   4.129 -0.1449 -0.4420  1.5908
 8156TIP3    H245884   6.537   3.677   4.247 -1.7261  1.5218 -0.1916
 8157TIP3   OH245885   4.106   3.031   1.619 -0.4407  0.1973  0.1878
 8157TIP3    H145886   4.199   3.011   1.626 -0.5179  0.0224  0.8348
 8157TIP3    H245887   4.093   3.109   1.673 -0.7026  0.1033  0.2655
 8158TIP3   OH245888   4.950   3.855  14.587 -0.2410 -1.0940  0.4425
 8158TIP3    H145889   4.900   3.906  14.523  0.1372 -0.0587  0.9384
 8158TIP3    H245890   5.001   3.794  14.535  0.3226 -0.0444 -0.2867
 8159TIP3   OH245891   1.006   0.738  15.440 -0.0190 -0.2482  0.1458
 8159TIP3    H145892   1.024   0.673  15.508 -0.7275 -2.2374 -1.4571
 8159TIP3    H245893   0.928   0.784  15.471 -0.5033 -1.3180  0.5802
 8160TIP3   OH245894   6.422   0.556  14.381  0.2630 -0.0497  0.3004
 8160TIP3    H145895   6.434   0.650  14.371  0.7073 -0.2956 -1.8022
 8160TIP3    H245896   6.349   0.535  14.323 -1.2144 -0.7301  2.2940
 8161TIP3   OH245897   1.152   5.998   2.710 -0.4186 -0.3833  0.2967
 8161TIP3    H145898   1.139   5.996   2.615  0.8079 -1.7256  0.1196
 8161TIP3    H245899   1.120   6.084   2.737 -1.9412 -0.4521 -1.1465
 8162TIP3   OH245900   3.526   1.940  14.754  0.3784  0.3440  0.3452
 8162TIP3    H145901   3.450   1.942  14.695  0.2073 -0.9007  0.5072
 8162TIP3    H245902   3.501   2.000  14.826 -0.1470  0.5045  0.0373
 8163TIP3   OH245903   1.793   5.493  15.485  0.0374  0.5541 -0.1666
 8163TIP3    H145904   1.878   5.453  15.472 -0.6563 -1.0092 -0.1317
 8163TIP3    H245905   1.769   5.527  15.399  0.4477  0.4972 -0.3044
 8164TIP3   OH245906   4.201   0.787  16.289  0.0787  0.2030  0.0136
 8164TIP3    H145907   4.241   0.799  16.203  2.3167  1.8953  1.2195
 8164TIP3    H245908   4.200   0.692  16.302  3.6020  0.0065 -0.2281
 8165TIP3   OH245909   3.820   1.415   2.929 -0.5661  0.5591  0.5553
 8165TIP3    H145910   3.899   1.432   2.981  0.2603 -2.9192  0.6542
 8165TIP3    H245911   3.852   1.401   2.840 -1.2271  0.4200  0.3361
 8166TIP3   OH245912   3.790   3.371   2.246  0.0666 -0.0449  0.6297
 8166TIP3    H145913   3.826   3.410   2.166 -0.4267 -0.5321  0.1575
 8166TIP3    H245914   3.832   3.286   2.253 -1.4798 -0.9530 -0.3492
 8167TIP3   OH245915   6.341   2.252   5.565  0.5782  0.1028  0.5886
 8167TIP3    H145916   6.380   2.200   5.495 -1.5246 -0.4672 -0.2418
 8167TIP3    H245917   6.341   2.194   5.641  0.2380 -0.3451  0.2525
 8168TIP3   OH245918   3.398   4.595  10.551 -0.3255  0.1872  0.1028
 8168TIP3    H145919   3.482   4.574  10.590 -0.4014  1.5311  1.1038
 8168TIP3    H245920   3.338   4.528  10.584  0.1206 -0.0892  0.3475
 8169TIP3   OH245921   2.217   6.606   0.245 -0.2664  0.7452  0.2252
 8169TIP3    H145922   2.231   6.693   0.207 -1.0734  0.2752 -1.2612
 8169TIP3    H245923   2.170   6.622   0.327  3.2895  1.9324  2.2369
 8170TIP3   OH245924   1.297   6.825  16.285 -0.0502 -0.3666  0.1012
 8170TIP3    H145925   1.330   6.775  16.210  0.6468  2.3275 -1.5097
 8170TIP3    H245926   1.205   6.798  16.293 -0.5793  0.2999 -2.7239
 8171TIP3   OH245927   0.971   2.447   2.707  0.2202 -0.0598 -0.0774
 8171TIP3    H145928   0.949   2.477   2.795 -1.3836 -1.4247  0.0345
 8171TIP3    H245929   1.052   2.397   2.718  0.3123  0.2192  0.5344
 8172TIP3   OH245930   2.511   2.860   2.229 -0.5251  0.2316  0.5349
 8172TIP3    H145931   2.509   2.887   2.320  2.5495  0.0812  0.7821
 8172TIP3    H245932   2.593   2.898   2.195 -0.9973 -0.6885 -1.8117
 8173TIP3   OH245933   3.421   0.569  16.129 -0.3367 -0.2515 -0.8071
 8173TIP3    H145934   3.377   0.595  16.048 -2.1804 -1.5791 -0.2908
 8173TIP3    H245935   3.399   0.638  16.192  0.1364  0.1883 -1.1207
 8174TIP3   OH245936   3.037   6.070  16.922  0.2643  0.4408  0.5267
 8174TIP3    H145937   3.118   6.057  16.971  0.3226 -0.0475  0.3083
 8174TIP3    H245938   3.066   6.106  16.838  0.2643  0.1843  0.4152
 8175TIP3   OH245939   0.166   5.968  13.391  0.3781 -0.2126 -0.1523
 8175TIP3    H145940   0.087   6.019  13.410  0.6012  0.3190 -0.6295
 8175TIP3    H245941   0.222   6.027  13.341 -0.3753 -1.6486 -2.9056
 8176TIP3   OH245942   1.975   4.128  16.094 -0.4233 -0.7510  0.0411
 8176TIP3    H145943   2.063   4.159  16.113 -0.4642 -0.4311 -0.2838
 8176TIP3    H245944   1.981   4.032  16.099  0.0173 -0.7434 -0.3104
 8177TIP3   OH245945   1.488   5.874   1.910  0.4433 -0.0302  0.0637
 8177TIP3    H145946   1.553   5.855   1.842 -0.7752 -1.5595 -0.7300
 8177TIP3    H245947   1.535   5.927   1.974  2.2613 -0.4887 -0.8343
 8178TIP3   OH245948   3.384   3.052  12.955 -0.2512  0.2341  0.1714
 8178TIP3    H145949   3.461   3.082  12.906 -0.4331  0.9263  0.3061
 8178TIP3    H245950   3.353   2.977  12.905  0.8423 -0.4161  0.4192
 8179TIP3   OH245951   2.442   5.343  10.309 -0.4532 -0.0526 -0.1302
 8179TIP3    H145952   2.503   5.284  10.265  0.1912 -0.7358  1.5503
 8179TIP3    H245953   2.499   5.407  10.352 -1.1055  1.2631 -1.1627
 8180TIP3   OH245954   3.328   1.501   4.929 -0.2784  0.0281 -0.7535
 8180TIP3    H145955   3.288   1.474   5.012  1.4985  2.9431  1.2120
 8180TIP3    H245956   3.422   1.484   4.941 -0.0206  0.2409 -2.3011
 8181TIP3   OH245957   1.419   4.769   1.322 -0.2794  0.4211  0.1809
 8181TIP3    H145958   1.396   4.818   1.401 -2.5993  1.2417 -0.9222
 8181TIP3    H245959   1.349   4.704   1.313 -0.7421  1.1191 -1.7988
 8182TIP3   OH245960   2.884   5.438   2.435 -0.6083  0.2642  0.0244
 8182TIP3    H145961   2.906   5.463   2.525 -0.4647 -0.3476  0.1604
 8182TIP3    H245962   2.804   5.386   2.444 -0.0061 -0.6956 -0.0938
 8183TIP3   OH245963   0.236   4.932  13.494  0.0776 -0.1574  0.5074
 8183TIP3    H145964   0.285   4.862  13.538  0.5983 -0.6825 -0.8664
 8183TIP3    H245965   0.150   4.893  13.477 -0.0456 -0.0316  0.8224
 8184TIP3   OH245966   6.515   2.458  11.460  0.0390  0.7569  0.4591
 8184TIP3    H145967   6.606   2.487  11.473  1.2902 -2.6165  0.2451
 8184TIP3    H245968   6.477   2.460  11.548  1.0270  0.2539  0.9200
 8185TIP3   OH245969   6.165   0.747  15.461  0.7595 -0.0421  0.0855
 8185TIP3    H145970   6.093   0.781  15.514  1.5644  0.6849  0.7456
 8185TIP3    H245971   6.174   0.656  15.486 -0.0019 -0.1673 -0.0872
 8186TIP3   OH245972   4.378   6.258  12.146 -0.2771  0.1950  0.0392
 8186TIP3    H145973   4.443   6.289  12.209  0.1297  1.0580 -0.7815
 8186TIP3    H245974   4.402   6.300  12.064 -1.1707 -0.4181 -0.5562
 8187TIP3   OH245975   5.386   4.573   4.455  0.0262  0.3657 -0.2643
 8187TIP3    H145976   5.363   4.658   4.492 -0.2042 -0.0578  0.5991
 8187TIP3    H245977   5.302   4.532   4.434  0.0935  0.0075  0.1399
 8188TIP3   OH245978   3.661   5.911   4.854  0.6236 -0.2644  0.0083
 8188TIP3    H145979   3.657   5.934   4.761 -0.9938 -1.6784 -0.3114
 8188TIP3    H245980   3.587   5.853   4.868  2.0506 -1.8031  1.7135
 8189TIP3   OH245981   3.996   1.856  14.774 -0.8517  0.5252  0.3194
 8189TIP3    H145982   3.939   1.860  14.851 -3.1961 -1.9531 -1.1048
 8189TIP3    H245983   3.936   1.854  14.700  1.0305 -2.1718 -1.3078
 8190TIP3   OH245984   5.368   3.945   0.099 -0.3880  0.0726  0.0043
 8190TIP3    H145985   5.372   3.851   0.117 -1.2354 -0.1654 -0.9736
 8190TIP3    H245986   5.281   3.959   0.061 -0.4537  1.3402  0.5709
 8191TIP3   OH245987   3.494   3.925  14.356 -0.0837 -0.0794  0.3575
 8191TIP3    H145988   3.563   3.957  14.414  0.4475 -1.5871  0.6089
 8191TIP3    H245989   3.451   3.855  14.406 -0.2798 -0.7174 -0.6618
 8192TIP3   OH245990   0.478   0.498   4.841  0.5546 -0.2072  0.1787
 8192TIP3    H145991   0.551   0.499   4.903  0.1401 -2.1051  0.7771
 8192TIP3    H245992   0.464   0.590   4.818  1.5681  0.4127  1.8830
 8193TIP3   OH245993   3.490   6.379   2.393  0.4225  0.0130 -0.3617
 8193TIP3    H145994   3.512   6.336   2.476  1.4184 -1.7620 -1.4893
 8193TIP3    H245995   3.512   6.471   2.408  0.6499 -0.2750  1.3215
 8194TIP3   OH245996   3.275   4.807   0.146  0.1425 -0.4424  0.0051
 8194TIP3    H145997   3.222   4.739   0.104 -0.5156  1.2212 -2.0691
 8194TIP3    H245998   3.346   4.823   0.083  0.4233  0.5891  0.5733
 8195TIP3   OH245999   1.001   2.539  12.211 -0.4077 -0.0494 -0.2116
 8195TIP3    H146000   0.977   2.541  12.304 -2.5207 -0.5052 -0.6840
 8195TIP3    H246001   0.954   2.613  12.173  0.4924  0.1672 -0.9222
 8196TIP3   OH246002   3.393   0.904   2.893 -0.9143 -0.1901  0.3981
 8196TIP3    H146003   3.477   0.906   2.938 -0.6087 -2.1945  0.0142
 8196TIP3    H246004   3.411   0.942   2.807 -1.1340  2.1245  1.2970
 8197TIP3   OH246005   5.760   1.992   2.401  0.5906  0.1025  0.6532
 8197TIP3    H146006   5.783   1.949   2.319  0.9214  0.0382  0.7790
 8197TIP3    H246007   5.664   1.987   2.405  0.6033 -0.3004  0.4925
 8198TIP3   OH246008   0.777   6.779  10.506  0.4617 -0.1840  0.4173
 8198TIP3    H146009   0.803   6.695  10.470 -0.8043 -0.4739  0.1091
 8198TIP3    H246010   0.828   6.844  10.458  0.6391 -0.7134 -0.1191
 8199TIP3   OH246011   0.039   5.003  11.326  0.5538  0.1234 -0.2762
 8199TIP3    H146012  -0.052   4.976  11.316  0.9654 -0.8236 -1.8923
 8199TIP3    H246013   0.082   4.929  11.368  0.5939  0.5391  0.4155
 8200TIP3   OH246014   6.458   2.028   1.837  0.6294  0.4010 -0.6639
 8200TIP3    H146015   6.416   2.112   1.821 -1.4454 -0.4095  0.0654
 8200TIP3    H246016   6.461   1.986   1.751 -1.0468  0.1029 -0.6190
 8201TIP3   OH246017   2.718   1.841   0.939  0.1228 -0.3436  0.3466
 8201TIP3    H146018   2.654   1.908   0.963 -0.1735 -0.8251  0.9352
 8201TIP3    H246019   2.724   1.846   0.844  0.8574  1.2081  0.4423
 8202TIP3   OH246020   6.597   2.497   5.217  0.2362  0.3040 -0.6241
 8202TIP3    H146021   6.506   2.496   5.188  0.6614 -0.3437 -2.0081
 8202TIP3    H246022   6.631   2.411   5.194  0.1576 -1.0563  3.5422
 8203TIP3   OH246023   5.790   6.633  11.554 -0.3659  0.0131 -0.1880
 8203TIP3    H146024   5.796   6.541  11.532 -0.1322 -0.0721  0.2251
 8203TIP3    H246025   5.881   6.661  11.565 -0.4602  0.1677  0.1956
 8204TIP3   OH246026   1.031   0.859  11.204  0.3604 -0.4052 -0.3449
 8204TIP3    H146027   1.047   0.845  11.111  0.6071  2.5017 -0.8337
 8204TIP3    H246028   1.106   0.821  11.248  0.0020 -2.2613 -1.2505
 8205TIP3   OH246029   1.073   1.424   4.471  0.1873  0.3887 -0.3101
 8205TIP3    H146030   1.054   1.410   4.378 -1.0710 -0.2491  0.0264
 8205TIP3    H246031   1.150   1.481   4.471 -0.2559  1.0419 -1.7533
 8206TIP3   OH246032   4.059   3.232  12.619 -0.2473 -0.2519 -0.5747
 8206TIP3    H146033   4.099   3.175  12.685  0.5547 -2.7267 -2.9977
 8206TIP3    H246034   4.004   3.174  12.567 -2.6917  2.0429 -0.7763
 8207TIP3   OH246035   1.676   5.188  14.279  0.3333  0.0418 -0.6180
 8207TIP3    H146036   1.692   5.275  14.316  0.2773 -0.3161  0.2514
 8207TIP3    H246037   1.708   5.195  14.189 -0.8490  1.3498 -0.9787
 8208TIP3   OH246038   3.691   1.654  15.914 -0.0766 -0.1681 -0.0306
 8208TIP3    H146039   3.769   1.708  15.905 -0.9170  0.9409 -1.1400
 8208TIP3    H246040   3.695   1.593  15.839 -0.2166 -0.1730 -0.0353
 8209TIP3   OH246041   4.068   2.266   5.721  0.2667  0.6084 -0.3447
 8209TIP3    H146042   4.150   2.308   5.697  0.1982  1.4889  0.8415
 8209TIP3    H246043   4.070   2.181   5.678  1.1686  1.1707 -1.4492
 8210TIP3   OH246044   0.400   1.326   9.892 -0.4352 -0.2767  0.1639
 8210TIP3    H146045   0.430   1.413   9.867 -0.8491 -0.6059 -1.5798
 8210TIP3    H246046   0.472   1.268   9.869 -1.0166 -0.6469 -0.7861
 8211TIP3   OH246047   3.057   5.731  13.564  0.2657 -0.1472 -0.4665
 8211TIP3    H146048   3.033   5.673  13.491  0.4272 -2.2724  1.1096
 8211TIP3    H246049   2.981   5.730  13.621  0.6508  0.4562  0.0697
 8212TIP3   OH246050   1.948   5.995  14.539  0.1318  0.0062 -0.1814
 8212TIP3    H146051   1.974   5.921  14.484  1.0945 -0.0475  0.3189
 8212TIP3    H246052   1.890   6.047  14.484  0.6829 -0.3102 -1.0751
 8213TIP3   OH246053   0.232   5.813   1.224  0.6114 -0.1724 -0.1252
 8213TIP3    H146054   0.311   5.761   1.208  0.0852 -0.5274 -1.8040
 8213TIP3    H246055   0.263   5.903   1.232  1.6016 -0.6718  3.3641
 8214TIP3   OH246056   0.679   2.151   0.766 -0.1021 -0.1585  0.1348
 8214TIP3    H146057   0.772   2.172   0.762  0.2800 -1.5786  0.8517
 8214TIP3    H246058   0.658   2.153   0.859 -1.2952  2.0247 -0.1021
 8215TIP3   OH246059   0.650   4.864   1.411 -0.2401 -0.2613 -0.1338
 8215TIP3    H146060   0.650   4.779   1.455 -0.3965 -0.5665 -0.7178
 8215TIP3    H246061   0.575   4.910   1.448  0.2937 -0.0795  0.7444
 8216TIP3   OH246062   1.984   4.271  11.400  0.1632  0.0636  0.2424
 8216TIP3    H146063   2.008   4.349  11.349 -0.6557  0.1113 -0.0886
 8216TIP3    H246064   2.065   4.221  11.407  0.6321  0.8036  0.2026
 8217TIP3   OH246065   5.274   0.015   2.702  0.1159  0.4685 -0.0823
 8217TIP3    H146066   5.294   0.052   2.616  0.8941  1.1877  0.3868
 8217TIP3    H246067   5.179   0.013   2.706  0.0666 -0.1400 -1.1915
 8218TIP3   OH246068   5.350   0.502  11.573  0.8390  0.2453 -0.2225
 8218TIP3    H146069   5.401   0.486  11.494  0.7299 -0.0329 -0.2385
 8218TIP3    H246070   5.411   0.489  11.646  0.9400  0.5034 -0.2611
 8219TIP3   OH246071   0.940   5.777   0.259 -0.5859 -0.2445  0.1738
 8219TIP3    H146072   0.920   5.870   0.249 -3.3566 -0.7665  0.2435
 8219TIP3    H246073   1.031   5.769   0.228 -0.6361  2.2823 -0.8708
 8220TIP3   OH246074   0.305   3.919   1.093  0.2752 -0.3417  0.2442
 8220TIP3    H146075   0.312   3.877   1.179 -1.5195  0.7672  0.9972
 8220TIP3    H246076   0.318   4.012   1.111  0.2350 -0.1361 -0.7430
 8221TIP3   OH246077   6.011   3.982   2.047 -0.2014 -0.4390  0.1456
 8221TIP3    H146078   6.012   3.932   1.965 -0.9336 -1.3521  0.6756
 8221TIP3    H246079   5.920   4.012   2.055 -0.5612 -1.7640  1.4314
 8222TIP3   OH246080   3.042   4.836   3.180  0.4810  0.1618  0.0912
 8222TIP3    H146081   3.018   4.744   3.168  0.1401  0.2002  0.4344
 8222TIP3    H246082   3.065   4.842   3.273 -2.3794  1.0216  0.8582
 8223TIP3   OH246083   6.754   1.224  10.714 -0.5543 -0.1163  0.4814
 8223TIP3    H146084   6.834   1.230  10.766  0.5644 -2.6497 -0.7735
 8223TIP3    H246085   6.729   1.315  10.697  1.2812  0.7352  2.0414
 8224TIP3   OH246086   1.677   1.944   1.048  0.2029 -0.3026  0.2104
 8224TIP3    H146087   1.616   2.017   1.039  0.1499 -0.3022  0.5547
 8224TIP3    H246088   1.632   1.869   1.009  1.0383  0.2562 -1.9540
 8225TIP3   OH246089   2.456   6.576   4.526 -0.7740  0.3790 -0.0308
 8225TIP3    H146090   2.464   6.556   4.433  0.1551 -0.1982  0.1603
 8225TIP3    H246091   2.442   6.670   4.530  1.6818  0.8286 -0.6596
 8226TIP3   OH246092   2.752   4.149   2.166  0.0985  0.2285 -0.1339
 8226TIP3    H146093   2.799   4.067   2.148 -1.6710 -0.9605  0.3954
 8226TIP3    H246094   2.749   4.194   2.082  1.3248 -0.0987 -0.3815
 8227TIP3   OH246095   5.256   6.295   5.583  0.2831 -0.0946  0.6557
 8227TIP3    H146096   5.199   6.242   5.528 -0.0955  1.7669 -0.8266
 8227TIP3    H246097   5.325   6.326   5.525  1.1139  0.1539  1.7368
 8228TIP3   OH246098   5.273   3.108   2.200 -0.5962  0.3929  0.3409
 8228TIP3    H146099   5.367   3.101   2.217 -0.3138  1.3897 -0.6971
 8228TIP3    H246100   5.259   3.056   2.121 -0.8096  0.6764  0.1875
 8229TIP3   OH246101   5.391   4.992   5.352 -0.1752  0.4795  0.0772
 8229TIP3    H146102   5.330   5.048   5.401  0.0842  0.7868  0.0541
 8229TIP3    H246103   5.343   4.968   5.273 -0.7708 -0.3989  0.6883
 8230TIP3   OH246104   0.633   6.598   3.201  0.5651 -0.0005 -0.1182
 8230TIP3    H146105   0.718   6.635   3.176 -0.0453  0.0836 -2.2643
 8230TIP3    H246106   0.653   6.537   3.272  2.2462  0.8816  0.2231
 8231TIP3   OH246107   1.151   1.797  12.609  0.0494  0.2833  0.0771
 8231TIP3    H146108   1.117   1.882  12.637  0.6171  0.6455 -0.3115
 8231TIP3    H246109   1.236   1.817  12.570 -0.3218 -0.3086 -1.0830
 8232TIP3   OH246110   3.962   2.690   2.628  0.4190 -0.7690 -0.0547
 8232TIP3    H146111   3.894   2.651   2.682  0.0069 -1.3401 -0.9548
 8232TIP3    H246112   3.947   2.784   2.634 -1.0612 -0.9217 -0.9923
 8233TIP3   OH246113   5.243   3.407   6.334  0.4131  0.3973 -0.0359
 8233TIP3    H146114   5.330   3.369   6.347  0.6672  0.1871 -2.0259
 8233TIP3    H246115   5.185   3.331   6.328  0.3656  0.4703 -0.4840
 8234TIP3   OH246116   3.343   5.230  16.742 -0.3690 -0.3357 -0.0750
 8234TIP3    H146117   3.301   5.197  16.822 -1.8749  2.6861  0.5262
 8234TIP3    H246118   3.271   5.265  16.690  0.7948 -0.7057 -2.0259
 8235TIP3   OH246119   6.147   0.178  14.170 -0.1498  0.3981  0.1344
 8235TIP3    H146120   6.095   0.143  14.098  0.2675  0.1018 -0.0260
 8235TIP3    H246121   6.098   0.155  14.249 -0.8965  1.2176 -0.0754
 8236TIP3   OH246122   2.623   5.694  11.203 -0.6545 -0.2594  0.3160
 8236TIP3    H146123   2.640   5.764  11.140  0.6883 -0.0904  0.8250
 8236TIP3    H246124   2.645   5.614  11.156 -2.1896 -0.3796 -0.2659
 8237TIP3   OH246125   5.728   4.695   3.024  0.0481  0.5424 -0.4832
 8237TIP3    H146126   5.778   4.622   3.060 -0.8353  0.4886  0.6623
 8237TIP3    H246127   5.792   4.745   2.974  1.4518  0.8819  1.5420
 8238TIP3   OH246128   5.751   4.306  16.249  0.4820 -0.0716  0.1991
 8238TIP3    H146129   5.835   4.352  16.240  1.3512 -1.7342 -0.4784
 8238TIP3    H246130   5.723   4.290  16.159  0.5937 -1.5576  0.4130
 8239TIP3   OH246131   3.640   2.816  12.149 -0.6313  0.2225  0.4225
 8239TIP3    H146132   3.593   2.814  12.066  1.0672 -0.6462 -0.5713
 8239TIP3    H246133   3.727   2.782  12.129  0.5688  2.0450  2.1132
 8240TIP3   OH246134   6.694   1.471  12.639  0.0747  0.4076 -0.5631
 8240TIP3    H146135   6.722   1.386  12.605 -0.5691 -0.1380  0.2309
 8240TIP3    H246136   6.772   1.527  12.632  0.7823 -0.5215 -0.1904
 8241TIP3   OH246137   3.712   4.861   1.468  0.4910 -0.4164  0.0586
 8241TIP3    H146138   3.661   4.914   1.528 -0.3421 -3.7647  2.5827
 8241TIP3    H246139   3.665   4.866   1.385 -1.4852  0.0706  1.1490
 8242TIP3   OH246140   6.139   5.084   2.260 -0.6029 -0.0274 -0.1574
 8242TIP3    H146141   6.053   5.051   2.232 -0.4859 -0.6068  0.1473
 8242TIP3    H246142   6.196   5.008   2.257 -0.4624  0.0051  1.1113
 8243TIP3   OH246143   5.904   5.121  11.170 -0.1586 -1.4059  0.0729
 8243TIP3    H146144   5.958   5.109  11.092 -1.4050 -0.7220 -0.9400
 8243TIP3    H246145   5.868   5.034  11.189 -1.1866 -1.2719 -1.1580
 8244TIP3   OH246146   4.737   0.518   2.618 -0.2474  0.0465 -0.5332
 8244TIP3    H146147   4.789   0.597   2.632 -0.3508 -0.0478  0.5140
 8244TIP3    H246148   4.667   0.545   2.559 -0.2886  0.7406 -0.1715
 8245TIP3   OH246149   4.405   2.457  15.550  0.0483 -0.5773 -0.1454
 8245TIP3    H146150   4.492   2.472  15.514  0.3918  0.8203  1.1613
 8245TIP3    H246151   4.352   2.528  15.515  1.0306  2.5438  3.9406
 8246TIP3   OH246152   6.768   0.210   3.094  0.3346  0.1408 -0.0214
 8246TIP3    H146153   6.860   0.195   3.117 -0.6464 -2.7904  2.7443
 8246TIP3    H246154   6.742   0.133   3.045 -0.8991  0.4326  0.1193
 8247TIP3   OH246155   4.530   0.645   4.842  0.1539 -0.0160 -1.3788
 8247TIP3    H146156   4.511   0.619   4.751  1.5183 -1.4207 -1.3164
 8247TIP3    H246157   4.621   0.672   4.840 -0.5787  2.7261 -0.9304
 8248TIP3   OH246158   5.324   5.560  15.382 -0.0101  0.7227  0.1288
 8248TIP3    H146159   5.377   5.640  15.390  1.7532 -0.4168  0.4744
 8248TIP3    H246160   5.317   5.545  15.287 -0.6299  1.4446  0.0530
 8249TIP3   OH246161   5.302   6.344  12.269 -0.3749  0.0210  0.4266
 8249TIP3    H146162   5.221   6.367  12.314 -1.2302 -1.6243 -0.1869
 8249TIP3    H246163   5.304   6.401  12.192  0.7217  2.3215  2.0336
 8250TIP3   OH246164   5.987   4.423  14.910  0.4985 -0.8594 -0.3767
 8250TIP3    H146165   5.955   4.341  14.949 -0.7747  1.2667  3.5947
 8250TIP3    H246166   5.943   4.492  14.959  2.1110  2.3072 -2.9803
 8251TIP3   OH246167   4.246   2.469   1.624 -0.8416  0.1301  0.6187
 8251TIP3    H146168   4.235   2.477   1.719 -1.9368 -0.5276  0.5545
 8251TIP3    H246169   4.162   2.439   1.592  0.0171 -1.3810 -0.3585
 8252TIP3   OH246170   3.761   6.075   3.936  0.5362  0.0081 -0.6462
 8252TIP3    H146171   3.818   6.006   3.971 -0.3675 -0.4206  0.0422
 8252TIP3    H246172   3.694   6.087   4.004 -0.7106 -0.1585 -1.8053
 8253TIP3   OH246173   5.833   4.927   1.154  0.2051  0.4156 -0.2454
 8253TIP3    H146174   5.881   4.872   1.217 -0.4216  0.1561  0.0151
 8253TIP3    H246175   5.773   4.977   1.208 -0.5547 -0.0359 -0.6634
 8254TIP3   OH246176   6.330   2.812  13.507 -0.2139  0.3231  0.1218
 8254TIP3    H146177   6.240   2.810  13.476 -0.2472 -0.9036  0.2607
 8254TIP3    H246178   6.325   2.859  13.591 -0.6241  0.7752 -0.1506
 8255TIP3   OH246179   3.870   6.002   3.285  0.1191  0.0010  0.4033
 8255TIP3    H146180   3.866   6.035   3.195 -3.3313 -0.1725  0.3686
 8255TIP3    H246181   3.956   6.030   3.317  1.1984  0.6074 -2.7122
 8256TIP3   OH246182   6.209   4.930   4.537 -0.1153  0.6529 -0.2123
 8256TIP3    H146183   6.143   4.998   4.552 -0.9778 -0.0825 -0.6018
 8256TIP3    H246184   6.231   4.938   4.444  1.0007  1.4595  0.1010
 8257TIP3   OH246185   5.686   6.192   5.069  0.0477  0.3178 -0.2664
 8257TIP3    H146186   5.764   6.136   5.069 -0.8896 -1.1336  2.2938
 8257TIP3    H246187   5.625   6.147   5.011  0.1235 -0.0741 -0.0456
 8258TIP3   OH246188   2.880   1.108  15.932 -0.2564  0.2623  0.5617
 8258TIP3    H146189   2.889   1.123  15.837 -0.2975  0.2911  0.5624
 8258TIP3    H246190   2.936   1.033  15.949 -0.7148 -0.1194  0.4106
 8259TIP3   OH246191   3.748   1.738   2.390  0.3379 -0.5682 -0.2492
 8259TIP3    H146192   3.729   1.760   2.299 -0.1443 -2.0682 -0.5427
 8259TIP3    H246193   3.826   1.683   2.386 -0.2641 -1.4855  0.1125
 8260TIP3   OH246194   3.041   0.848  17.015  0.8795 -0.0070 -0.3034
 8260TIP3    H146195   3.040   0.868  17.108  2.2816 -0.8412 -0.0808
 8260TIP3    H246196   2.950   0.858  16.987  0.5159  0.6830  1.0476
 8261TIP3   OH246197   5.270   5.221   1.176 -0.9206  0.5667  0.0670
 8261TIP3    H146198   5.295   5.272   1.099  0.6514  0.2035  0.2999
 8261TIP3    H246199   5.241   5.287   1.239  1.1903  1.2581  0.4000
 8262TIP3   OH246200   2.009   2.275   2.413 -0.3194  0.1789 -0.2181
 8262TIP3    H146201   2.008   2.350   2.354  1.4454  1.0879  0.7995
 8262TIP3    H246202   1.943   2.296   2.479 -1.9500 -0.6158 -1.5284
 8263TIP3   OH246203   3.579   5.955  15.793  0.5381  0.5274 -0.5393
 8263TIP3    H146204   3.523   5.912  15.858  2.1128 -0.6326  0.1026
 8263TIP3    H246205   3.545   6.044  15.789 -1.2232 -0.0701 -0.0291
 8264TIP3   OH246206   3.074   2.922  11.163  0.6295 -0.7075 -0.2084
 8264TIP3    H146207   2.981   2.943  11.160  0.3754 -1.8224 -0.5561
 8264TIP3    H246208   3.103   2.929  11.072  0.6196 -1.4657 -0.2752
 8265TIP3   OH246209   6.351   0.727  13.331 -0.2333  0.1295 -0.4384
 8265TIP3    H146210   6.342   0.768  13.246 -0.6303 -1.1114 -1.0165
 8265TIP3    H246211   6.361   0.634  13.312 -2.2319 -0.4294  0.9256
 8266TIP3   OH246212   5.347   5.266   0.410  0.5073 -0.0932 -0.5531
 8266TIP3    H146213   5.356   5.178   0.448  0.2477 -0.3701 -1.1019
 8266TIP3    H246214   5.273   5.257   0.350  1.4360  0.0869 -1.7689
 8267TIP3   OH246215   0.111   0.435  12.617 -0.4757 -0.1254  0.0273
 8267TIP3    H146216   0.203   0.428  12.592 -0.7823 -0.0387 -1.1931
 8267TIP3    H246217   0.090   0.528  12.607 -1.2835 -0.4701 -2.0148
 8268TIP3   OH246218   3.206   6.345  12.633  0.1327 -0.1047  0.0175
 8268TIP3    H146219   3.170   6.378  12.551  1.0647  1.4889  0.1865
 8268TIP3    H246220   3.255   6.267  12.609  1.1744  0.8560 -1.1467
 8269TIP3   OH246221   0.730   3.889  15.383 -0.2901  0.0153 -0.3433
 8269TIP3    H146222   0.698   3.865  15.471 -1.3925 -2.0704 -1.2275
 8269TIP3    H246223   0.801   3.951  15.399  0.2653 -1.1299  2.0776
 8270TIP3   OH246224   4.304   4.094   3.959  0.4016 -0.0742 -0.1934
 8270TIP3    H146225   4.243   4.035   3.915  0.2942 -0.2304  0.1643
 8270TIP3    H246226   4.390   4.056   3.942  0.3878  0.0408 -0.5357
 8271TIP3   OH246227   3.928   0.241  14.087 -0.0211 -0.0897  0.1553
 8271TIP3    H146228   3.928   0.158  14.039  0.4393 -1.1811  1.9366
 8271TIP3    H246229   4.020   0.267  14.089 -0.1202  0.2734 -0.1057
 8272TIP3   OH246230   2.479   1.711  14.835 -0.1741 -0.7407 -0.0677
 8272TIP3    H146231   2.551   1.676  14.782  1.5493  0.4177  1.4099
 8272TIP3    H246232   2.462   1.643  14.899 -0.6886 -1.1804 -0.6590
 8273TIP3   OH246233   6.551   4.026  16.459  0.1947  0.5615  0.3326
 8273TIP3    H146234   6.502   3.997  16.536 -0.7601 -0.6100 -0.6606
 8273TIP3    H246235   6.610   3.953  16.439  0.7328  1.0268  0.1845
 8274TIP3   OH246236   1.825   1.346  13.364  0.4842 -0.0418  0.6639
 8274TIP3    H146237   1.776   1.388  13.435 -0.6785 -0.4057  0.0935
 8274TIP3    H246238   1.915   1.346  13.395  0.0856  0.3245  1.8988
 8275TIP3   OH246239   4.583   1.056  12.730 -0.4956 -0.1703  0.6361
 8275TIP3    H146240   4.644   1.076  12.659  1.2035  1.3734  2.3941
 8275TIP3    H246241   4.614   0.973  12.766 -0.0712  0.0702  0.8387
 8276TIP3   OH246242   3.825   5.936  11.244  0.6262 -0.2286  0.1355
 8276TIP3    H146243   3.868   5.892  11.317  0.8787  0.0152  0.1346
 8276TIP3    H246244   3.886   6.004  11.217  0.0754  0.3812  0.3968
 8277TIP3   OH246245   3.883   3.460   6.720 -0.0286  0.2113  0.3304
 8277TIP3    H146246   3.803   3.466   6.667  0.4497 -0.0042 -0.4315
 8277TIP3    H246247   3.893   3.548   6.757 -0.2315  0.4373 -0.1434
 8278TIP3   OH246248   3.943   3.759   5.549  0.4084  0.0100  0.0557
 8278TIP3    H146249   3.865   3.710   5.524  0.3294  0.7262 -1.1871
 8278TIP3    H246250   3.919   3.850   5.537  1.9407  0.2079 -2.0962
 8279TIP3   OH246251   1.125   2.931  16.197  0.0117 -0.0529  0.5576
 8279TIP3    H146252   1.089   2.843  16.202  0.9606 -0.5325 -0.5868
 8279TIP3    H246253   1.048   2.988  16.199 -0.6836 -0.9518  0.2163
 8280TIP3   OH246254   5.893   6.707   4.786  0.4242  0.2515  0.0642
 8280TIP3    H146255   5.913   6.682   4.695  0.4300 -0.8561  0.3585
 8280TIP3    H246256   5.834   6.639   4.817  0.9214  0.2759  1.0982
 8281TIP3   OH246257   1.209   4.007  14.692 -0.2048 -0.2746  0.5682
 8281TIP3    H146258   1.218   4.097  14.721  2.0090 -0.6265  1.1481
 8281TIP3    H246259   1.245   4.007  14.603 -2.8165 -0.0963 -0.5920
 8282TIP3   OH246260   6.050   3.157  11.891  0.3771 -0.1449  0.1691
 8282TIP3    H146261   6.109   3.114  11.954 -1.1187 -1.7659  0.5363
 8282TIP3    H246262   6.064   3.251  11.906  2.5451 -0.4533  0.5139
 8283TIP3   OH246263   2.643   0.672  14.444 -0.1799 -0.4602  0.9771
 8283TIP3    H146264   2.589   0.737  14.400 -0.4613 -0.8627  0.7127
 8283TIP3    H246265   2.635   0.593  14.389  1.8288 -0.1386  0.1249
 8284TIP3   OH246266   2.245   3.198   0.498 -0.0113  0.4487  0.3322
 8284TIP3    H146267   2.302   3.122   0.509  0.3308  0.5755 -0.5318
 8284TIP3    H246268   2.193   3.201   0.579 -2.4202 -2.6927 -0.8686
 8285TIP3   OH246269   2.922   5.567  15.019 -0.0636 -0.1936 -0.3359
 8285TIP3    H146270   2.971   5.488  14.999  2.1552  1.0169  0.0291
 8285TIP3    H246271   2.929   5.577  15.114 -0.0046  0.6159 -0.4118
 8286TIP3   OH246272   5.717   3.194   6.378 -0.3175 -0.4378 -0.4425
 8286TIP3    H146273   5.787   3.132   6.400  1.1671  0.8574 -1.3415
 8286TIP3    H246274   5.758   3.257   6.319 -1.8282  1.2791  0.2514
 8287TIP3   OH246275   6.028   5.108  12.346 -0.2066 -0.2735 -0.0196
 8287TIP3    H146276   6.046   5.045  12.416 -1.2921 -0.4784  0.0971
 8287TIP3    H246277   5.938   5.135  12.360 -0.0429  0.6413 -0.6065
 8288TIP3   OH246278   2.742   6.474   2.925 -0.1143  0.9302 -0.0349
 8288TIP3    H146279   2.813   6.424   2.967  0.4205  2.2493  0.7096
 8288TIP3    H246280   2.668   6.464   2.985  0.0076  1.0770  0.1418
 8289TIP3   OH246281   1.330   3.033  12.538  1.1764  0.3033 -0.4566
 8289TIP3    H146282   1.240   3.002  12.552  2.0387 -0.8296  4.9025
 8289TIP3    H246283   1.375   2.958  12.500  0.5118 -0.3600  0.0199
 8290TIP3   OH246284   1.252   0.549  11.976 -0.3207  0.1010  0.1693
 8290TIP3    H146285   1.322   0.559  12.041 -0.3515  0.3112  0.1702
 8290TIP3    H246286   1.214   0.464  11.994 -0.5645  0.3137  0.6567
 8291TIP3   OH246287   1.384   0.746  16.493  0.1095  0.1966 -0.0662
 8291TIP3    H146288   1.305   0.785  16.531  0.1126 -0.6778  0.8833
 8291TIP3    H246289   1.456   0.785  16.543  0.1743 -0.1942  0.1498
 8292TIP3   OH246290   1.401   3.050   0.226 -0.1339  0.3768  0.3960
 8292TIP3    H146291   1.449   2.975   0.261 -0.9599  0.1488  1.1135
 8292TIP3    H246292   1.455   3.084   0.155  1.2045  0.3078  1.3416
 8293TIP3   OH246293   3.082   2.219  14.246  0.2717 -0.0972 -0.6015
 8293TIP3    H146294   3.159   2.254  14.202  0.4214  2.1788  1.2749
 8293TIP3    H246295   3.050   2.292  14.299 -2.4414 -1.3641 -0.3334
 8294TIP3   OH246296   2.196   1.280  12.236  0.6699  0.0279 -0.3640
 8294TIP3    H146297   2.106   1.266  12.266  1.1084 -0.5674  0.7342
 8294TIP3    H246298   2.193   1.363  12.188 -0.0143  1.2221  1.6249
 8295TIP3   OH246299   6.328   5.018   5.580 -0.5072 -0.0092  0.2354
 8295TIP3    H146300   6.273   5.034   5.657 -0.0816 -0.9965  0.7753
 8295TIP3    H246301   6.418   5.017   5.615 -0.4057 -2.3465  0.1190
 8296TIP3   OH246302   5.630   1.667  16.181  0.2661  0.0173  0.2986
 8296TIP3    H146303   5.547   1.702  16.213 -0.1814 -1.5090  0.8964
 8296TIP3    H246304   5.636   1.699  16.091  0.2169  2.1281  0.9838
 8297TIP3   OH246305   2.666   4.125  11.951  0.2657 -0.7002 -0.2608
 8297TIP3    H146306   2.661   4.032  11.930  0.5897 -0.5671 -0.9582
 8297TIP3    H246307   2.660   4.129  12.046 -0.4939 -1.3811 -0.2731
 8298TIP3   OH246308   4.035   2.803   2.236  0.8320 -0.4914 -0.1340
 8298TIP3    H146309   4.079   2.719   2.225  0.8677 -0.3473 -1.1941
 8298TIP3    H246310   4.074   2.859   2.169  0.4010  0.2047  0.1878
 8299TIP3   OH246311   0.074   2.802   4.059 -0.3327  0.7011  0.4737
 8299TIP3    H146312   0.169   2.790   4.055 -0.1657  2.0580 -0.3004
 8299TIP3    H246313   0.061   2.863   4.131 -0.4787  1.6211 -0.3190
 8300TIP3   OH246314   0.426   3.745  13.492  0.7592 -0.0612  0.5397
 8300TIP3    H146315   0.464   3.800  13.561 -2.3024 -1.5312  3.7345
 8300TIP3    H246316   0.346   3.790  13.466  0.0468 -1.2194  0.6139
 8301TIP3   OH246317   2.098   6.632   0.484 -0.4758  0.0740 -0.4916
 8301TIP3    H146318   2.111   6.615   0.577 -2.4241 -3.3137 -0.6872
 8301TIP3    H246319   2.088   6.727   0.478  2.9335  0.8012  2.1923
 8302TIP3   OH246320   2.674   0.092   2.770 -0.4636 -0.6252  0.4416
 8302TIP3    H146321   2.721   0.136   2.841 -0.5406 -1.4580  1.0212
 8302TIP3    H246322   2.736   0.092   2.697 -0.8922  1.5132  0.0059
 8303TIP3   OH246323   0.837   0.499  16.685 -0.0039  0.7856  0.0088
 8303TIP3    H146324   0.773   0.438  16.649  0.8044  0.4359 -0.8752
 8303TIP3    H246325   0.844   0.475  16.778  0.1843 -0.3823 -0.2921
 8304TIP3   OH246326   2.827   1.677  12.590 -0.0636 -0.3930 -0.3312
 8304TIP3    H146327   2.803   1.769  12.576 -0.2644 -0.5156 -0.8121
 8304TIP3    H246328   2.923   1.679  12.598  0.0165 -0.2485 -1.2508
 8305TIP3   OH246329   6.709   5.488  12.643  1.0747  0.1224 -0.3082
 8305TIP3    H146330   6.686   5.404  12.684 -1.7027  0.1975 -1.5100
 8305TIP3    H246331   6.718   5.467  12.550 -0.8714  1.2941 -0.8117
 8306TIP3   OH246332   2.210   0.342  15.336 -0.0618  0.2155 -0.0286
 8306TIP3    H146333   2.187   0.349  15.429  1.9691 -0.5248  0.5927
 8306TIP3    H246334   2.130   0.312  15.293 -0.5753 -1.1631  1.7676
 8307TIP3   OH246335   5.246   2.554  12.073  0.5692  0.3753 -0.3837
 8307TIP3    H146336   5.290   2.590  11.996 -0.1295 -0.9548 -1.4445
 8307TIP3    H246337   5.212   2.469  12.044  0.0990 -0.0630  1.3344
 8308TIP3   OH246338   2.967   1.641  15.690 -0.2307  0.5486  0.1723
 8308TIP3    H146339   2.967   1.560  15.639 -1.5018  1.1813 -0.8796
 8308TIP3    H246340   3.056   1.647  15.725  0.3317 -0.5204 -0.9827
 8309TIP3   OH246341   0.399   2.825  15.549 -0.0368 -0.9693 -0.0203
 8309TIP3    H146342   0.373   2.850  15.638 -0.6798 -0.4069 -0.3517
 8309TIP3    H246343   0.472   2.883  15.529 -0.7005 -0.2162 -0.3124
 8310TIP3   OH246344   3.511   2.694   1.793 -0.5064 -0.1349 -0.1666
 8310TIP3    H146345   3.606   2.704   1.803 -0.3634  0.4862 -1.7654
 8310TIP3    H246346   3.474   2.755   1.856  0.1035 -1.1119  1.2016
 8311TIP3   OH246347   4.219   5.927   3.945 -0.4780 -0.6822 -0.5454
 8311TIP3    H146348   4.219   5.831   3.952  0.1017 -0.7954 -1.8303
 8311TIP3    H246349   4.271   5.945   3.867  1.3492  0.7650  0.8844
 8312TIP3   OH246350   6.254   0.061  11.239  0.4921  0.2765  0.0409
 8312TIP3    H146351   6.258   0.156  11.255  0.4777  0.8136 -2.6726
 8312TIP3    H246352   6.265   0.052  11.145 -0.2352 -2.4117  0.1254
 8313TIP3   OH246353   0.681   6.103  14.655 -0.3616 -0.3417  0.3033
 8313TIP3    H146354   0.694   6.009  14.666 -0.6061 -0.6502 -1.6345
 8313TIP3    H246355   0.744   6.128  14.587 -0.2402  0.9140  0.8582
 8314TIP3   OH246356   4.185   2.774  14.364 -0.3956 -0.4051  0.3229
 8314TIP3    H146357   4.179   2.805  14.274  1.1519 -1.0269 -0.0201
 8314TIP3    H246358   4.141   2.689  14.363 -0.4155 -0.3928  0.1608
 8315TIP3   OH246359   5.712   4.297  11.901 -0.6453 -0.2946  0.4607
 8315TIP3    H146360   5.665   4.284  11.983 -1.5201  0.2343  0.0537
 8315TIP3    H246361   5.753   4.383  11.910  0.2908 -0.7620  0.8222
 8316TIP3   OH246362   3.011   0.626  12.315 -0.3142  0.3893 -0.5359
 8316TIP3    H146363   3.100   0.616  12.282 -0.0131 -1.0098  0.5950
 8316TIP3    H246364   2.955   0.606  12.239  0.3437 -0.5699 -0.7900
 8317TIP3   OH246365   0.780   4.188  16.299  0.2159 -0.0850  0.6400
 8317TIP3    H146366   0.861   4.191  16.247 -0.5052 -1.4122 -0.6445
 8317TIP3    H246367   0.742   4.275  16.288  1.4159  0.5334  1.1996
 8318TIP3   OH246368   4.150   0.477  16.567 -0.3840  0.0384 -0.2634
 8318TIP3    H146369   4.064   0.497  16.604  0.1052 -0.9757  1.5196
 8318TIP3    H246370   4.144   0.385  16.540  0.0583  0.0302 -0.3422
 8319TIP3   OH246371   1.387   5.679  10.699  0.5722  0.6471 -0.1351
 8319TIP3    H146372   1.379   5.699  10.606  0.4364  0.3415 -0.1905
 8319TIP3    H246373   1.320   5.732  10.742 -1.3505 -1.3311 -0.5123
 8320TIP3   OH246374   4.827   4.221  16.405  0.0368 -0.3272  0.0765
 8320TIP3    H146375   4.912   4.200  16.443 -0.1943 -1.1903  0.1306
 8320TIP3    H246376   4.789   4.136  16.382 -0.8297  0.0420  0.0991
 8321TIP3   OH246377   4.914   3.341   4.956  0.4966 -0.0992  0.6563
 8321TIP3    H146378   4.965   3.390   4.891  0.5851  0.0807  0.8607
 8321TIP3    H246379   4.974   3.330   5.030 -0.0513  0.9276  1.2758
 8322TIP3   OH246380   5.428   3.017  12.786  0.2289  0.0104  0.2610
 8322TIP3    H146381   5.472   3.059  12.712 -0.2937  1.5065  0.7633
 8322TIP3    H246382   5.471   3.054  12.863 -1.5789  1.2292  0.7618
 8323TIP3   OH246383   6.530   1.363  11.812  0.0864 -0.7096 -0.0855
 8323TIP3    H146384   6.444   1.394  11.785 -0.0169  0.7434  1.7058
 8323TIP3    H246385   6.513   1.305  11.885  0.6324  0.4203  0.9803
 8324TIP3   OH246386   1.913   6.785   0.198 -0.1383  0.4157 -0.6731
 8324TIP3    H146387   2.001   6.793   0.160  0.9132 -1.2591  1.1745
 8324TIP3    H246388   1.877   6.706   0.157 -0.5723  0.7963 -1.0287
 8325TIP3   OH246389   0.125   6.444  13.024  0.3041 -0.2419 -0.0524
 8325TIP3    H146390   0.063   6.371  13.023  0.9748 -0.8315  0.3379
 8325TIP3    H246391   0.096   6.501  12.953 -0.8420 -0.3697  0.2829
 8326TIP3   OH246392   2.320   2.055   5.983 -0.0095  0.0556  0.1493
 8326TIP3    H146393   2.398   2.090   5.939  0.6712 -0.8452  0.6026
 8326TIP3    H246394   2.349   2.041   6.073 -0.2068 -1.7656 -0.0329
 8327TIP3   OH246395   6.472   0.659   1.390  0.2354  0.5540 -0.0594
 8327TIP3    H146396   6.549   0.606   1.371 -0.9204 -0.4507 -2.2504
 8327TIP3    H246397   6.431   0.673   1.305 -2.2866  0.6085  1.0831
 8328TIP3   OH246398   0.265   6.487   2.015  0.4263 -0.1412  0.0620
 8328TIP3    H146399   0.260   6.445   2.101 -0.8815 -0.0464  0.0550
 8328TIP3    H246400   0.175   6.484   1.982  0.6361  1.1083 -0.6803
 8329TIP3   OH246401   5.048   1.445   3.366  0.2534  0.1557 -0.3399
 8329TIP3    H146402   4.958   1.478   3.371  0.7033  1.5274 -0.7704
 8329TIP3    H246403   5.093   1.488   3.439  0.8057  0.3312 -0.7782
 8330TIP3   OH246404   4.719   2.715   2.902 -0.0781  0.9487  0.3464
 8330TIP3    H146405   4.720   2.692   2.995 -2.9613  2.1298  0.7928
 8330TIP3    H246406   4.801   2.763   2.889  0.3954  0.7838  2.2870
 8331TIP3   OH246407   5.484   0.308   5.000  0.0379  0.4837  0.3395
 8331TIP3    H146408   5.431   0.274   5.072  0.1932 -1.2525 -0.3216
 8331TIP3    H246409   5.432   0.380   4.964 -2.2305 -1.4764 -0.6255
 8332TIP3   OH246410   2.799   2.260  14.121  0.3274  0.1211  0.0532
 8332TIP3    H146411   2.835   2.346  14.099  1.1965  0.1596  1.5065
 8332TIP3    H246412   2.797   2.213  14.038 -0.4089  1.6177 -0.8261
 8333TIP3   OH246413   5.711   3.861  14.496  0.2086  0.6845 -0.5573
 8333TIP3    H146414   5.686   3.914  14.420  1.3652  1.5228 -0.3977
 8333TIP3    H246415   5.795   3.822  14.470  1.2463  1.9527  0.6862
 8334TIP3   OH246416   1.497   4.976  12.522 -0.1876  0.2539  0.4727
 8334TIP3    H146417   1.548   5.027  12.585 -0.0510 -0.4229  0.9246
 8334TIP3    H246418   1.416   4.955  12.569 -0.9052  1.3402 -0.2447
 8335TIP3   OH246419   4.058   6.145   4.267  0.3908 -0.4182  0.0553
 8335TIP3    H146420   4.055   6.186   4.353 -1.7185  0.0484 -0.1743
 8335TIP3    H246421   4.080   6.217   4.207 -1.4742  0.0540 -0.1320
 8336TIP3   OH246422   4.621   0.954  13.209  0.1115 -0.1584  0.5409
 8336TIP3    H146423   4.650   0.935  13.298  0.4036 -1.3901  0.1962
 8336TIP3    H246424   4.546   0.896  13.195  0.5411 -0.5345 -0.2768
 8337TIP3   OH246425   6.359   0.264   5.081 -0.9020  0.6762  0.6176
 8337TIP3    H146426   6.317   0.181   5.062 -0.4251  0.4290  0.6355
 8337TIP3    H246427   6.431   0.271   5.018  0.9600 -0.3535  2.5042
 8338TIP3   OH246428   4.173   6.627  14.112  0.5541 -0.2775  0.3234
 8338TIP3    H146429   4.210   6.544  14.141  0.8099 -0.7178 -1.1472
 8338TIP3    H246430   4.088   6.604  14.075  1.2318 -0.1726 -1.4374
 8339TIP3   OH246431   4.067   3.322   5.234 -0.3476 -0.2578 -0.2432
 8339TIP3    H146432   4.067   3.296   5.142  0.4095 -0.5397 -0.1704
 8339TIP3    H246433   4.037   3.244   5.281 -2.7522  0.5091 -0.3907
 8340TIP3   OH246434   0.488   3.578  15.586 -0.3662 -0.8160 -0.1901
 8340TIP3    H146435   0.538   3.497  15.586 -0.3188 -0.8812 -2.6067
 8340TIP3    H246436   0.519   3.625  15.508 -1.2106  0.9882  0.5004
 8341TIP3   OH246437   4.257   4.457  15.203 -0.2476 -0.0099  0.0071
 8341TIP3    H146438   4.261   4.509  15.283  0.1340  1.8767 -1.1763
 8341TIP3    H246439   4.167   4.466  15.172 -0.2755 -0.3531 -0.0187
 8342TIP3   OH246440   6.721   4.213  14.874  0.5427  0.0920  0.3367
 8342TIP3    H146441   6.796   4.255  14.832  1.2833 -0.1283  1.3821
 8342TIP3    H246442   6.758   4.136  14.917  0.1554  1.1354  2.6964
 8343TIP3   OH246443   1.114   0.918   4.853 -0.4980  0.0809  0.1558
 8343TIP3    H146444   1.115   0.958   4.940 -2.3750  0.4527  0.0642
 8343TIP3    H246445   1.051   0.970   4.803  0.1354 -0.4571 -1.2753
 8344TIP3   OH246446   5.725   4.150  16.487  0.2358  0.2338  0.1308
 8344TIP3    H146447   5.756   4.216  16.426  0.1990  0.0165 -0.1259
 8344TIP3    H246448   5.745   4.066  16.444 -0.8586  0.0841 -0.1308
 8345TIP3   OH246449   2.081   3.850  14.362 -0.4208 -0.0152 -0.5942
 8345TIP3    H146450   2.087   3.929  14.309 -1.1297  1.6834  1.7097
 8345TIP3    H246451   2.170   3.836  14.395 -0.6110  0.8698  0.3521
 8346TIP3   OH246452   4.209   3.028   2.411  0.4000 -0.2400  0.3932
 8346TIP3    H146453   4.154   3.056   2.484  1.3141  2.1102  0.2665
 8346TIP3    H246454   4.214   2.933   2.419 -2.9611 -0.4983  0.8878
 8347TIP3   OH246455   4.051   3.542  11.233  0.3448  0.1149  0.1473
 8347TIP3    H146456   4.056   3.533  11.138  1.2712 -0.0205  0.1936
 8347TIP3    H246457   3.958   3.535  11.254  0.0632  0.8134 -0.8102
 8348TIP3   OH246458   3.125   0.105   4.938 -0.4600 -0.0332  0.7249
 8348TIP3    H146459   3.070   0.029   4.960 -1.1794  0.7739  1.7800
 8348TIP3    H246460   3.113   0.165   5.011  2.4634 -0.1292  1.3698
 8349TIP3   OH246461   0.308   2.968   3.906 -0.0264  0.4152 -0.0050
 8349TIP3    H146462   0.387   3.015   3.880  0.0208  0.9994  1.1546
 8349TIP3    H246463   0.242   3.037   3.915 -0.0371  0.2389  1.4175
 8350TIP3   OH246464   4.892   2.604   4.951  0.0995 -0.1285 -0.7450
 8350TIP3    H146465   4.889   2.689   4.907  0.7428 -0.4908 -1.5215
 8350TIP3    H246466   4.982   2.597   4.983  0.1666 -0.6729 -1.0291
 8351TIP3   OH246467   6.570   3.041   2.244 -0.4198  0.4115 -0.3340
 8351TIP3    H146468   6.644   3.069   2.298 -0.6231 -1.5966  1.1020
 8351TIP3    H246469   6.497   3.032   2.305 -1.0059 -0.6834 -1.1477
 8352TIP3   OH246470   3.188   1.190  13.011 -0.1477 -0.2371  0.4112
 8352TIP3    H146471   3.254   1.220  13.073  2.1441 -2.1777 -0.8929
 8352TIP3    H246472   3.210   1.233  12.929  0.1000 -1.5400 -0.2438
 8353TIP3   OH246473   3.859   1.865   0.702  0.1252 -0.0318  0.5670
 8353TIP3    H146474   3.939   1.917   0.701 -0.2256  0.5339 -0.5621
 8353TIP3    H246475   3.811   1.896   0.779  1.0314 -0.4520  1.3102
 8354TIP3   OH246476   4.054   6.442  15.461  0.5078  0.1905 -0.5576
 8354TIP3    H146477   4.000   6.418  15.386  0.6073 -0.5191 -0.4085
 8354TIP3    H246478   4.012   6.401  15.536  2.1338 -1.8293 -0.6501
 8355TIP3   OH246479   1.220   4.026   4.920  0.4663 -0.0015  0.0958
 8355TIP3    H146480   1.261   4.105   4.958  3.1871 -0.7864 -0.9692
 8355TIP3    H246481   1.176   4.058   4.841 -1.4607  0.9281  1.4597
 8356TIP3   OH246482   6.645   1.895   3.880  0.1329  0.3733  0.1577
 8356TIP3    H146483   6.612   1.960   3.818 -0.2388  0.9413  0.9404
 8356TIP3    H246484   6.663   1.945   3.959 -2.1666 -0.7844  1.5147
 8357TIP3   OH246485   4.615   0.580  10.918 -0.0501  0.1499  0.3292
 8357TIP3    H146486   4.600   0.556  11.009  0.2691  2.6972  1.1333
 8357TIP3    H246487   4.703   0.619  10.917  0.6792 -1.3797 -1.4440
 8358TIP3   OH246488   6.136   3.929   1.289 -0.1125 -0.5453 -0.0824
 8358TIP3    H146489   6.176   4.015   1.277 -1.7964  0.1816 -0.7526
 8358TIP3    H246490   6.209   3.871   1.309  0.8995  1.3711  2.3311
 8359TIP3   OH246491   2.667   5.042   5.260  0.0057  0.1588  0.3779
 8359TIP3    H146492   2.696   5.124   5.299 -0.2273 -0.1827  1.2853
 8359TIP3    H246493   2.575   5.057   5.240  0.3099  0.5933 -0.7638
 8360TIP3   OH246494   0.892   2.809   1.978  0.1744  0.1819  0.1689
 8360TIP3    H146495   0.962   2.746   1.997  0.5059  0.7305  0.7868
 8360TIP3    H246496   0.814   2.755   1.967  0.4308 -0.3365  0.8254
 8361TIP3   OH246497   0.092   6.438  12.544  0.6777 -0.2599 -0.3608
 8361TIP3    H146498   0.160   6.431  12.477  1.8860 -0.0857  0.8068
 8361TIP3    H246499   0.104   6.361  12.599  0.6074  0.3002  0.4640
 8362TIP3   OH246500   5.833   0.658   1.493 -0.0456  0.2863 -0.0566
 8362TIP3    H146501   5.844   0.597   1.420 -2.6708  1.2437 -1.3882
 8362TIP3    H246502   5.754   0.707   1.471 -0.2888  1.4089  2.9220
 8363TIP3   OH246503   6.811   6.747   2.013 -0.7922  0.6624 -0.3352
 8363TIP3    H146504   6.813   6.791   1.929  0.0509  0.2123 -0.5602
 8363TIP3    H246505   6.819   6.654   1.992  0.8518  0.6240  0.2944
 8364TIP3   OH246506   5.395   6.153   2.472  0.1511  0.0361 -0.0465
 8364TIP3    H146507   5.358   6.097   2.404  0.5317  1.4254 -1.4642
 8364TIP3    H246508   5.489   6.156   2.452  0.4139 -0.2502  1.0982
 8365TIP3   OH246509   2.846   4.072  12.618 -0.1192  0.2099 -0.0981
 8365TIP3    H146510   2.805   4.115  12.543 -0.2795  1.0670  0.4578
 8365TIP3    H246511   2.909   4.011  12.580 -1.9185 -1.2027 -0.9812
 8366TIP3   OH246512   2.678   2.294   3.445 -0.7942  0.6051 -0.3074
 8366TIP3    H146513   2.772   2.302   3.454 -0.9557  0.0625  3.2269
 8366TIP3    H246514   2.659   2.203   3.467 -2.1561  0.6147 -1.2921
 8367TIP3   OH246515   3.452   6.814  14.564 -0.0380 -0.2654 -0.1574
 8367TIP3    H146516   3.411   6.735  14.528 -0.0340 -0.6376  0.6227
 8367TIP3    H246517   3.438   6.881  14.498 -1.5232 -0.4959 -0.0936
 8368TIP3   OH246518   1.154   1.033  11.646  0.3016  0.2562 -0.7907
 8368TIP3    H146519   1.086   1.004  11.586 -0.1749  0.4534 -0.3528
 8368TIP3    H246520   1.117   1.108  11.691 -0.0651 -0.9515  1.0406
 8369TIP3   OH246521   4.742   2.150  15.577  0.2827 -0.0809 -0.3571
 8369TIP3    H146522   4.660   2.101  15.571  0.9746 -1.4841  0.8646
 8369TIP3    H246523   4.809   2.083  15.589  1.7544  0.9780 -2.1369
 8370TIP3   OH246524   1.086   2.282  14.343  0.3742 -0.4848  0.4138
 8370TIP3    H146525   0.995   2.309  14.328  0.1409 -1.8506 -0.8819
 8370TIP3    H246526   1.108   2.320  14.428 -1.2664  0.2382  0.5661
 8371TIP3   OH246527   1.609   3.737   3.019  0.5239  0.7830  0.0974
 8371TIP3    H146528   1.691   3.772   2.985  0.7657 -0.9524 -1.2308
 8371TIP3    H246529   1.624   3.643   3.028 -1.4863  0.3128 -0.7812
 8372TIP3   OH246530   5.979   6.222  13.884  0.0760  0.0764 -0.6278
 8372TIP3    H146531   6.065   6.214  13.924 -0.6884  0.8544  1.3035
 8372TIP3    H246532   5.948   6.131  13.877  0.4592 -0.1173  0.0521
 8373TIP3   OH246533   1.430   6.330   4.691 -0.3376 -0.4971  0.2459
 8373TIP3    H146534   1.450   6.237   4.683  0.4556 -0.4674  1.7206
 8373TIP3    H246535   1.335   6.333   4.699 -0.5736 -1.0026 -1.7912
 8374TIP3   OH246536   5.239   2.817  10.249 -0.2968  0.1134 -0.1226
 8374TIP3    H146537   5.259   2.783  10.162  2.5456  1.7562 -0.2226
 8374TIP3    H246538   5.158   2.772  10.274  0.3120 -2.5520 -2.4120
 8375TIP3   OH246539   0.872   6.552  13.255 -0.5132  0.2920 -0.6108
 8375TIP3    H146540   0.852   6.589  13.341  1.8774 -0.4381  0.3442
 8375TIP3    H246541   0.883   6.458  13.271 -1.0593 -0.0215 -1.9351
 8376TIP3   OH246542   2.053   1.146  13.606 -0.0780 -0.1870  0.2493
 8376TIP3    H146543   2.021   1.213  13.667 -0.7733 -0.6059  0.3567
 8376TIP3    H246544   2.069   1.194  13.525 -1.7316 -0.0758 -0.0472
 8377TIP3   OH246545   6.576   1.584   1.271 -0.4014 -0.2192 -0.3969
 8377TIP3    H146546   6.510   1.638   1.228 -0.0307  1.0470  0.5577
 8377TIP3    H246547   6.547   1.494   1.256 -2.0955  0.2900 -0.3733
 8378TIP3   OH246548   2.802   3.512  13.546  0.3652  0.2953 -0.0492
 8378TIP3    H146549   2.830   3.594  13.588 -0.0162  0.9529 -1.0427
 8378TIP3    H246550   2.716   3.533  13.510  1.2889  0.2262 -2.4325
 8379TIP3   OH246551   2.801   0.107   1.917  0.1407 -0.1011 -0.0140
 8379TIP3    H146552   2.809   0.181   1.856  0.9071  0.2296  0.4758
 8379TIP3    H246553   2.725   0.058   1.885 -1.0854  1.4986  0.2825
 8380TIP3   OH246554   6.163   6.303  12.556  0.4579 -0.3259  0.0723
 8380TIP3    H146555   6.136   6.322  12.645  2.0908 -1.0516  0.7653
 8380TIP3    H246556   6.255   6.329  12.552  0.4068 -0.2593 -1.4176
 8381TIP3   OH246557   2.216   1.865  16.432 -0.4018 -0.0589  0.6498
 8381TIP3    H146558   2.178   1.890  16.347  1.0925 -0.6324 -0.2198
 8381TIP3    H246559   2.141   1.833  16.483 -1.3181  0.2214 -0.4760
 8382TIP3   OH246560   4.954   4.815  17.002 -0.6242 -0.0552 -0.2385
 8382TIP3    H146561   4.943   4.745  16.938  0.1361 -0.9093  0.5323
 8382TIP3    H246562   4.899   4.887  16.969 -0.1082 -0.3869 -1.9417
 8383TIP3   OH246563   5.029   6.226  15.926 -0.1032  0.3127 -0.4762
 8383TIP3    H146564   5.071   6.311  15.940  0.7130 -0.3031  1.1445
 8383TIP3    H246565   4.937   6.247  15.911 -0.1059  1.4682  0.8559
 8384TIP3   OH246566   2.504   3.459   4.745  0.5344 -0.7955 -0.6092
 8384TIP3    H146567   2.410   3.444   4.751  0.9819 -3.4790  1.8121
 8384TIP3    H246568   2.517   3.547   4.781 -0.9062 -1.1723  0.9374
 8385TIP3   OH246569   6.785   1.313   1.443  0.2261 -0.2348  0.5195
 8385TIP3    H146570   6.691   1.306   1.457  0.2297 -0.8954  0.2745
 8385TIP3    H246571   6.820   1.344   1.527 -0.1523 -0.5378  0.7914
 8386TIP3   OH246572   6.495   1.710   1.975 -0.0829  0.2846  0.4710
 8386TIP3    H146573   6.491   1.629   1.925 -0.6537 -0.3367  1.4975
 8386TIP3    H246574   6.475   1.779   1.911  0.3300 -0.3821 -0.3850
 8387TIP3   OH246575   0.481   5.712  13.949 -0.2143 -0.2714 -0.2361
 8387TIP3    H146576   0.400   5.762  13.955 -1.5638 -1.9965 -2.4883
 8387TIP3    H246577   0.525   5.746  13.871  0.5856 -0.2319  0.2225
 8388TIP3   OH246578   5.393   0.021  11.467  0.3137  0.2935 -0.2233
 8388TIP3    H146579   5.320   0.040  11.525 -0.1957 -0.9798 -0.4273
 8388TIP3    H246580   5.368   0.061  11.383  0.2490  0.5844 -0.0694
 8389TIP3   OH246581   5.799   1.289   6.051 -0.4211  0.4111 -0.2410
 8389TIP3    H146582   5.775   1.305   6.142  1.3155  0.9639  0.1488
 8389TIP3    H246583   5.866   1.221   6.055 -1.2513 -0.5036 -1.2301
 8390TIP3   OH246584   0.897   4.280  13.120 -0.0824  0.3166 -0.1252
 8390TIP3    H146585   0.940   4.350  13.169  0.6452 -0.4469  0.3688
 8390TIP3    H246586   0.960   4.208  13.121 -1.6365 -1.1087  1.2228
 8391TIP3   OH246587   0.016   4.327  14.481  0.7346 -0.1342  0.0085
 8391TIP3    H146588   0.010   4.233  14.499 -0.1829 -0.3860 -1.4513
 8391TIP3    H246589  -0.063   4.346  14.430  1.2115  1.3142 -0.2095
 8392TIP3   OH246590   3.239   5.534  16.655 -0.7120  0.3593  0.9696
 8392TIP3    H146591   3.205   5.472  16.590 -2.1734  2.8905 -0.8408
 8392TIP3    H246592   3.167   5.544  16.718 -1.4483  1.9029 -0.0564
 8393TIP3   OH246593   4.974   0.697   0.020 -0.6702 -0.4707  0.1508
 8393TIP3    H146594   5.014   0.691  -0.067  0.0222 -1.0929  0.5042
 8393TIP3    H246595   5.046   0.683   0.081 -1.1694 -0.1394  0.8337
 8394TIP3   OH246596   1.745   6.096   2.286 -0.0444  0.3894 -0.2381
 8394TIP3    H146597   1.678   6.047   2.239  1.0085 -2.4114  0.9386
 8394TIP3    H246598   1.722   6.085   2.379 -0.1038  2.7384  0.0812
 8395TIP3   OH246599   5.802   6.689  13.039  0.1811  0.3915 -0.2950
 8395TIP3    H146600   5.808   6.764  12.979 -0.7769  1.8256  1.2978
 8395TIP3    H246601   5.860   6.712  13.111  2.3307 -1.8909 -1.1179
 8396TIP3   OH246602   2.200   4.997   1.849 -0.3360  0.1197 -0.1281
 8396TIP3    H146603   2.259   5.061   1.889  0.7033 -1.2632  0.6315
 8396TIP3    H246604   2.112   5.031   1.865  0.1985  1.5462 -0.1062
 8397TIP3   OH246605   1.943   0.283  11.226  0.5976 -0.5217  0.2398
 8397TIP3    H146606   1.858   0.251  11.256 -0.4232  1.7627 -0.0529
 8397TIP3    H246607   1.989   0.204  11.198 -2.0721 -1.7009 -1.2240
 8398TIP3   OH246608   0.125   2.938   2.341 -0.1475 -0.7229 -0.1036
 8398TIP3    H146609   0.062   2.992   2.389  0.3488  0.3290 -0.6057
 8398TIP3    H246610   0.205   2.991   2.338 -0.1355 -0.7880 -2.0102
 8399TIP3   OH246611   0.223   2.035  13.709  0.0629 -0.2614  0.3181
 8399TIP3    H146612   0.303   2.074  13.676 -1.1996  0.9458 -1.4884
 8399TIP3    H246613   0.183   2.103  13.763 -0.1066 -0.6001  0.6264
 8400TIP3   OH246614   5.180   5.126  16.582  0.1059  0.4382 -0.2816
 8400TIP3    H146615   5.086   5.107  16.575  0.3470 -0.4033 -1.5692
 8400TIP3    H246616   5.213   5.118  16.492  1.2842  1.4737  0.0286
 8401TIP3   OH246617   3.867   4.209  15.272  0.0586 -0.1791 -0.1655
 8401TIP3    H146618   3.857   4.121  15.307 -2.4667  1.1661  2.9818
 8401TIP3    H246619   3.950   4.240  15.309 -0.2871 -0.3933  0.8074
 8402TIP3   OH246620   1.113   3.830   3.682  0.5503 -0.4687 -0.1202
 8402TIP3    H146621   1.105   3.920   3.651  0.1254 -0.4245  0.1049
 8402TIP3    H246622   1.123   3.838   3.777 -0.0863 -0.6769 -0.0254
 8403TIP3   OH246623   3.215   3.260  14.414 -0.6695 -0.0212 -0.1388
 8403TIP3    H146624   3.239   3.288  14.326  0.0442 -1.5431 -0.4582
 8403TIP3    H246625   3.281   3.194  14.437 -2.5096 -1.7665  0.3683
 8404TIP3   OH246626   0.079   0.836  10.142 -0.1060 -0.0795  0.0169
 8404TIP3    H146627   0.053   0.903  10.205 -0.2925  0.1563 -0.3052
 8404TIP3    H246628   0.078   0.754  10.192  2.4035  0.4220  1.0501
 8405TIP3   OH246629   0.739   6.470   0.722  0.5806 -0.1849  0.0307
 8405TIP3    H146630   0.769   6.560   0.731  1.1147 -0.4167  0.7540
 8405TIP3    H246631   0.816   6.422   0.692  0.2587 -0.3742 -0.4980
 8406TIP3   OH246632   6.509   0.400   1.048 -0.1336  0.8612  0.1478
 8406TIP3    H146633   6.454   0.350   1.109  0.1264  1.9642  1.3239
 8406TIP3    H246634   6.556   0.462   1.103  0.1917  1.8369 -1.1762
 8407TIP3   OH246635   0.480   4.069  16.797 -0.2716  0.0393  0.4832
 8407TIP3    H146636   0.484   4.083  16.703 -1.0102  0.7105  0.5432
 8407TIP3    H246637   0.485   4.156  16.835  0.7622 -0.2770  1.1097
 8408TIP3   OH246638   0.808   3.368  15.808  0.5531 -0.5246  0.3721
 8408TIP3    H146639   0.719   3.388  15.837 -0.3233 -1.0697 -1.7449
 8408TIP3    H246640   0.836   3.446  15.761  0.5587 -0.9258 -0.3090
 8409TIP3   OH246641   4.718   4.862   0.424  0.0269  0.2113 -0.2874
 8409TIP3    H146642   4.638   4.896   0.382 -0.0747  0.5366  0.1576
 8409TIP3    H246643   4.754   4.800   0.361 -0.2603  0.5051 -0.7476
 8410TIP3   OH246644   6.399   5.790  11.034  0.4078  0.3958 -0.2659
 8410TIP3    H146645   6.353   5.785  11.117 -0.5535 -0.7322 -0.8471
 8410TIP3    H246646   6.353   5.859  10.985 -1.6415 -1.6311 -1.3708
 8411TIP3   OH246647   3.025   3.045   2.085  0.2921  0.2868 -0.2051
 8411TIP3    H146648   3.106   2.997   2.101  0.2449  0.6568  1.2636
 8411TIP3    H246649   3.002   3.024   1.995  1.3994 -0.7481 -0.2654
 8412TIP3   OH246650   4.797   3.356   5.430  0.1019 -0.2607 -0.3510
 8412TIP3    H146651   4.818   3.435   5.379  0.9031 -0.5174 -0.4299
 8412TIP3    H246652   4.857   3.360   5.505  1.4778 -1.7265 -1.3028
 8413TIP3   OH246653   5.584   5.850  12.487  0.2105  0.1465 -0.1425
 8413TIP3    H146654   5.560   5.926  12.435 -0.6748 -0.8497 -1.2211
 8413TIP3    H246655   5.507   5.832  12.541  0.6770  0.4207  0.6408
 8414TIP3   OH246656   3.831   5.675  16.573 -0.5958 -0.3561  0.3584
 8414TIP3    H146657   3.778   5.640  16.644  0.3150 -0.7903  0.8361
 8414TIP3    H246658   3.783   5.650  16.493  0.0190 -2.7729  0.6625
 8415TIP3   OH246659   3.580   4.491   4.192  0.8028 -0.3647  0.0019
 8415TIP3    H146660   3.539   4.405   4.188  0.0468 -0.1406  2.0967
 8415TIP3    H246661   3.672   4.473   4.211  0.7346 -0.7132 -0.0044
 8416TIP3   OH246662   6.014   6.587  16.608  0.1438  0.5641 -0.0984
 8416TIP3    H146663   6.062   6.647  16.551  0.7586  0.2545  0.0838
 8416TIP3    H246664   5.944   6.641  16.646  1.3171  1.4713  0.8912
 8417TIP3   OH246665   1.632   4.329   2.229  0.3716 -0.3215  0.2875
 8417TIP3    H146666   1.562   4.325   2.164 -0.4341  1.4408  0.9879
 8417TIP3    H246667   1.590   4.303   2.311  0.5195  0.7056  0.7050
 8418TIP3   OH246668   2.960   2.120   4.670  0.3617  0.2387  0.2097
 8418TIP3    H146669   2.961   2.186   4.739  0.7337 -0.8153  1.2566
 8418TIP3    H246670   2.926   2.041   4.712 -3.4924  0.5701 -1.8585
 8419TIP3   OH246671   0.141   1.302  15.246  0.1314  0.0155 -0.1245
 8419TIP3    H146672   0.125   1.219  15.200  0.3759 -0.4272  0.5657
 8419TIP3    H246673   0.057   1.323  15.287  0.3818 -0.5349  0.6990
 8420TIP3   OH246674   1.839   0.506   2.346 -0.6299 -0.0166 -0.7139
 8420TIP3    H146675   1.898   0.528   2.417 -0.6004  0.1624 -0.7921
 8420TIP3    H246676   1.751   0.514   2.384 -0.6358  0.6213 -0.8399
 8421TIP3   OH246677   2.727   6.417  14.703  0.2083  0.1572  0.2993
 8421TIP3    H146678   2.702   6.377  14.620 -0.9428 -1.7920  1.4775
 8421TIP3    H246679   2.760   6.503  14.680  1.7377 -1.0155 -2.3430
 8422TIP3   OH246680   1.505   0.797   3.773  0.0748 -0.1071  0.0502
 8422TIP3    H146681   1.517   0.824   3.864 -1.7784 -2.8432  1.2198
 8422TIP3    H246682   1.420   0.834   3.748  1.6362  2.7577 -1.5568
 8423TIP3   OH246683   3.207   2.093  16.202  0.3413 -0.4750  0.5971
 8423TIP3    H146684   3.146   2.045  16.145  0.0932  0.9812 -0.4313
 8423TIP3    H246685   3.253   2.152  16.143 -0.0945  1.2740  1.9074
 8424TIP3   OH246686   6.695   2.839  10.259 -0.2421  0.1310  0.3139
 8424TIP3    H146687   6.638   2.833  10.182  0.4719  0.9219 -0.3062
 8424TIP3    H246688   6.708   2.933  10.271  1.2654 -0.0309  0.1675
 8425TIP3   OH246689   5.398   6.366   2.935 -0.1147  0.5869 -0.1512
 8425TIP3    H146690   5.400   6.374   2.840  0.2766 -1.2338 -0.3149
 8425TIP3    H246691   5.486   6.337   2.959 -0.8697 -1.2753  0.5187
 8426TIP3   OH246692   6.280   6.616   4.862  0.0848 -0.3295 -0.6512
 8426TIP3    H146693   6.214   6.577   4.919 -0.7652 -0.2964 -1.5978
 8426TIP3    H246694   6.270   6.572   4.778  1.1439 -0.1877 -0.8727
 8427TIP3   OH246695   6.281   4.199   2.302 -0.2304  0.0745  0.0458
 8427TIP3    H146696   6.187   4.203   2.315 -0.3717  1.1536 -1.0479
 8427TIP3    H246697   6.307   4.291   2.289  0.9444 -0.2204  0.1919
 8428TIP3   OH246698   0.595   4.052  12.978  0.4612  0.1717  0.9904
 8428TIP3    H146699   0.532   3.986  12.945 -0.2252  1.2069  0.1502
 8428TIP3    H246700   0.664   4.053  12.912 -0.2055  1.2313  0.2754
 8429TIP3   OH246701   1.220   5.658   3.058  0.2226  0.4004 -0.2076
 8429TIP3    H146702   1.296   5.712   3.076 -0.0648  0.2047  1.8500
 8429TIP3    H246703   1.237   5.576   3.105 -1.2175  0.3501  0.2804
 8430TIP3   OH246704   4.260   6.288  14.978 -0.3866 -0.2376 -0.5346
 8430TIP3    H146705   4.290   6.201  14.953  2.7988  0.4704  0.2581
 8430TIP3    H246706   4.304   6.305  15.062 -0.9993  2.0576 -0.5962
 8431TIP3   OH246707   2.427   6.060   2.002 -0.3824  0.6084  0.2073
 8431TIP3    H146708   2.366   6.133   1.999 -0.6125  0.4007 -0.8426
 8431TIP3    H246709   2.490   6.079   1.932 -0.2818 -0.0481  0.1120
 8432TIP3   OH246710   2.125   1.252   1.547  0.4012 -0.0198 -0.1945
 8432TIP3    H146711   2.133   1.295   1.632  0.6994  0.7020 -0.5786
 8432TIP3    H246712   2.031   1.243   1.533  0.3527 -2.2529  1.2384
 8433TIP3   OH246713   4.663   0.002   2.676 -0.7601 -1.0838 -0.2846
 8433TIP3    H146714   4.598   0.062   2.639 -1.0654 -1.1676  0.1044
 8433TIP3    H246715   4.613  -0.051   2.739 -0.2726 -1.0022  0.1793
 8434TIP3   OH246716   6.521   0.135   0.916 -0.0597  0.6825 -0.1338
 8434TIP3    H146717   6.556   0.217   0.881  1.4007 -0.0874 -0.5615
 8434TIP3    H246718   6.462   0.163   0.987  1.6947  2.0709  0.8870
 8435TIP3   OH246719   5.432   1.842  11.703 -0.5055 -0.0889  0.1815
 8435TIP3    H146720   5.360   1.892  11.741 -0.4375  0.1176  0.0387
 8435TIP3    H246721   5.492   1.828  11.776 -1.3607 -1.5115  0.6623
 8436TIP3   OH246722   6.588   5.780  15.576  0.3103  0.6143 -0.1749
 8436TIP3    H146723   6.498   5.751  15.588 -0.0631  1.7263 -0.1936
 8436TIP3    H246724   6.639   5.728  15.639 -0.3131 -0.1136 -0.2611
 8437TIP3   OH246725   1.122   1.316  10.469  0.4658  0.3026 -0.1733
 8437TIP3    H146726   1.156   1.331  10.381 -1.0302  0.6110 -0.7383
 8437TIP3    H246727   1.061   1.388  10.484  0.2306 -0.0900  0.8562
 8438TIP3   OH246728   4.681   0.215  14.835 -0.5047 -0.3629 -0.1510
 8438TIP3    H146729   4.589   0.210  14.862 -0.9126 -1.1633 -1.5769
 8438TIP3    H246730   4.690   0.146  14.770  0.7249  0.6612 -1.1149
 8439TIP3   OH246731   1.927   4.544  14.193  0.6041 -0.0287  0.6639
 8439TIP3    H146732   1.960   4.470  14.142 -1.0637 -0.5650  0.3066
 8439TIP3    H246733   1.963   4.530  14.281  1.4941 -0.4501  0.2471
 8440TIP3   OH246734   6.273   4.809   0.286  1.5149  0.2335  1.0051
 8440TIP3    H146735   6.309   4.773   0.205  2.0053 -0.8952  1.6842
 8440TIP3    H246736   6.339   4.872   0.315  0.1050  2.7059 -0.8049
 8441TIP3   OH246737   2.956   4.759   0.810  0.1731  0.6625  0.9284
 8441TIP3    H146738   2.984   4.771   0.718  0.4974 -1.0139  0.7732
 8441TIP3    H246739   2.894   4.687   0.807  1.8178 -0.9086  2.2612
 8442TIP3   OH246740   5.853   0.142   2.685  0.1496  0.8801  0.3718
 8442TIP3    H146741   5.822   0.231   2.705 -1.8845  0.6385 -1.3120
 8442TIP3    H246742   5.777   0.086   2.700  1.0674 -0.4298  0.3070
 8443TIP3   OH246743   5.752   5.155  12.028  0.2348 -0.1185  0.5464
 8443TIP3    H146744   5.797   5.095  12.088  1.4386  2.2033  2.1544
 8443TIP3    H246745   5.795   5.141  11.944  1.7675 -0.2923  1.3085
 8444TIP3   OH246746   4.556   4.459   5.618 -0.1474 -0.0011 -0.1862
 8444TIP3    H146747   4.600   4.537   5.583  0.4753 -0.6002 -0.7846
 8444TIP3    H246748   4.612   4.430   5.689 -1.0727  0.8371  0.9239
 8445TIP3   OH246749   2.014   5.479   5.179  0.1807 -0.2289  0.3152
 8445TIP3    H146750   2.057   5.564   5.183 -0.3787  0.0543  0.4839
 8445TIP3    H246751   2.042   5.433   5.257  0.7677 -0.3407  0.0427
 8446TIP3   OH246752   0.765   3.999  11.612  0.0005 -0.5219  0.0796
 8446TIP3    H146753   0.855   3.980  11.641  0.2365 -0.9197 -0.8648
 8446TIP3    H246754   0.722   3.913  11.611  0.1288 -0.5961 -1.1140
 8447TIP3   OH246755   1.565   0.191   0.238  0.0461 -0.5516  0.5879
 8447TIP3    H146756   1.526   0.173   0.153  0.1737  2.0168 -0.0884
 8447TIP3    H246757   1.659   0.193   0.221  0.1701 -1.4379  1.1130
 8448TIP3   OH246758   2.373   0.905  12.699 -1.0690  0.3310  0.7018
 8448TIP3    H146759   2.377   0.840  12.769 -0.4286 -0.2051  0.1846
 8448TIP3    H246760   2.464   0.934  12.688 -0.4106 -2.2213 -2.2875
 8449TIP3   OH246761   0.285   4.735   5.565 -0.5834 -0.5057 -0.5669
 8449TIP3    H146762   0.210   4.781   5.604  1.1804  0.3354  2.1015
 8449TIP3    H246763   0.324   4.688   5.638  1.9972 -0.1821 -1.6578
 8450TIP3   OH246764   5.541   5.499   0.747 -0.4358 -0.0375  0.3633
 8450TIP3    H146765   5.607   5.491   0.815  2.0594  0.2399 -1.8758
 8450TIP3    H246766   5.527   5.409   0.717  1.0508  0.1599 -1.0091
 8451TIP3   OH246767   2.673   0.552   0.596 -0.5436 -0.5017  0.1100
 8451TIP3    H146768   2.719   0.634   0.614  0.2133 -0.4982 -1.6769
 8451TIP3    H246769   2.691   0.533   0.504 -1.4402 -2.2218  0.2383
 8452TIP3   OH246770   6.207   3.947  12.629 -0.4062  0.5587 -0.9597
 8452TIP3    H146771   6.247   3.892  12.562 -0.1580 -1.5421  0.8152
 8452TIP3    H246772   6.114   3.946  12.609 -0.7689 -2.6372  0.3625
 8453TIP3   OH246773   4.610   5.482   4.586 -0.0770 -0.1787  0.2808
 8453TIP3    H146774   4.584   5.427   4.512  1.1048 -0.2129 -0.1266
 8453TIP3    H246775   4.548   5.459   4.655 -1.2032 -0.1424 -0.6858
 8454TIP3   OH246776   1.496   4.401   5.531 -0.2386  0.1783  0.0701
 8454TIP3    H146777   1.424   4.341   5.548 -0.7954  0.7106 -0.3850
 8454TIP3    H246778   1.500   4.408   5.435 -1.2452  2.1139  0.1242
 8455TIP3   OH246779   3.802   5.515  14.205 -0.1083 -0.4680 -0.4585
 8455TIP3    H146780   3.843   5.498  14.290  1.0708  0.7164 -0.7394
 8455TIP3    H246781   3.827   5.440  14.151  0.3397 -0.5518 -0.1459
 8456TIP3   OH246782   2.329   2.318  11.368 -1.0641 -0.6384 -0.1745
 8456TIP3    H146783   2.299   2.227  11.376 -3.3272  0.1562  1.6740
 8456TIP3    H246784   2.388   2.330  11.443 -0.3764 -0.6872 -0.6976
 8457TIP3   OH246785   6.765   4.920   2.816  0.6132  0.1672  0.2303
 8457TIP3    H146786   6.691   4.954   2.766  0.8745  2.2322  1.1705
 8457TIP3    H246787   6.827   4.891   2.748 -1.2361 -2.2422 -0.5695
 8458TIP3   OH246788   2.167   0.028   6.111 -0.3619 -0.0112  0.0195
 8458TIP3    H146789   2.184  -0.040   6.047  0.2504 -0.5843  0.7699
 8458TIP3    H246790   2.074   0.020   6.131 -0.8933  1.1049 -1.8186
 8459TIP3   OH246791   2.702   6.122   4.155  0.1407 -0.4321  0.3366
 8459TIP3    H146792   2.746   6.207   4.147 -1.7266  0.6938  1.2018
 8459TIP3    H246793   2.745   6.067   4.090 -0.0174  1.8279 -1.8538
 8460TIP3   OH246794   4.199   0.237  14.070  0.0147 -0.1835  0.0723
 8460TIP3    H146795   4.214   0.323  14.108 -0.4612 -0.1972  0.2879
 8460TIP3    H246796   4.240   0.176  14.131 -1.2381 -0.2501  0.8554
 8461TIP3   OH246797   4.855   3.147   2.717  0.2556  0.3086 -0.1049
 8461TIP3    H146798   4.772   3.192   2.730  0.8295  1.0085  1.3242
 8461TIP3    H246799   4.919   3.217   2.703  1.0349 -0.0523  1.4364
 8462TIP3   OH246800   3.102   0.136   5.507 -0.3674 -0.8424  0.2119
 8462TIP3    H146801   3.160   0.062   5.521  0.0834 -0.1792  2.1938
 8462TIP3    H246802   3.027   0.119   5.564 -0.8816 -0.4067 -0.3185
 8463TIP3   OH246803   3.465   0.379   3.293  0.0386  0.1517 -0.0578
 8463TIP3    H146804   3.468   0.386   3.388  1.4384 -0.7277 -0.0043
 8463TIP3    H246805   3.544   0.424   3.263  0.5416 -1.0892 -0.6733
 8464TIP3   OH246806   1.218   1.279  16.947 -0.0961  0.0384 -0.4525
 8464TIP3    H146807   1.131   1.260  16.981  0.4120 -0.2921  0.7503
 8464TIP3    H246808   1.267   1.309  17.024  0.2635  2.3959 -1.5004
 8465TIP3   OH246809   4.019   2.356   2.284 -0.2303  0.4339 -0.7948
 8465TIP3    H146810   3.955   2.288   2.263  0.8057 -1.0856  0.6433
 8465TIP3    H246811   3.967   2.427   2.321 -1.0866 -1.1418  1.2341
 8466TIP3   OH246812   1.106   4.743   0.934 -0.2915  0.3946  0.2830
 8466TIP3    H146813   1.186   4.795   0.923  0.3558 -0.6044  0.1173
 8466TIP3    H246814   1.111   4.678   0.865 -0.6439 -0.4352  1.0256
 8467TIP3   OH246815   1.603   1.792   3.696 -0.7744 -0.1313  0.2451
 8467TIP3    H146816   1.665   1.720   3.686  0.3875  0.8871 -0.0103
 8467TIP3    H246817   1.608   1.840   3.614 -0.4862  1.0476  0.9282
 8468TIP3   OH246818   6.165   6.647   2.769 -0.0234  0.3100 -0.4591
 8468TIP3    H146819   6.160   6.640   2.864 -2.3088  0.1614 -0.5497
 8468TIP3    H246820   6.119   6.570   2.736 -2.0053  1.8826 -1.6216
 8469TIP3   OH246821   4.831   2.953   3.839  0.4504  0.1372  0.0240
 8469TIP3    H146822   4.909   2.901   3.818 -0.9759 -2.0116 -0.3193
 8469TIP3    H246823   4.769   2.932   3.769 -1.0595  0.3526  1.2547
 8470TIP3   OH246824   5.749   2.232   5.069  0.1713  0.4162 -0.1529
 8470TIP3    H146825   5.747   2.157   5.009 -2.0173  0.3755 -0.1077
 8470TIP3    H246826   5.778   2.195   5.153 -0.2825 -0.2650 -0.2863
 8471TIP3   OH246827   3.364   0.775  16.297 -0.2030  0.0034  0.4773
 8471TIP3    H146828   3.325   0.856  16.265 -2.0217 -0.7209  0.7440
 8471TIP3    H246829   3.419   0.802  16.370  0.6433  1.1839 -0.5609
 8472TIP3   OH246830   1.450   2.212   1.785  0.2958 -0.3000  0.3118
 8472TIP3    H146831   1.539   2.175   1.788  0.4583  0.0628  0.0259
 8472TIP3    H246832   1.437   2.237   1.694 -0.3733 -0.9983  0.2155
 8473TIP3   OH246833   3.342   0.837   0.563  0.2156  0.0879  0.1940
 8473TIP3    H146834   3.391   0.907   0.519  1.2799 -0.1473  0.9726
 8473TIP3    H246835   3.383   0.829   0.649 -0.7923 -0.5608  0.6345
 8474TIP3   OH246836   5.926   0.199   1.697  0.9555  0.1300 -0.0317
 8474TIP3    H146837   5.991   0.207   1.627 -0.1372 -0.2469 -1.1063
 8474TIP3    H246838   5.865   0.133   1.666  0.7467 -0.4442  1.5261
 8475TIP3   OH246839   5.931   3.947  16.675 -0.1951  0.6731 -0.8653
 8475TIP3    H146840   5.962   3.866  16.713 -0.7275  0.2843 -1.2422
 8475TIP3    H246841   6.008   3.985  16.633 -0.0503  0.1158 -1.1129
 8476TIP3   OH246842   6.471   0.846   5.135  0.2805  0.3729 -0.2176
 8476TIP3    H146843   6.537   0.907   5.169 -0.3331  0.5568  0.6516
 8476TIP3    H246844   6.522   0.770   5.105  0.8216  0.1146  1.2958
 8477TIP3   OH246845   0.804   6.493  14.629 -0.1569  0.8505 -0.0240
 8477TIP3    H146846   0.724   6.464  14.586 -0.7850  2.1704  0.2380
 8477TIP3    H246847   0.843   6.556  14.569 -1.0187  2.6810  1.2327
 8478TIP3   OH246848   1.431   3.663  11.517 -0.0807  0.8635 -0.2307
 8478TIP3    H146849   1.349   3.669  11.467 -0.6448  3.9564  0.8690
 8478TIP3    H246850   1.469   3.580  11.490 -2.5017  0.3465 -2.4487
 8479TIP3   OH246851   2.196   0.135   0.789  0.1810 -0.1265 -0.1726
 8479TIP3    H146852   2.117   0.108   0.742  0.2012 -1.2826  0.4274
 8479TIP3    H246853   2.167   0.209   0.842 -0.8837 -1.3983  1.1002
 8480TIP3   OH246854   5.833   4.894   1.908 -0.9332  0.1352 -0.1343
 8480TIP3    H146855   5.791   4.963   1.857 -0.7972 -0.0475 -0.5008
 8480TIP3    H246856   5.859   4.829   1.842  2.8441  1.6784 -0.4102
 8481TIP3   OH246857   3.849   0.090  12.243 -0.3816  0.0120 -0.2461
 8481TIP3    H146858   3.920   0.025  12.248  0.9451  1.4388  0.4953
 8481TIP3    H246859   3.826   0.107  12.335 -1.8674 -0.5799 -0.4822
 8482TIP3   OH246860   3.975   3.669  17.031 -0.2185 -0.2241 -0.6476
 8482TIP3    H146861   4.000   3.685  16.940  0.2138 -1.2455 -0.7188
 8482TIP3    H246862   4.030   3.596  17.059 -0.2431  0.1660  0.4838
 8483TIP3   OH246863   1.536   4.683   0.295 -0.7052  0.1642 -0.7697
 8483TIP3    H146864   1.521   4.777   0.312 -0.5548 -0.1912  1.8254
 8483TIP3    H246865   1.455   4.653   0.255 -1.5258  1.0426  0.1641
 8484TIP3   OH246866   1.248   1.751   5.263 -0.4654 -0.0619  0.2274
 8484TIP3    H146867   1.180   1.772   5.327 -0.3349 -1.0127  0.6824
 8484TIP3    H246868   1.312   1.700   5.311 -0.9571 -1.8325 -0.9199
 8485TIP3   OH246869   5.903   6.106  14.615 -0.3413 -0.0640 -0.6357
 8485TIP3    H146870   5.991   6.084  14.647 -0.2576 -1.4389 -1.7315
 8485TIP3    H246871   5.878   6.032  14.560 -1.9789  0.5578 -0.7906
 8486TIP3   OH246872   6.299   2.995   2.426  0.3475 -0.4640 -0.0421
 8486TIP3    H146873   6.317   2.980   2.518 -0.3867  0.5543  0.2857
 8486TIP3    H246874   6.262   3.084   2.423 -0.3630 -0.7784 -1.2147
 8487TIP3   OH246875   4.128   0.945   3.189 -0.1617 -0.3301 -0.0060
 8487TIP3    H146876   4.169   0.862   3.215 -0.4008 -1.1976 -2.2137
 8487TIP3    H246877   4.126   0.942   3.093 -1.0835  1.8094 -0.1062
 8488TIP3   OH246878   0.310   0.911   3.030 -0.1214 -0.3754 -0.0988
 8488TIP3    H146879   0.300   0.929   2.936 -0.5341  0.8855  0.1752
 8488TIP3    H246880   0.364   0.832   3.033 -0.0801 -0.4189 -1.4011
 8489TIP3   OH246881   5.827   0.022   4.345 -0.1778 -0.0682 -0.5767
 8489TIP3    H146882   5.859  -0.001   4.257 -1.0100  1.5820 -1.3432
 8489TIP3    H246883   5.897  -0.008   4.404  0.2484 -1.5106 -1.7428
 8490TIP3   OH246884   2.636   4.306  11.747 -0.9374 -0.2560 -0.3436
 8490TIP3    H146885   2.723   4.340  11.764 -0.5498 -0.6369 -1.5037
 8490TIP3    H246886   2.621   4.243  11.817 -0.9040  0.8933  0.7311
 8491TIP3   OH246887   5.213   4.316  15.665  0.3519 -0.0663 -0.1107
 8491TIP3    H146888   5.179   4.266  15.591 -0.1029 -0.1682  0.1622
 8491TIP3    H246889   5.182   4.269  15.742  0.9917 -0.0717  0.1433
 8492TIP3   OH246890   6.428   5.622   5.066  0.0032 -0.6192 -0.3453
 8492TIP3    H146891   6.340   5.658   5.070  0.6454  0.8778  1.5403
 8492TIP3    H246892   6.486   5.698   5.074  1.4819 -1.6131 -1.0822
 8493TIP3   OH246893   5.804   4.639   4.616 -0.5804 -0.2751  0.3239
 8493TIP3    H146894   5.785   4.571   4.681 -0.7099 -1.0583 -0.5053
 8493TIP3    H246895   5.735   4.629   4.550  0.2133 -0.2892 -0.5295
 8494TIP3   OH246896   5.635   2.741  14.096  1.0176  0.6287 -0.7611
 8494TIP3    H146897   5.701   2.806  14.071  2.2836 -0.3830 -0.1533
 8494TIP3    H246898   5.657   2.664  14.044  2.3113 -0.7666  1.6543
 8495TIP3   OH246899   3.928   4.047   1.637  0.2368  0.4331 -0.2209
 8495TIP3    H146900   3.873   3.987   1.587 -0.3364  0.3426  0.4973
 8495TIP3    H246901   3.899   4.036   1.728  0.1024  1.8087 -0.0698
 8496TIP3   OH246902   1.709   1.807  14.923 -0.3089 -0.2321  0.1640
 8496TIP3    H146903   1.705   1.850  14.838 -0.7728 -1.2616 -0.3575
 8496TIP3    H246904   1.747   1.721  14.905 -2.6674 -1.4312  0.5450
 8497TIP3   OH246905   5.158   4.935  13.659 -0.7890  0.5364  0.3502
 8497TIP3    H146906   5.075   4.980  13.642 -0.1434  2.4236  1.8877
 8497TIP3    H246907   5.224   5.004  13.652  0.5656 -0.7669 -0.0028
 8498TIP3   OH246908   3.213   5.756  12.618  0.0459  0.0347 -0.0924
 8498TIP3    H146909   3.172   5.766  12.704 -0.9064  1.1978 -0.6461
 8498TIP3    H246910   3.159   5.691  12.573 -0.7073  0.9184 -0.5067
 8499TIP3   OH246911   5.151   2.412   1.097  0.1409  0.3468  0.0682
 8499TIP3    H146912   5.182   2.387   1.010 -1.4845 -0.2059 -0.3863
 8499TIP3    H246913   5.192   2.348   1.156  0.9213  0.4718 -0.3254
 8500TIP3   OH246914   1.779   4.950   1.140 -0.4401  0.0319  0.0703
 8500TIP3    H146915   1.720   4.875   1.131  1.1244 -1.1331 -1.0356
 8500TIP3    H246916   1.733   5.009   1.200 -1.8989 -1.6295  0.6998
 8501TIP3   OH246917   6.794   0.265   5.473  0.1042  0.2814 -0.0230
 8501TIP3    H146918   6.782   0.356   5.501  1.9953  0.5707 -0.0242
 8501TIP3    H246919   6.819   0.219   5.553 -0.9571 -0.2890 -0.0022
 8502TIP3   OH246920   2.868   5.589  13.141  0.2070  0.5135  0.3502
 8502TIP3    H146921   2.789   5.633  13.174 -1.7498 -0.5906 -2.4438
 8502TIP3    H246922   2.881   5.625  13.053  0.4837 -2.0241 -0.7326
 8503TIP3   OH246923   2.667   4.406  11.143 -0.1253 -0.2059  0.8530
 8503TIP3    H146924   2.692   4.316  11.123 -1.9439 -0.6555  0.4285
 8503TIP3    H246925   2.708   4.459  11.075 -0.3866 -0.9176  0.1303
 8504TIP3   OH246926   5.081   1.439   1.679  0.3953 -0.4579  0.0896
 8504TIP3    H146927   5.056   1.478   1.596 -0.0848  1.6460  1.1398
 8504TIP3    H246928   5.077   1.345   1.664 -0.4473 -0.1375 -2.0229
 8505TIP3   OH246929   5.092   0.764   5.360  0.1321 -0.2415  0.2624
 8505TIP3    H146930   5.049   0.763   5.274 -0.3264 -1.3048  0.4798
 8505TIP3    H246931   5.077   0.676   5.395  1.7141 -0.3484  0.7489
 8506TIP3   OH246932   0.082   3.206  16.080  0.1752 -0.0329 -0.1190
 8506TIP3    H146933   0.103   3.215  15.987  1.0302 -0.6964 -0.0001
 8506TIP3    H246934   0.073   3.297  16.111 -2.2916  0.2002 -1.2842
 8507TIP3   OH246935   4.978   6.643   0.549  0.2958 -0.0819  0.0494
 8507TIP3    H146936   5.025   6.560   0.541  0.2156 -0.2433  1.0752
 8507TIP3    H246937   5.031   6.695   0.609  0.6358  0.8414 -0.9990
 8508TIP3   OH246938   0.363   0.077  11.420  0.2907  0.2916  0.1680
 8508TIP3    H146939   0.278   0.086  11.377  0.3404  1.7799  0.3152
 8508TIP3    H246940   0.427   0.093  11.351  0.4390 -0.2453  0.1801
 8509TIP3   OH246941   4.289   0.544  15.354 -0.3567  0.2868 -0.0720
 8509TIP3    H146942   4.278   0.566  15.261 -0.5780  0.3826 -0.0233
 8509TIP3    H246943   4.220   0.480  15.372 -3.0509  3.1764  1.0109
 8510TIP3   OH246944   3.466   6.009  14.393  0.4039  0.2876 -0.2085
 8510TIP3    H146945   3.496   6.099  14.382 -0.1278  0.1453 -4.4851
 8510TIP3    H246946   3.547   5.958  14.402  0.9162  0.8918 -1.2431
 8511TIP3   OH246947   1.573   0.421  13.964  0.4632 -0.0042 -0.0785
 8511TIP3    H146948   1.554   0.486  13.897 -3.0036 -1.9620 -1.2370
 8511TIP3    H246949   1.554   0.466  14.047  0.4594  1.1344 -0.6768
 8512TIP3   OH246950   4.069   4.106   1.973 -0.4881  0.2852 -0.8024
 8512TIP3    H146951   4.083   4.022   2.018  1.2381  1.9130  2.0416
 8512TIP3    H246952   3.988   4.139   2.012 -0.0652  0.8112 -0.3555
 8513TIP3   OH246953   5.272   5.427  16.761  0.2589 -0.1847 -0.2283
 8513TIP3    H146954   5.296   5.432  16.853 -0.7380  2.4100 -0.0524
 8513TIP3    H246955   5.279   5.333  16.740 -0.3283 -0.9771  2.6832
 8514TIP3   OH246956   4.544   1.726  12.260  0.0172  0.5297  0.3248
 8514TIP3    H146957   4.474   1.734  12.195  0.8123  0.5965 -0.5419
 8514TIP3    H246958   4.570   1.634  12.257  0.4786  0.6668  0.1030
 8515TIP3   OH246959   0.828   2.133   4.172  0.4319 -0.8650  0.6467
 8515TIP3    H146960   0.865   2.091   4.095 -1.5548 -0.4509 -0.5870
 8515TIP3    H246961   0.899   2.189   4.206  1.5070 -1.4845 -0.5160
 8516TIP3   OH246962   1.857   2.386   2.606  0.2136 -0.1621 -0.5100
 8516TIP3    H146963   1.788   2.422   2.550  1.1197  1.9606 -0.3335
 8516TIP3    H246964   1.860   2.445   2.682 -0.0041 -2.1416  1.1339
 8517TIP3   OH246965   2.209   4.131  11.495  0.3040 -0.1226 -1.0589
 8517TIP3    H146966   2.282   4.076  11.467 -0.2612 -1.5984  0.2152
 8517TIP3    H246967   2.231   4.155  11.585 -1.8436 -2.7116  0.3051
 8518TIP3   OH246968   6.303   1.404  10.056 -0.0654 -0.3343  0.0395
 8518TIP3    H146969   6.395   1.396  10.028  0.0234 -0.6487  0.4077
 8518TIP3    H246970   6.295   1.342  10.128  0.2657  1.9207  2.1266
 8519TIP3   OH246971   3.950   4.583  16.727  0.2940  0.0184  0.6005
 8519TIP3    H146972   3.939   4.678  16.720  0.7745  0.0851  0.6789
 8519TIP3    H246973   4.011   4.572  16.800 -1.0371 -0.4341  1.6830
 8520TIP3   OH246974   5.232   3.819  12.728  0.3330  0.4055  0.5893
 8520TIP3    H146975   5.268   3.851  12.811  0.3443  2.4280 -0.1389
 8520TIP3    H246976   5.157   3.876  12.710  0.4045  0.0989 -0.8328
 8521TIP3   OH246977   5.132   2.427  16.470  0.2020 -0.1039 -0.2594
 8521TIP3    H146978   5.041   2.409  16.495  0.1729  2.0248  1.4955
 8521TIP3    H246979   5.173   2.341  16.464 -2.1251 -1.2160 -2.1867
 8522TIP3   OH246980   1.710   5.165  10.424 -0.3949 -0.0561  0.1428
 8522TIP3    H146981   1.666   5.229  10.368  0.1961 -0.5326 -0.9024
 8522TIP3    H246982   1.765   5.217  10.483 -2.4234  0.5689  1.6041
 8523TIP3   OH246983   3.566   3.242  16.514 -0.5726 -0.2410 -0.4356
 8523TIP3    H146984   3.647   3.211  16.472 -0.0663  1.5614 -0.8800
 8523TIP3    H246985   3.497   3.217  16.453 -0.2104 -0.6106 -0.7030
 8524TIP3   OH246986   6.529   1.179  14.258 -0.5857  0.0875  0.2928
 8524TIP3    H146987   6.555   1.251  14.316 -1.8830  0.9119 -0.1326
 8524TIP3    H246988   6.501   1.109  14.318  0.4238 -0.0013  0.6942
 8525TIP3   OH246989   3.789   2.805  11.030 -0.3259  0.0445  0.3703
 8525TIP3    H146990   3.882   2.826  11.031 -0.2730 -0.1489 -0.0472
 8525TIP3    H246991   3.787   2.710  11.020 -0.5694  0.0859  0.0310
 8526TIP3   OH246992   4.527   1.761  13.608  0.5154 -0.1700 -0.6328
 8526TIP3    H146993   4.604   1.735  13.556  0.3705  0.6806 -1.2948
 8526TIP3    H246994   4.543   1.852  13.632  0.5166 -0.5117  0.7418
 8527TIP3   OH246995   3.401   2.689   5.724 -0.1899 -0.4364  0.1738
 8527TIP3    H146996   3.371   2.780   5.721 -0.9863 -0.6963 -0.0376
 8527TIP3    H246997   3.428   2.676   5.816  0.0594  0.0436  0.1735
 8528TIP3   OH246998   5.326   5.347   5.543  0.2501 -0.2118  0.2795
 8528TIP3    H146999   5.407   5.336   5.491 -0.9733 -1.4450 -1.5047
 8528TIP3    H247000   5.273   5.408   5.492 -0.1948  0.1060  1.1132
 8529TIP3   OH247001   1.125   4.917   2.723 -0.6086 -0.1010  0.0949
 8529TIP3    H147002   1.110   5.011   2.717 -0.0839 -0.1072 -2.0904
 8529TIP3    H247003   1.205   4.909   2.775 -1.3843  0.5436  1.4517
 8530TIP3   OH247004   0.305   6.611   5.843 -0.3212 -0.0183 -0.1434
 8530TIP3    H147005   0.282   6.557   5.918  0.2158  1.3785  1.0942
 8530TIP3    H247006   0.224   6.657   5.821 -0.7753 -1.2738 -1.1907
 8531TIP3   OH247007   1.082   4.950   1.174  0.8123  0.3152  0.4479
 8531TIP3    H147008   1.068   4.987   1.261  0.3067  0.9177  0.1148
 8531TIP3    H247009   1.051   4.860   1.181 -2.0621  1.1736  0.1204
 8532TIP3   OH247010   1.657   2.821  14.282 -0.2048  0.4067  0.2136
 8532TIP3    H147011   1.658   2.900  14.336 -1.3718 -1.1379  2.6765
 8532TIP3    H247012   1.745   2.785  14.292 -0.2196  0.4634  0.5654
 8533TIP3   OH247013   1.822   3.566   0.343  0.0593  0.3152  0.1061
 8533TIP3    H147014   1.792   3.569   0.252 -0.8089  1.3264  0.4083
 8533TIP3    H247015   1.910   3.604   0.340  0.1760  0.0225 -0.3590
 8534TIP3   OH247016   1.412   6.124  16.172  0.3890 -0.5218  0.7455
 8534TIP3    H147017   1.405   6.094  16.263 -2.6040 -1.1571  0.4173
 8534TIP3    H247018   1.393   6.218  16.177  0.6045 -0.4807  0.8107
 8535TIP3   OH247019   3.247   6.330   1.150  0.5722 -0.1470 -0.1270
 8535TIP3    H147020   3.204   6.287   1.076 -2.8069  0.8731  1.0517
 8535TIP3    H247021   3.214   6.283   1.227  2.5094  0.0414  0.8803
 8536TIP3   OH247022   1.913   2.137  12.922 -0.2088 -0.6725 -0.2399
 8536TIP3    H147023   1.977   2.111  12.988 -0.3506  0.0350  0.1810
 8536TIP3    H247024   1.955   2.207  12.873 -1.2986  1.0507  1.1910
 8537TIP3   OH247025   2.888   4.947   5.822 -0.3814  0.4174 -0.1136
 8537TIP3    H147026   2.817   4.884   5.811  1.5037 -1.8391  0.0114
 8537TIP3    H247027   2.956   4.899   5.868  1.5630  2.2666 -0.9089
 8538TIP3   OH247028   3.992   5.317   3.229  0.3870 -0.1619  0.5296
 8538TIP3    H147029   4.028   5.338   3.315  0.2339  0.6016  0.4184
 8538TIP3    H247030   3.963   5.402   3.195 -1.8582 -0.7661  0.7763
 8539TIP3   OH247031   3.379   3.304  12.600  0.1276 -0.2502 -0.4506
 8539TIP3    H147032   3.298   3.257  12.617  0.1706 -0.0387  0.3719
 8539TIP3    H247033   3.378   3.321  12.506 -1.7113  1.4425 -0.1851
 8540TIP3   OH247034   0.150   3.633  15.238  0.1736 -0.2974  0.2547
 8540TIP3    H147035   0.191   3.592  15.314  1.1054  0.1133 -0.0149
 8540TIP3    H247036   0.223   3.657  15.181 -0.4781 -0.0607 -0.5001
 8541TIP3   OH247037   6.540   1.564   5.442 -0.1317  0.3702 -0.1065
 8541TIP3    H147038   6.624   1.573   5.397 -0.2330 -0.7996 -0.5792
 8541TIP3    H247039   6.527   1.469   5.449 -1.4961  0.5255 -0.2200
 8542TIP3   OH247040   2.643   0.423  14.992 -0.0074 -0.3371 -0.3122
 8542TIP3    H147041   2.607   0.383  14.912 -1.2021 -1.2383  0.6247
 8542TIP3    H247042   2.574   0.411  15.057 -0.0903  2.5949  0.2671
 8543TIP3   OH247043   4.031   4.564  16.103 -0.0527  0.1654  0.0956
 8543TIP3    H147044   4.019   4.469  16.096 -1.3786  0.1403  1.9122
 8543TIP3    H247045   4.125   4.575  16.113  0.1713 -0.9044 -0.5546
 8544TIP3   OH247046   3.221   3.457   5.131  0.1872 -0.0591  0.1982
 8544TIP3    H147047   3.151   3.469   5.068 -0.5679  2.3575  1.3466
 8544TIP3    H247048   3.202   3.374   5.174 -1.7002  0.2910  0.1138
 8545TIP3   OH247049   3.347   1.623  11.175  0.3202  0.6728 -0.1788
 8545TIP3    H147050   3.321   1.534  11.200  1.4032  0.7658  1.4576
 8545TIP3    H247051   3.265   1.669  11.158 -0.2610 -0.5825 -0.8890
 8546TIP3   OH247052   3.519   3.454   4.284 -0.4488 -0.0781 -0.2901
 8546TIP3    H147053   3.497   3.362   4.271 -0.4120  0.1351 -2.0119
 8546TIP3    H247054   3.442   3.502   4.253 -0.4659  0.4931  0.5815
 8547TIP3   OH247055   5.788   6.737   0.832 -0.2117  0.9510  0.3490
 8547TIP3    H147056   5.849   6.697   0.894 -1.2200 -0.3250  0.5674
 8547TIP3    H247057   5.706   6.742   0.879 -1.1121 -0.4313 -0.9676
 8548TIP3   OH247058   4.769   2.557   2.096  0.7023  0.7471 -0.2500
 8548TIP3    H147059   4.843   2.556   2.035 -1.1636  0.9693 -2.7078
 8548TIP3    H247060   4.694   2.581   2.041 -0.8310  3.0715  2.5775
 8549TIP3   OH247061   6.741   5.664  11.982  0.1176  0.2598 -0.5175
 8549TIP3    H147062   6.662   5.632  11.939 -2.0795  2.3947  1.5718
 8549TIP3    H247063   6.740   5.621  12.067  0.9123  0.6951 -0.2845
 8550TIP3   OH247064   4.289   5.457   1.491  0.4146 -0.0598 -0.6997
 8550TIP3    H147065   4.378   5.473   1.460  0.5306 -1.3237 -1.0767
 8550TIP3    H247066   4.300   5.440   1.585  1.0141 -3.0646 -1.2103
 8551TIP3   OH247067   1.314   1.086  11.262 -0.1960 -0.4603  0.1187
 8551TIP3    H147068   1.247   1.019  11.252 -0.4892 -0.3688  1.2870
 8551TIP3    H247069   1.267   1.163  11.293  0.5430 -0.6877  1.9531
 8552TIP3   OH247070   5.367   4.916   4.872  0.5113  0.1314  0.5420
 8552TIP3    H147071   5.341   4.929   4.963 -0.5960  0.7930  0.1482
 8552TIP3    H247072   5.390   5.004   4.841 -0.5558  0.1476 -0.2356
 8553TIP3   OH247073   3.906   5.717   5.042  0.0687  0.4141 -0.7711
 8553TIP3    H147074   3.968   5.654   5.081  0.2907  0.0775 -1.6380
 8553TIP3    H247075   3.839   5.729   5.109  0.3025 -0.3523 -0.3865
 8554TIP3   OH247076   0.897   4.442  13.932 -0.0872 -0.0921  0.0177
 8554TIP3    H147077   0.833   4.410  13.868  0.3299 -1.2298  0.1659
 8554TIP3    H247078   0.981   4.407  13.903 -0.1151 -2.1455  2.1321
 8555TIP3   OH247079   6.748   4.110   3.883  0.0951  0.0505 -0.1214
 8555TIP3    H147080   6.717   4.190   3.924 -0.9636 -0.0576 -0.6909
 8555TIP3    H247081   6.699   4.103   3.801 -0.0369 -1.3144  0.0412
 8556TIP3   OH247082   4.538   0.446   5.428  0.2294 -0.1224  0.1041
 8556TIP3    H147083   4.473   0.385   5.462  1.9149 -0.5938  2.7580
 8556TIP3    H247084   4.495   0.532   5.432 -0.2521 -0.4204  1.7869
 8557TIP3   OH247085   1.640   6.811  14.501 -0.0904 -0.3011  0.1649
 8557TIP3    H147086   1.656   6.876  14.569 -2.3505  0.8996 -0.3566
 8557TIP3    H247087   1.705   6.743  14.517  1.8545  1.6932  1.2068
 8558TIP3   OH247088   2.576   3.930   5.322  0.4513 -0.1770  0.4294
 8558TIP3    H147089   2.652   3.942   5.379  0.4514 -0.4746  0.4918
 8558TIP3    H247090   2.580   3.838   5.295 -0.4150 -0.4519  1.2024
 8559TIP3   OH247091   6.614   5.754  16.007  0.2458  0.1635 -0.0014
 8559TIP3    H147092   6.634   5.685  15.944 -0.1523 -0.9977  1.0948
 8559TIP3    H247093   6.690   5.812  16.005  1.6759 -1.5918  0.6998
 8560TIP3   OH247094   5.702   2.786  16.042 -0.4815  0.1862  0.1344
 8560TIP3    H147095   5.664   2.758  16.125  1.6278 -0.7411  0.8489
 8560TIP3    H247096   5.731   2.705  16.000  1.9532  0.9008  0.3091
 8561TIP3   OH247097   0.450   6.500   4.593 -0.0784 -0.0017 -0.4709
 8561TIP3    H147098   0.501   6.544   4.661 -1.8285  0.4503  0.6188
 8561TIP3    H247099   0.393   6.440   4.641 -1.4020  0.3748 -1.5017
 8562TIP3   OH247100   2.481   4.615  14.162 -0.1833 -0.1153 -0.6161
 8562TIP3    H147101   2.403   4.602  14.108 -0.9600 -1.1221  0.6909
 8562TIP3    H247102   2.513   4.702  14.138 -1.3444  0.0464 -1.6319
 8563TIP3   OH247103   4.178   0.541   2.317  0.3035 -0.0319  0.6495
 8563TIP3    H147104   4.235   0.499   2.252 -1.1605  0.1463 -0.8075
 8563TIP3    H247105   4.123   0.600   2.266  0.0723  1.2127  2.2618
 8564TIP3   OH247106   1.589   1.613   2.108  0.0425 -0.1254 -0.2850
 8564TIP3    H147107   1.567   1.574   2.024 -2.9841  0.2492  0.2321
 8564TIP3    H247108   1.525   1.683   2.121  1.0338  0.4912  1.8952
 8565TIP3   OH247109   2.758   4.279  16.106 -0.6427  0.0776  0.2860
 8565TIP3    H147110   2.747   4.328  16.024  1.0711 -0.8567 -0.5773
 8565TIP3    H247111   2.760   4.346  16.174 -2.6070  0.8505 -0.3293
 8566TIP3   OH247112   4.490   0.267  16.948 -0.0465  0.2599  0.2370
 8566TIP3    H147113   4.541   0.307  16.878  1.2648 -2.2477 -0.3514
 8566TIP3    H247114   4.402   0.304  16.937  0.5312  1.2080 -1.6548
 8567TIP3   OH247115   4.109   2.938   5.806 -0.1843 -0.2986 -0.1135
 8567TIP3    H147116   4.205   2.939   5.802 -0.1001  2.4058  0.3341
 8567TIP3    H247117   4.089   2.915   5.897 -0.0846 -2.5949 -0.6135
 8568TIP3   OH247118   2.516   0.386  14.701  0.2143  0.7278  0.4686
 8568TIP3    H147119   2.469   0.431  14.631  0.3815  0.4174  0.1567
 8568TIP3    H247120   2.509   0.293  14.680 -1.6078  0.4333  2.0102
 8569TIP3   OH247121   1.716   1.927   4.817  0.1438 -0.5013  0.1553
 8569TIP3    H147122   1.798   1.930   4.769 -1.5937  2.4023 -3.0885
 8569TIP3    H247123   1.722   2.000   4.878 -0.1557 -0.0137 -0.3903
 8570TIP3   OH247124   2.753   5.815   0.964  0.2830  0.4899 -0.6246
 8570TIP3    H147125   2.805   5.764   1.027 -0.7807 -0.2725 -0.3469
 8570TIP3    H247126   2.780   5.782   0.879  0.8751  0.7088 -0.5317
 8571TIP3   OH247127   1.379   4.122  15.517 -0.0655 -0.1318  0.2232
 8571TIP3    H147128   1.329   4.110  15.597 -1.1248  0.5789 -0.3033
 8571TIP3    H247129   1.395   4.216  15.512  1.4528 -0.3456  0.4259
 8572TIP3   OH247130   2.888   2.381   1.053  0.3664  0.9284 -0.1453
 8572TIP3    H147131   2.845   2.297   1.033  1.8096 -0.1619  1.0879
 8572TIP3    H247132   2.821   2.447   1.035 -1.7713 -0.6711  1.4491
 8573TIP3   OH247133   4.892   2.829  16.082 -0.6039  0.3128 -0.3513
 8573TIP3    H147134   4.903   2.895  16.151 -1.1755  0.0966 -0.0434
 8573TIP3    H247135   4.980   2.814  16.049 -0.2227 -0.0769  0.7948
 8574TIP3   OH247136   0.158   0.744  14.225 -0.1367 -0.9557  0.1488
 8574TIP3    H147137   0.204   0.793  14.293 -1.3177 -0.1800  0.4077
 8574TIP3    H247138   0.066   0.745  14.252 -0.8290  0.3669 -2.0207
 8575TIP3   OH247139   2.804   4.820  12.660 -0.9020  1.1218 -0.8488
 8575TIP3    H147140   2.831   4.836  12.750 -0.3334 -0.4617 -0.6949
 8575TIP3    H247141   2.885   4.793  12.616 -1.5732 -0.3658 -1.2335
 8576TIP3   OH247142   5.972   3.244   4.474 -0.6426  0.0545  0.1775
 8576TIP3    H147143   5.999   3.171   4.530 -0.0031 -0.0322 -0.2424
 8576TIP3    H247144   5.894   3.279   4.518  1.0340  1.3629  2.3481
 8577TIP3   OH247145   2.579   5.160  12.605 -0.1799 -0.0788  0.1044
 8577TIP3    H147146   2.510   5.114  12.652  0.3554 -0.1996  0.7851
 8577TIP3    H247147   2.615   5.095  12.545 -0.4309 -0.1164 -0.0036
 8578TIP3   OH247148   0.035   5.881   5.029  0.5097  0.3321  0.1911
 8578TIP3    H147149   0.107   5.827   4.998  1.0491  1.1765 -0.0569
 8578TIP3    H247150   0.062   5.971   5.010 -1.0365  0.6231 -0.8771
 8579TIP3   OH247151   2.801   4.438  14.065 -0.2068 -0.1237 -0.7971
 8579TIP3    H147152   2.872   4.374  14.060 -0.9668 -1.0805  0.2878
 8579TIP3    H247153   2.845   4.519  14.091  0.6297 -0.4298 -1.2087
 8580TIP3   OH247154   0.862   4.422  10.897 -0.1066 -0.1731  0.5731
 8580TIP3    H147155   0.952   4.446  10.872 -0.5038  0.8366  0.0425
 8580TIP3    H247156   0.865   4.413  10.992  0.1869  1.6455  0.7837
 8581TIP3   OH247157   4.552   5.390  14.261 -0.2946 -0.1771 -0.2956
 8581TIP3    H147158   4.635   5.346  14.245  0.7543  1.3992  0.6007
 8581TIP3    H247159   4.509   5.392  14.175  2.0534  1.8638 -1.5477
 8582TIP3   OH247160   4.266   2.001   5.721 -0.3021  0.1120 -0.0462
 8582TIP3    H147161   4.329   2.071   5.705 -0.3866  0.3527  0.6182
 8582TIP3    H247162   4.260   1.996   5.817 -0.1001 -0.9830 -0.0783
 8583TIP3   OH247163   3.082   5.127  13.216 -0.3940 -0.2810  0.0001
 8583TIP3    H147164   3.025   5.067  13.262  0.5958 -1.3821 -0.1524
 8583TIP3    H247165   3.169   5.112  13.253  0.4382 -1.1789 -2.1236
 8584TIP3   OH247166   6.460   2.722  12.429 -0.4402 -0.2979 -0.2909
 8584TIP3    H147167   6.439   2.725  12.335 -1.1962  0.2011 -0.1197
 8584TIP3    H247168   6.429   2.637  12.458 -2.4833  0.4726 -0.0155
 8585TIP3   OH247169   4.110   3.796  11.749 -0.6873  0.5951  0.2174
 8585TIP3    H147170   4.201   3.826  11.750 -0.4329 -0.1195  1.8321
 8585TIP3    H247171   4.083   3.802  11.657  0.5599  2.0602 -0.0811
 8586TIP3   OH247172   0.271   0.604   1.334 -0.2468  0.3190 -0.6219
 8586TIP3    H147173   0.235   0.544   1.269 -2.6581 -1.0085  1.7596
 8586TIP3    H247174   0.344   0.556   1.373  0.1170  0.4268 -1.1582
 8587TIP3   OH247175   5.163   1.639   5.062  0.3358 -0.1389  0.8052
 8587TIP3    H147176   5.093   1.703   5.054  0.2708 -0.3153 -0.0742
 8587TIP3    H247177   5.187   1.642   5.155 -0.2636  0.5169  0.9479
 8588TIP3   OH247178   3.327   1.976   2.699  0.1523  0.2847 -0.1293
 8588TIP3    H147179   3.374   2.013   2.625 -0.7640 -0.9672 -1.3904
 8588TIP3    H247180   3.284   1.898   2.664 -0.0688 -0.5222  1.7927
 8589TIP3   OH247181   6.132   2.536  12.919  0.5481 -0.0018 -0.6075
 8589TIP3    H147182   6.067   2.560  12.854 -1.1708  0.3737  1.1631
 8589TIP3    H247183   6.136   2.611  12.979  0.7337 -1.0083  0.7056
 8590TIP3   OH247184   5.312   1.635   0.545 -0.3754 -0.0353 -0.6930
 8590TIP3    H147185   5.233   1.595   0.509 -1.1047  1.1649 -0.4943
 8590TIP3    H247186   5.317   1.720   0.502 -0.3600  0.7549  0.7980
 8591TIP3   OH247187   6.131   5.612   0.633  0.4093 -0.5441 -0.2611
 8591TIP3    H147188   6.106   5.539   0.690  0.8862  0.6563  1.5671
 8591TIP3    H247189   6.111   5.690   0.684  0.1874  0.6418 -2.0489
 8592TIP3   OH247190   6.539   3.852   5.026 -0.2677  0.2206  0.1875
 8592TIP3    H147191   6.491   3.791   4.971 -0.6303  0.6836 -0.0117
 8592TIP3    H247192   6.602   3.797   5.072 -0.3753 -0.2578 -0.2247
 8593TIP3   OH247193   1.446   5.618  10.962 -0.3272 -0.1125 -0.3209
 8593TIP3    H147194   1.439   5.626  10.867  0.8563 -0.7550 -0.4825
 8593TIP3    H247195   1.538   5.632  10.981 -0.7326  1.1568  0.8776
 8594TIP3   OH247196   2.436   5.368  11.839 -0.8505  0.2430  0.8227
 8594TIP3    H147197   2.434   5.402  11.929 -0.2460  0.5099  0.7442
 8594TIP3    H247198   2.393   5.283  11.844  1.2304 -0.8288  1.8416
 8595TIP3   OH247199   6.815   4.005  11.430 -0.1450 -0.0053 -0.4681
 8595TIP3    H147200   6.825   4.021  11.336  0.9397 -1.3530 -0.6159
 8595TIP3    H247201   6.903   4.019  11.466 -0.3936 -0.1962  0.2326
 8596TIP3   OH247202   6.455   3.246  15.747 -0.8456 -0.1010 -0.7529
 8596TIP3    H147203   6.516   3.235  15.675  1.3964  1.0914  0.8277
 8596TIP3    H247204   6.510   3.251  15.825 -3.1152 -0.9577  1.0426
 8597TIP3   OH247205   1.024   2.329  15.168  0.5086 -0.0705  0.4362
 8597TIP3    H147206   0.955   2.265  15.148 -0.4662  0.9882  0.3045
 8597TIP3    H247207   1.105   2.283  15.148 -0.0726 -1.8048  1.7946
 8598TIP3   OH247208   5.392   6.352   2.661 -0.3927  0.3836 -0.0843
 8598TIP3    H147209   5.347   6.421   2.613 -0.0493  0.5318 -0.1984
 8598TIP3    H247210   5.394   6.278   2.600  0.7533  0.8302 -0.6137
 8599TIP3   OH247211   5.206   5.832   3.164 -0.2606  0.7371 -0.5278
 8599TIP3    H147212   5.266   5.869   3.100  1.2524 -0.3019  0.2322
 8599TIP3    H247213   5.139   5.788   3.112 -0.1324  1.5365 -1.3867
 8600TIP3   OH247214   3.070   3.050  16.569 -0.4475 -0.2768 -0.3540
 8600TIP3    H147215   2.975   3.048  16.574 -0.4137  0.3582  0.8521
 8600TIP3    H247216   3.091   3.136  16.534 -0.2620  1.1138  2.8354
 8601TIP3   OH247217   3.785   3.593  10.486 -0.2983  0.4573  0.3629
 8601TIP3    H147218   3.715   3.530  10.472  0.8118 -0.5531 -0.8210
 8601TIP3    H247219   3.742   3.678  10.476 -1.4853 -0.1242  0.3155
 8602TIP3   OH247220   3.482   5.652  16.194  0.6998  0.8862  0.0120
 8602TIP3    H147221   3.469   5.559  16.179 -2.7662  0.9471  1.7523
 8602TIP3    H247222   3.511   5.658  16.285  0.9859  1.5203 -0.1128
 8603TIP3   OH247223   1.252   4.210   2.648  0.1679 -0.5181 -0.1813
 8603TIP3    H147224   1.255   4.216   2.744 -0.4440 -0.4214 -0.1636
 8603TIP3    H247225   1.289   4.293   2.618  1.3225 -0.9685 -0.0465
 8604TIP3   OH247226   4.909   2.558   1.058 -0.5009  0.1596 -0.0467
 8604TIP3    H147227   4.977   2.494   1.076 -0.2710  0.2704 -0.4942
 8604TIP3    H247228   4.889   2.597   1.143 -1.7220 -1.5480  0.4969
 8605TIP3   OH247229   0.503   6.645   4.828  0.2498 -0.0416 -0.5158
 8605TIP3    H147230   0.527   6.737   4.837  3.7175 -0.7288 -1.3811
 8605TIP3    H247231   0.509   6.610   4.917 -0.9775  0.5113 -0.2016
 8606TIP3   OH247232   1.403   1.264   2.458 -0.0336 -0.1629  0.0081
 8606TIP3    H147233   1.390   1.298   2.370 -0.2298 -1.8573 -0.6390
 8606TIP3    H247234   1.345   1.317   2.513 -1.7396 -0.6578 -1.2486
 8607TIP3   OH247235   4.017   4.960   0.933  0.5592  0.4645 -0.1312
 8607TIP3    H147236   3.955   5.024   0.968  0.9141  1.1941 -0.8003
 8607TIP3    H247237   3.998   4.958   0.839  2.3845  1.6760 -0.5698
 8608TIP3   OH247238   0.504   0.934   0.351  0.6643 -0.0738  0.0556
 8608TIP3    H147239   0.543   0.863   0.401  0.1001 -0.4071  0.0307
 8608TIP3    H247240   0.482   1.001   0.416 -0.0766 -0.5089  0.2573
 8609TIP3   OH247241   3.364   4.073  11.721 -0.6316  0.4379  0.3569
 8609TIP3    H147242   3.324   4.148  11.765  0.5979  0.4537  1.4785
 8609TIP3    H247243   3.296   4.005  11.723 -1.0429  0.8626  1.1145
 8610TIP3   OH247244   2.027   4.717  12.729  0.2069  0.4454 -1.0499
 8610TIP3    H147245   2.103   4.719  12.671  1.5895  1.7262  0.6982
 8610TIP3    H247246   2.047   4.781  12.797 -2.2176  0.4214 -0.2132
 8611TIP3   OH247247   3.823   3.488   5.537  0.5344 -0.4194  0.1773
 8611TIP3    H147248   3.828   3.414   5.597 -2.1350 -0.6469  0.2350
 8611TIP3    H247249   3.732   3.488   5.507  1.7075 -0.4437 -4.0254
 8612TIP3   OH247250   5.848   1.457  12.171  0.1952 -0.0478 -0.0264
 8612TIP3    H147251   5.923   1.422  12.124 -0.2946  0.9982 -1.6522
 8612TIP3    H247252   5.879   1.542  12.205 -0.4327  0.7705 -1.3927
 8613TIP3   OH247253   4.901   0.570  10.628 -0.2155 -0.0080 -0.1675
 8613TIP3    H147254   4.908   0.600  10.538 -1.0702  0.7995  0.0189
 8613TIP3    H247255   4.907   0.474  10.623  0.5891  0.0832 -0.9824
 8614TIP3   OH247256   0.589   4.316  16.942  0.3596  0.0031 -0.1186
 8614TIP3    H147257   0.582   4.376  16.867  2.1240 -0.8903 -1.0663
 8614TIP3    H247258   0.653   4.357  17.000  0.4113 -0.2206 -0.0149
 8615TIP3   OH247259   4.724   0.092   5.564  0.4093 -0.1647  0.0481
 8615TIP3    H147260   4.790   0.025   5.584  0.3710 -0.7437 -1.6050
 8615TIP3    H247261   4.640   0.050   5.582  0.3814 -0.6312 -1.0720
 8616TIP3   OH247262   4.429   3.612  15.295 -0.0002  0.8816  0.4019
 8616TIP3    H147263   4.406   3.619  15.202 -1.3828  1.6199  0.7689
 8616TIP3    H247264   4.524   3.628  15.297  0.1174  0.4910 -0.9114
 8617TIP3   OH247265   3.223   5.874   4.706  0.0294  0.0036 -0.2912
 8617TIP3    H147266   3.147   5.862   4.762  0.5303  0.8675  0.5981
 8617TIP3    H247267   3.270   5.947   4.744  0.4407  0.5607 -1.7945
 8618TIP3   OH247268   1.122   5.571  12.043 -0.2212  0.0335 -0.0514
 8618TIP3    H147269   1.039   5.615  12.061 -0.6576 -0.5137 -0.7092
 8618TIP3    H247270   1.098   5.482  12.019  0.5925 -0.2801  0.2469
 8619TIP3   OH247271   0.679   6.035   3.674  0.4542 -0.1021  0.0288
 8619TIP3    H147272   0.644   6.103   3.617  0.4449 -0.7213 -0.7239
 8619TIP3    H247273   0.684   5.957   3.618 -1.2735 -1.2351  1.3426
 8620TIP3   OH247274   2.729   4.749   5.761 -0.4216  0.6635 -0.7408
 8620TIP3    H147275   2.725   4.747   5.665 -1.3042  0.8930 -0.7168
 8620TIP3    H247276   2.697   4.662   5.787 -1.2206  0.9843 -0.6341
 8621TIP3   OH247277   2.480   6.413   0.578 -0.0738 -0.1559  0.9119
 8621TIP3    H147278   2.465   6.503   0.547  0.5046 -0.0314  0.9871
 8621TIP3    H247279   2.543   6.376   0.518  0.1566 -0.3077  1.2435
 8622TIP3   OH247280   1.795   3.668  12.719 -0.0572 -0.1585  0.2801
 8622TIP3    H147281   1.712   3.648  12.762 -0.6304  1.5032  0.0327
 8622TIP3    H247282   1.861   3.659  12.788 -0.4842 -1.0874  0.5820
 8623TIP3   OH247283   1.432   6.034  12.335  0.6623  0.2317 -0.0560
 8623TIP3    H147284   1.482   6.031  12.253 -0.9058  1.2743 -1.1224
 8623TIP3    H247285   1.362   5.969  12.322  1.1212 -0.5090  1.0126
 8624TIP3   OH247286   0.488   3.504   5.144 -0.0477  0.6346 -0.1634
 8624TIP3    H147287   0.558   3.440   5.131 -0.2073  0.0272  1.6349
 8624TIP3    H247288   0.533   3.589   5.146  0.6823  0.2509  1.0080
 8625TIP3   OH247289   1.579   4.649  14.716 -0.3779  0.0273  0.2670
 8625TIP3    H147290   1.571   4.585  14.645  0.5946  0.0751  0.0912
 8625TIP3    H247291   1.670   4.680  14.710 -0.5748  0.7741  0.9047
 8626TIP3   OH247292   2.487   0.355  13.195  0.5800  0.2864  0.0151
 8626TIP3    H147293   2.477   0.429  13.254  1.1513  0.7250 -0.4259
 8626TIP3    H247294   2.502   0.280  13.254 -0.5806  0.4030  0.4793
 8627TIP3   OH247295   3.674   4.563  15.877 -0.0239  0.4740 -0.9049
 8627TIP3    H147296   3.598   4.620  15.862 -0.2495  0.0340 -1.4674
 8627TIP3    H247297   3.638   4.475  15.883  0.2662  0.4231  0.5106
 8628TIP3   OH247298   2.704   6.203   3.350  0.9651  0.1957 -0.1930
 8628TIP3    H147299   2.787   6.161   3.326  0.4451 -1.9347  1.3954
 8628TIP3    H247300   2.653   6.133   3.391 -0.5700  2.0970  1.3319
 8629TIP3   OH247301   5.464   4.205   5.786 -0.5145 -0.2629  0.0803
 8629TIP3    H147302   5.557   4.204   5.809 -1.0811  0.0085  2.7392
 8629TIP3    H247303   5.458   4.150   5.708  1.9241  0.1312 -0.4679
 8630TIP3   OH247304   5.955   3.442  12.020  1.0247  0.0618 -0.3600
 8630TIP3    H147305   5.920   3.453  12.108 -0.0691  1.0723 -0.8850
 8630TIP3    H247306   6.042   3.482  12.024  1.4549 -0.9228  0.5316
 8631TIP3   OH247307   5.162   6.575   2.688  0.6019  0.3171 -0.1615
 8631TIP3    H147308   5.098   6.516   2.728  2.0866 -0.5317  1.0801
 8631TIP3    H247309   5.109   6.643   2.646 -1.2217 -2.2193 -2.2687
 8632TIP3   OH247310   2.124   4.859   2.480  0.0580  0.1044  0.9745
 8632TIP3    H147311   2.124   4.795   2.409  0.9410 -2.7669  3.3657
 8632TIP3    H247312   2.145   4.942   2.437 -0.4809 -1.2402 -2.2193
 8633TIP3   OH247313   5.909   2.113  11.122  0.3766 -0.3868  0.3211
 8633TIP3    H147314   5.950   2.148  11.042 -0.4767 -2.0872 -0.9257
 8633TIP3    H247315   5.893   2.190  11.176  0.4657  0.8956 -1.3906
 8634TIP3   OH247316   2.261   2.352  13.967 -0.4804 -0.3527  0.1860
 8634TIP3    H147317   2.218   2.287  13.913  0.9804 -0.8379 -0.4609
 8634TIP3    H247318   2.339   2.307  14.001 -0.7248  0.3181  1.7268
 8635TIP3   OH247319   6.647   1.911   1.345 -0.0120  0.2612  0.0835
 8635TIP3    H147320   6.685   1.843   1.289  1.5301  0.1937  1.1464
 8635TIP3    H247321   6.720   1.970   1.365 -1.1735  1.8953 -0.2785
 8636TIP3   OH247322   3.464   6.533   0.651  0.1492 -0.6585 -0.0184
 8636TIP3    H147323   3.397   6.529   0.718 -1.4663  0.3010 -1.4712
 8636TIP3    H247324   3.539   6.487   0.688 -0.5954 -0.0091  2.4695
 8637TIP3   OH247325   4.618   4.796  15.390  0.3592 -0.0483 -0.1101
 8637TIP3    H147326   4.629   4.731  15.320 -0.4995 -0.8275  0.4418
 8637TIP3    H247327   4.642   4.749  15.470 -2.7233 -0.5844  0.6301
 8638TIP3   OH247328   2.524   5.984  11.289  0.4121  0.4303 -0.1585
 8638TIP3    H147329   2.464   6.010  11.358 -2.1368  0.4441 -2.2121
 8638TIP3    H247330   2.578   6.061  11.274  0.4059  0.7171  1.1747
 8639TIP3   OH247331   6.434   6.454  14.263 -0.5736  1.1229  0.2166
 8639TIP3    H147332   6.490   6.468  14.187  3.0258 -1.6680  2.0912
 8639TIP3    H247333   6.371   6.388  14.234  0.1740  0.7473 -0.6057
 8640TIP3   OH247334   4.954   4.305  15.875 -0.3056 -0.2865  0.1307
 8640TIP3    H147335   4.866   4.343  15.876 -1.3311 -2.5022  0.2782
 8640TIP3    H247336   4.991   4.330  15.960 -0.3394  1.5131 -0.3268
 8641TIP3   OH247337   0.324   5.336   0.432  0.6588 -0.2380  0.4971
 8641TIP3    H147338   0.240   5.357   0.472  1.7532  2.3306  1.6719
 8641TIP3    H247339   0.374   5.293   0.501  1.1021  0.3718  0.5649
 8642TIP3   OH247340   3.822   2.059   5.365 -0.6347  0.6308  0.2358
 8642TIP3    H147341   3.754   1.992   5.376  0.1409 -0.4373 -1.1496
 8642TIP3    H247342   3.780   2.128   5.314 -0.9844  0.4847  0.3210
 8643TIP3   OH247343   3.001   6.608   5.254 -0.2490  0.4730 -0.1914
 8643TIP3    H147344   3.032   6.574   5.338  0.3830  0.5080 -0.3982
 8643TIP3    H247345   2.918   6.650   5.274  0.1557  0.9673  0.5259
 8644TIP3   OH247346   3.794   4.774   3.511  0.1115 -0.5227 -0.0308
 8644TIP3    H147347   3.845   4.839   3.562 -0.9501  0.8452 -0.6485
 8644TIP3    H247348   3.776   4.818   3.428 -1.0485 -1.4434 -0.2837
 8645TIP3   OH247349   1.333   4.201  11.560  0.1925 -0.0871 -0.0112
 8645TIP3    H147350   1.343   4.267  11.490  0.5418  1.6816  1.6112
 8645TIP3    H247351   1.314   4.253  11.638 -0.5306 -2.0350  1.1552
 8646TIP3   OH247352   0.204   0.511   2.256  0.0940  0.2863 -0.1372
 8646TIP3    H147353   0.122   0.557   2.237  0.2592  1.2955  1.3870
 8646TIP3    H247354   0.196   0.484   2.348  1.0193 -0.5756 -0.2886
 8647TIP3   OH247355   6.806   4.113  11.171 -0.2843  0.0689  0.0687
 8647TIP3    H147356   6.835   4.182  11.112  0.0703 -0.3154 -0.2164
 8647TIP3    H247357   6.711   4.117  11.169 -0.2645  0.5025  0.0016
 8648TIP3   OH247358   3.893   5.923   4.300 -0.0879 -0.2647  0.2507
 8648TIP3    H147359   3.937   6.000   4.263 -0.9182  0.5819  0.9834
 8648TIP3    H247360   3.879   5.945   4.392 -0.0776 -1.4186  0.5347
 8649TIP3   OH247361   1.605   3.930  14.895 -0.6528  0.0971  0.6071
 8649TIP3    H147362   1.511   3.937  14.881 -0.5319  1.2994  0.3036
 8649TIP3    H247363   1.628   3.842  14.864 -1.2314  0.7893 -2.0203
 8650TIP3   OH247364   0.684   1.301  10.897 -0.1541 -0.3829  0.0487
 8650TIP3    H147365   0.687   1.263  10.984  0.6127  0.6439  0.5027
 8650TIP3    H247366   0.592   1.299  10.872 -0.5031  0.0642  1.2360
 8651TIP3   OH247367   3.847   5.663   1.975  0.4493 -0.0653 -0.3884
 8651TIP3    H147368   3.852   5.749   2.017 -0.0231 -0.4123  0.4039
 8651TIP3    H247369   3.932   5.653   1.933  0.5142  0.7851 -0.4821
 8652TIP3   OH247370   1.535   0.174  15.949 -0.0133 -0.3937  0.2373
 8652TIP3    H147371   1.532   0.107  15.881  2.0266 -0.2470 -0.0696
 8652TIP3    H247372   1.597   0.140  16.013  0.7232  0.9951  0.2980
 8653TIP3   OH247373   5.667   2.971   5.649  0.2260  0.5154 -0.4702
 8653TIP3    H147374   5.672   3.060   5.615 -1.8829  1.0237  0.4195
 8653TIP3    H247375   5.739   2.965   5.712 -0.4811  2.0952  0.5351
 8654TIP3   OH247376   1.881   1.675  13.865 -0.2051  0.1464 -0.0146
 8654TIP3    H147377   1.872   1.656  13.771 -0.1344  0.7385 -0.1481
 8654TIP3    H247378   1.803   1.637  13.905 -0.0492 -0.4453 -0.2596
 8655TIP3   OH247379   2.540   4.002   2.933  0.4090  0.3297 -0.3715
 8655TIP3    H147380   2.576   3.930   2.985  0.8371  0.7369 -0.0879
 8655TIP3    H247381   2.582   4.081   2.970  0.0839  0.7024 -0.7896
 8656TIP3   OH247382   3.420   1.591   6.487  0.0020  0.3099  0.0525
 8656TIP3    H147383   3.493   1.560   6.541 -0.3884  0.1188  0.4795
 8656TIP3    H247384   3.442   1.683   6.468 -0.7129  0.9482  2.0581
 8657TIP3   OH247385   4.698   5.072   3.314 -0.0337 -0.1281  0.7330
 8657TIP3    H147386   4.678   5.067   3.220  0.7959  1.5773  0.4310
 8657TIP3    H247387   4.615   5.098   3.354 -0.0232  0.6520  0.2706
 8658TIP3   OH247388   6.262   0.685   2.285 -0.3215 -0.1189 -0.4769
 8658TIP3    H147389   6.324   0.613   2.295 -0.6312 -0.4161 -0.7021
 8658TIP3    H247390   6.264   0.730   2.369 -0.6836 -0.8368 -0.0744
 8659TIP3   OH247391   6.313   0.745  11.557  0.2038  0.4540 -0.0354
 8659TIP3    H147392   6.253   0.682  11.596 -0.6851  1.0801 -0.3622
 8659TIP3    H247393   6.286   0.752  11.466  0.1221  1.4793  0.0507
 8660TIP3   OH247394   5.265   0.979  12.260 -0.4930  0.4128  0.0349
 8660TIP3    H147395   5.243   1.066  12.294 -0.3347  0.8631 -0.9657
 8660TIP3    H247396   5.354   0.988  12.226 -0.5106 -0.1134 -0.1609
 8661TIP3   OH247397   6.616   5.175   1.197  0.1211  0.4780  0.0808
 8661TIP3    H147398   6.688   5.113   1.204 -0.3341 -0.2210 -1.2236
 8661TIP3    H247399   6.599   5.202   1.288  1.8544  0.4917  0.4371
 8662TIP3   OH247400   3.497   6.211  10.488  0.0959  0.1763 -0.4257
 8662TIP3    H147401   3.426   6.275  10.492  0.1369  0.1596  1.0384
 8662TIP3    H247402   3.540   6.229  10.405  0.0734  2.0237 -0.0803
 8663TIP3   OH247403   2.438   5.984   1.548  0.3100 -0.4537  0.4787
 8663TIP3    H147404   2.448   6.080   1.546  0.8993 -0.4408 -3.5672
 8663TIP3    H247405   2.496   5.957   1.619  0.6008  2.1319  1.3639
 8664TIP3   OH247406   4.020   0.118  13.371  0.7567  0.6266  0.1450
 8664TIP3    H147407   3.978   0.135  13.287 -1.4776  0.0000  1.0665
 8664TIP3    H247408   3.999   0.194  13.424 -1.9471 -0.9379  1.5544
 8665TIP3   OH247409   5.570   6.737  13.812 -0.8491 -0.8362 -0.8423
 8665TIP3    H147410   5.475   6.726  13.823 -0.8565 -0.0420  0.0287
 8665TIP3    H247411   5.589   6.822  13.851  0.3429 -1.3369 -0.2664
 8666TIP3   OH247412   6.220   5.731   2.605  0.5221  0.3853 -0.1766
 8666TIP3    H147413   6.127   5.707   2.596  0.8362 -0.3827 -1.7922
 8666TIP3    H247414   6.243   5.767   2.519  2.1402 -1.0403 -0.3801
 8667TIP3   OH247415   2.014   2.353   0.642  0.3541  0.1446 -0.3855
 8667TIP3    H147416   2.010   2.326   0.734 -0.6945  2.5694  0.3490
 8667TIP3    H247417   1.999   2.272   0.594 -1.4032 -0.8433  1.6360
 8668TIP3   OH247418   2.287   6.764   2.917 -0.5461 -0.1173 -0.0311
 8668TIP3    H147419   2.345   6.834   2.946 -1.1804  1.4668 -2.3142
 8668TIP3    H247420   2.340   6.713   2.855 -0.3852 -1.1552  0.9183
 8669TIP3   OH247421   6.407   5.961   2.375 -0.4508 -0.2738  0.5825
 8669TIP3    H147422   6.500   5.958   2.349 -0.7843 -2.0574 -0.6190
 8669TIP3    H247423   6.391   6.053   2.395  1.3641  0.2266 -0.0324
 8670TIP3   OH247424   6.173   0.049   1.343 -0.4721  0.1284  0.0271
 8670TIP3    H147425   6.222  -0.032   1.360 -1.5954 -0.8593 -1.1932
 8670TIP3    H247426   6.103   0.022   1.283 -0.7492  2.0646 -0.5812
 8671TIP3   OH247427   4.820   3.617   2.183  0.4239 -0.4576  0.3941
 8671TIP3    H147428   4.880   3.661   2.243 -1.0690 -0.6471  2.1313
 8671TIP3    H247429   4.865   3.536   2.159  1.4705  0.0926  0.4654
 8672TIP3   OH247430   3.546   5.860  12.494  0.2230 -0.3008  0.2061
 8672TIP3    H147431   3.596   5.852  12.575  0.1176  0.9425  0.4111
 8672TIP3    H247432   3.578   5.941  12.454 -0.3589 -0.4352 -0.5523
 8673TIP3   OH247433   0.851   6.193   3.270 -0.6239  0.0785 -0.0351
 8673TIP3    H147434   0.876   6.230   3.355 -1.9853 -0.5443  0.6722
 8673TIP3    H247435   0.876   6.260   3.206  2.3187 -0.2745  0.5911
 8674TIP3   OH247436   0.783   4.514  14.622 -0.5861 -0.2163 -0.5013
 8674TIP3    H147437   0.794   4.428  14.663  0.9897  0.6329  1.0144
 8674TIP3    H247438   0.812   4.502  14.532  0.9164 -1.0157  0.0485
 8675TIP3   OH247439   5.555   3.428   4.335 -0.1135  0.2411  0.2592
 8675TIP3    H147440   5.478   3.372   4.340  0.2590 -0.4666 -1.2640
 8675TIP3    H247441   5.617   3.390   4.398  0.2164 -1.2251 -0.9154
 8676TIP3   OH247442   1.548   0.363   3.680  1.1591 -0.0713 -0.1699
 8676TIP3    H147443   1.555   0.286   3.736  0.3883 -0.0523 -0.0444
 8676TIP3    H247444   1.547   0.437   3.741  0.8547 -0.0205 -0.2341
 8677TIP3   OH247445   6.512   4.966   2.675  0.1517 -0.3553 -0.1329
 8677TIP3    H147446   6.506   4.928   2.587 -0.5342  0.7518 -0.5888
 8677TIP3    H247447   6.438   4.930   2.722  0.5784 -1.0309  0.0337
 8678TIP3   OH247448   3.117   6.561  14.510  0.4011 -0.2673  0.5773
 8678TIP3    H147449   3.119   6.608  14.593  0.8478  0.7834 -0.0184
 8678TIP3    H247450   3.027   6.567  14.480  0.6920  1.2262 -0.0544
 8679TIP3   OH247451   5.938   5.259   1.287 -0.6207 -0.2847  0.3347
 8679TIP3    H147452   5.992   5.249   1.209 -0.0562 -1.2063  0.8352
 8679TIP3    H247453   5.955   5.349   1.316  0.2320 -0.4008  0.1975
 8680TIP3   OH247454   4.538   3.762   5.817 -0.0779 -0.1157  0.5724
 8680TIP3    H147455   4.499   3.729   5.736  0.6235 -0.1673  0.2549
 8680TIP3    H247456   4.479   3.731   5.886 -1.5474  1.1889 -0.0144
 8681TIP3   OH247457   0.495   1.519  13.474 -0.0910 -0.4336 -0.1222
 8681TIP3    H147458   0.409   1.560  13.464 -0.1554 -0.4351  0.3773
 8681TIP3    H247459   0.546   1.550  13.399 -0.8353 -1.2294 -0.9855
 8682TIP3   OH247460   1.462   3.486  14.288 -0.3819  0.1529  0.3354
 8682TIP3    H147461   1.454   3.553  14.356 -0.2266  1.1769 -0.6248
 8682TIP3    H247462   1.376   3.482  14.247 -0.7142 -1.0601  1.1148
 8683TIP3   OH247463   6.671   6.826   2.237  0.5075  0.7562  0.1983
 8683TIP3    H147464   6.732   6.819   2.163  1.2087 -0.5591  0.8657
 8683TIP3    H247465   6.714   6.778   2.307 -2.0031 -1.6345  0.2390
 8684TIP3   OH247466   3.026   2.937  12.999  0.5255  0.0402 -0.1591
 8684TIP3    H147467   2.958   2.877  13.030  1.0534 -1.1909 -1.3199
 8684TIP3    H247468   3.093   2.935  13.067  0.6261 -0.8522 -0.2745
 8685TIP3   OH247469   2.434   0.329  16.057  0.5864  0.2665 -0.4378
 8685TIP3    H147470   2.460   0.397  16.119 -1.2035  1.8155 -1.2851
 8685TIP3    H247471   2.377   0.271  16.108  0.5180  0.5333 -0.2068
 8686TIP3   OH247472   2.050   3.214   4.398  0.8908  0.2259  0.2089
 8686TIP3    H147473   2.072   3.220   4.491  1.8026  0.0759  0.0057
 8686TIP3    H247474   1.977   3.152   4.395 -0.8745  2.1217  1.0805
 8687TIP3   OH247475   1.428   4.837   2.061  0.2047 -0.1670  0.2959
 8687TIP3    H147476   1.463   4.906   2.004  1.0224 -1.5568 -0.9706
 8687TIP3    H247477   1.353   4.803   2.012 -0.5852  0.2100  1.2093
 8688TIP3   OH247478   0.694   3.645  14.334  0.0871  0.2724 -0.1230
 8688TIP3    H147479   0.747   3.688  14.267  0.0509 -1.0859 -1.0617
 8688TIP3    H247480   0.708   3.552  14.319 -3.9117 -0.2655 -1.6232
 8689TIP3   OH247481   0.125   4.255   0.793 -0.7742  0.4436 -0.2487
 8689TIP3    H147482   0.177   4.183   0.757 -0.6195  1.1655 -1.5213
 8689TIP3    H247483   0.041   4.248   0.747 -1.4592 -0.0617  1.0135
 8690TIP3   OH247484   1.287   1.229   2.065 -0.1347  0.2927  0.0852
 8690TIP3    H147485   1.230   1.203   2.138 -0.0825 -0.6059 -0.1929
 8690TIP3    H247486   1.248   1.189   1.988 -0.3287  1.4414 -0.4415
 8691TIP3   OH247487   1.003   1.793   2.419 -0.6074 -0.3614  0.0445
 8691TIP3    H147488   0.981   1.866   2.361  0.2649 -0.4338 -0.3826
 8691TIP3    H247489   0.946   1.806   2.495  0.1705  1.2909  0.3953
 8692TIP3   OH247490   0.131   6.509   0.918  0.1019  0.5817  0.4514
 8692TIP3    H147491   0.074   6.431   0.914  0.9330 -0.0459  0.6305
 8692TIP3    H247492   0.089   6.572   0.859  0.0940 -0.4697 -0.7159
 8693TIP3   OH247493   4.385   4.616  12.698 -0.2730  1.0504 -0.4562
 8693TIP3    H147494   4.472   4.648  12.675  0.4426  0.2187  0.9784
 8693TIP3    H247495   4.382   4.528  12.661  0.1528  0.4450  0.8974
 8694TIP3   OH247496   6.403   1.698  10.703 -0.0889 -0.1776 -0.4892
 8694TIP3    H147497   6.361   1.623  10.744 -1.0774  0.2894 -0.6102
 8694TIP3    H247498   6.364   1.774  10.746  1.0086  0.2801 -0.2555
 8695TIP3   OH247499   4.072   2.130  10.610  0.0586 -0.5674 -0.4373
 8695TIP3    H147500   4.073   2.099  10.519  1.5633  1.2435 -1.1153
 8695TIP3    H247501   4.160   2.167  10.624 -0.3824 -0.1393  1.5104
 8696TIP3   OH247502   4.035   4.087  13.147  0.6081  0.3454  0.2038
 8696TIP3    H147503   4.122   4.112  13.114  0.9760 -1.0300  0.0821
 8696TIP3    H247504   4.025   3.996  13.121 -1.0658  0.6031 -0.1433
 8697TIP3   OH247505   6.490   6.594   3.612 -0.2192  0.1557  0.4183
 8697TIP3    H147506   6.439   6.648   3.552  1.8057  0.4423 -1.1585
 8697TIP3    H247507   6.528   6.656   3.674 -1.3919 -0.0041  1.3123
 8698TIP3   OH247508   4.561   1.769   5.216 -0.4525  0.3062 -0.2123
 8698TIP3    H147509   4.565   1.853   5.170  1.2334 -0.1234 -0.9559
 8698TIP3    H247510   4.507   1.786   5.294 -0.4277  1.9806 -0.5280
 8699TIP3   OH247511   1.586   6.710  11.919 -0.5462  0.0371 -0.3128
 8699TIP3    H147512   1.676   6.742  11.929 -0.0720 -0.8283 -1.6058
 8699TIP3    H247513   1.595   6.631  11.865 -2.2517  0.8916 -1.9342
 8700TIP3   OH247514   5.665   3.654  10.999 -0.0732 -0.3375 -0.0229
 8700TIP3    H147515   5.641   3.742  10.971  0.1041 -0.7970 -1.7560
 8700TIP3    H247516   5.756   3.662  11.028 -0.2709  0.1672  0.4807
 8701TIP3   OH247517   5.328   1.750  12.280 -0.1418  0.0018  0.1819
 8701TIP3    H147518   5.282   1.780  12.202 -0.3265  1.6384  0.8692
 8701TIP3    H247519   5.406   1.807  12.285 -0.0060 -0.2367  1.0476
 8702TIP3   OH247520   4.215   5.596   3.093 -0.1677 -0.7029  0.3899
 8702TIP3    H147521   4.244   5.686   3.084  1.2091 -1.1982 -0.4420
 8702TIP3    H247522   4.121   5.599   3.079 -0.4250  0.8266  2.0912
 8703TIP3   OH247523   3.786   3.408   2.882 -0.1923 -0.0268 -0.0300
 8703TIP3    H147524   3.777   3.375   2.971  0.8738 -0.4200 -0.0425
 8703TIP3    H247525   3.850   3.479   2.889 -0.4560  0.2508 -0.4100
 8704TIP3   OH247526   4.962   1.752   0.508 -0.3344  0.1202  0.1798
 8704TIP3    H147527   4.995   1.748   0.598 -0.2335 -0.7383  0.1084
 8704TIP3    H247528   4.998   1.674   0.466 -0.9739  0.1386 -0.4106
 8705TIP3   OH247529   0.038   6.057   3.254  0.0930 -0.6252  0.6447
 8705TIP3    H147530   0.110   6.082   3.312  0.2045 -1.2670  0.7899
 8705TIP3    H247531  -0.040   6.065   3.309 -0.0029  0.4831  0.3651
 8706TIP3   OH247532   1.184   2.439   0.347  1.0504 -0.0757 -0.1708
 8706TIP3    H147533   1.257   2.497   0.324  1.3966 -0.9096 -1.2022
 8706TIP3    H247534   1.195   2.363   0.291 -0.1977 -0.5435  0.1999
 8707TIP3   OH247535   3.433   0.426   1.775  0.2297  0.6882  0.4067
 8707TIP3    H147536   3.422   0.520   1.767  0.6761  0.9300  2.1538
 8707TIP3    H247537   3.444   0.411   1.869  0.5076 -1.0651  0.1349
 8708TIP3   OH247538   3.862   4.438  11.817  0.0995  0.3102 -0.3623
 8708TIP3    H147539   3.930   4.502  11.797 -1.1276  1.5870 -0.6513
 8708TIP3    H247540   3.780   4.483  11.796 -0.8563 -1.0824  0.2076
 8709TIP3   OH247541   1.604   5.873   0.107 -0.0539 -0.3755  0.8823
 8709TIP3    H147542   1.518   5.910   0.086  0.3983  1.4489  2.0021
 8709TIP3    H247543   1.588   5.814   0.180 -0.1249  1.6058  2.5537
 8710TIP3   OH247544   0.903   4.872   4.468  0.8859  0.1360 -0.1536
 8710TIP3    H147545   0.849   4.912   4.535 -0.1373 -1.3492 -0.0371
 8710TIP3    H247546   0.847   4.870   4.390  1.1692 -0.3977 -0.3500
 8711TIP3   OH247547   1.555   2.329   3.860 -0.8773  0.3295 -0.0680
 8711TIP3    H147548   1.515   2.378   3.788  0.1630  0.3676 -0.6304
 8711TIP3    H247549   1.557   2.239   3.829 -0.4898  0.3346 -0.0593
 8712TIP3   OH247550   5.059   3.854   5.308  0.3532  0.7702  0.1199
 8712TIP3    H147551   5.083   3.763   5.292  0.0958  0.3940  1.6542
 8712TIP3    H247552   4.983   3.870   5.253  0.3453  0.0246 -0.0905
 8713TIP3   OH247553   6.480   4.390   1.096 -0.0530 -0.2305 -0.1077
 8713TIP3    H147554   6.517   4.458   1.152  1.0570  0.5616 -1.7365
 8713TIP3    H247555   6.432   4.438   1.029  0.1488 -1.0808 -0.8745
 8714TIP3   OH247556   4.216   2.101  12.957  0.1008  0.5890 -0.7914
 8714TIP3    H147557   4.299   2.145  12.971 -0.4289  1.3442  0.0781
 8714TIP3    H247558   4.158   2.136  13.025 -0.3875 -1.3405 -0.1732
 8715TIP3   OH247559   1.344   1.922  12.489  0.4039  0.5560  0.3225
 8715TIP3    H147560   1.414   1.971  12.445  0.8725  0.1411  0.5942
 8715TIP3    H247561   1.292   1.988  12.534  2.0424  0.6944  2.1334
 8716TIP3   OH247562   1.734   4.626   1.988 -1.1791  0.1256  0.2166
 8716TIP3    H147563   1.759   4.557   1.928  1.5485  1.7339 -0.6908
 8716TIP3    H247564   1.780   4.605   2.070 -0.5933  0.6620  0.0344
 8717TIP3   OH247565   6.553   1.170  13.208 -0.2539 -0.4089 -0.6466
 8717TIP3    H147566   6.539   1.262  13.187  1.2438 -0.6810 -3.3054
 8717TIP3    H247567   6.612   1.171  13.284  0.5654  0.8591 -1.2671
 8718TIP3   OH247568   1.020   5.224   1.938 -0.4023 -0.2879 -0.2773
 8718TIP3    H147569   1.014   5.141   1.890  1.6493 -0.8089  0.2988
 8718TIP3    H247570   1.106   5.222   1.979 -0.4065  2.0417 -0.0466
 8719TIP3   OH247571   6.112   3.815  13.442  0.1495 -0.1581 -0.0827
 8719TIP3    H147572   6.160   3.755  13.385 -0.2343 -0.1231 -0.4439
 8719TIP3    H247573   6.028   3.772  13.456 -1.3221  1.6152 -2.7558
 8720TIP3   OH247574   5.514   6.770   6.020 -0.3901 -0.0638  0.5034
 8720TIP3    H147575   5.531   6.677   6.029 -0.6577 -0.1405  0.2093
 8720TIP3    H247576   5.439   6.786   6.078  1.4683  0.5339  2.9025
 8721TIP3   OH247577   6.205   2.280  11.078  0.3857 -0.6414  1.0015
 8721TIP3    H147578   6.130   2.331  11.047  1.7144  0.8273  0.1130
 8721TIP3    H247579   6.210   2.301  11.172 -0.3173 -0.7891  1.0843
 8722TIP3   OH247580   0.993   3.433   1.974 -0.2929  0.6626  0.7194
 8722TIP3    H147581   1.031   3.373   2.039 -2.0432 -0.8582  0.4268
 8722TIP3    H247582   0.983   3.380   1.895 -0.8116  1.6755  0.0806
 8723TIP3   OH247583   1.340   1.779   2.137 -0.2564  0.0996 -0.5287
 8723TIP3    H147584   1.341   1.772   2.233  1.1913  0.1365 -0.5185
 8723TIP3    H247585   1.325   1.872   2.120 -0.5315  0.0910 -0.3419
 8724TIP3   OH247586   3.481   0.675   2.055  0.1869 -0.4290  0.1442
 8724TIP3    H147587   3.408   0.690   2.114 -0.7753 -0.6207 -0.9701
 8724TIP3    H247588   3.558   0.672   2.112 -0.6901 -0.4595  1.3538
 8725TIP3   OH247589   2.920   6.300   1.179 -0.0846  0.3075  0.2536
 8725TIP3    H147590   2.977   6.250   1.237  0.6371  1.1422  0.2884
 8725TIP3    H247591   2.944   6.270   1.091  1.3353  1.5252  0.1761
 8726TIP3   OH247592   5.852   6.020   3.305  0.4325  0.2792  0.5563
 8726TIP3    H147593   5.905   5.964   3.360  0.8900  1.4363  1.3240
 8726TIP3    H247594   5.873   5.993   3.215 -0.7980 -2.0529  0.8820
 8727TIP3   OH247595   6.528   6.315  11.350  0.1579  0.2740  0.0143
 8727TIP3    H147596   6.474   6.307  11.271 -1.1705 -3.5003  1.0978
 8727TIP3    H247597   6.469   6.354  11.414  0.1141  0.1121  0.0714
 8728TIP3   OH247598   2.047   3.560  16.320 -0.0064  0.0718  0.1392
 8728TIP3    H147599   2.010   3.607  16.394 -0.3948  2.5790 -1.5423
 8728TIP3    H247600   1.979   3.562  16.253  0.7580 -1.1307 -0.7231
 8729TIP3   OH247601   3.285   5.147   0.300  0.0240 -0.0786  0.8438
 8729TIP3    H147602   3.294   5.240   0.278  0.9458  0.1818  2.1722
 8729TIP3    H247603   3.207   5.119   0.254  0.6798  0.9148 -0.9970
 8730TIP3   OH247604   5.655   5.584   3.878  0.3572  0.1965  0.4587
 8730TIP3    H147605   5.632   5.492   3.864  0.5735  0.1431  0.4579
 8730TIP3    H247606   5.572   5.625   3.903 -0.3309  0.5644 -2.2002
 8731TIP3   OH247607   1.045   4.328  12.855  0.8001  0.2859  0.2797
 8731TIP3    H147608   1.047   4.414  12.897 -0.5523  1.8254 -2.5402
 8731TIP3    H247609   0.993   4.274  12.915 -0.8692  2.2862  0.7737
 8732TIP3   OH247610   0.807   4.672  15.441  0.6260  0.5574 -0.0083
 8732TIP3    H147611   0.721   4.693  15.479  1.7120  1.4536  2.1054
 8732TIP3    H247612   0.809   4.724  15.360 -1.6639 -1.2287 -1.3275
 8733TIP3   OH247613   1.811   1.500  14.115 -0.2999 -0.1491  0.1368
 8733TIP3    H147614   1.832   1.585  14.154 -2.2061 -0.1031  1.1886
 8733TIP3    H247615   1.738   1.467  14.168  0.4911 -2.5207 -0.1618
 8734TIP3   OH247616   2.965   6.160  14.905  0.4023 -0.5807  0.3187
 8734TIP3    H147617   2.883   6.147  14.857  0.3552 -0.6524  0.4195
 8734TIP3    H247618   2.970   6.085  14.964 -0.1351  0.1247  1.2887
 8735TIP3   OH247619   0.963   5.105   3.512  0.1523  0.2369  0.3892
 8735TIP3    H147620   0.920   5.190   3.520 -2.1265 -0.9082  1.5386
 8735TIP3    H247621   0.929   5.069   3.430  0.6324  0.2083  0.2052
 8736TIP3   OH247622   2.026   3.783  15.584  0.3189  0.4692  0.0236
 8736TIP3    H147623   2.054   3.811  15.497  2.2895  0.2204  0.5125
 8736TIP3    H247624   2.057   3.852  15.643  0.4211 -0.1177  0.6768
 8737TIP3   OH247625   5.381   0.096   3.356 -0.0647  0.2360 -0.2950
 8737TIP3    H147626   5.315   0.138   3.301  0.6430  1.5329 -0.1882
 8737TIP3    H247627   5.451   0.073   3.295 -0.1005 -0.0670 -0.2228
 8738TIP3   OH247628   1.961   2.435  11.950  0.8276  0.1775  0.0399
 8738TIP3    H147629   2.042   2.481  11.975  0.0606  0.3186  2.5743
 8738TIP3    H247630   1.896   2.466  12.013 -0.4933 -2.1194 -0.0916
 8739TIP3   OH247631   1.286   0.828  12.170 -0.1292  0.3420 -0.5666
 8739TIP3    H147632   1.340   0.824  12.090  0.8630 -1.9042  0.1226
 8739TIP3    H247633   1.217   0.763  12.154 -0.6865  0.8169 -0.1008
 8740TIP3   OH247634   3.095   4.709  16.312  0.3509  0.1274  0.1339
 8740TIP3    H147635   3.009   4.749  16.329 -0.0399 -0.4271 -0.4964
 8740TIP3    H247636   3.134   4.699  16.399 -0.6504 -0.5342  0.5218
 8741TIP3   OH247637   5.173   1.879   3.028  0.4850 -0.4010  0.3486
 8741TIP3    H147638   5.135   1.808   3.080 -0.9029  0.7709  0.9799
 8741TIP3    H247639   5.139   1.865   2.940  0.5982 -0.7784  0.3624
 8742TIP3   OH247640   0.051   5.640  15.950 -0.0508  0.4108  0.1995
 8742TIP3    H147641   0.087   5.627  15.862 -1.3142 -1.5861 -0.0975
 8742TIP3    H247642   0.105   5.587  16.007 -0.7040 -0.2603  0.2132
 8743TIP3   OH247643   4.580   6.043  11.038  0.5667 -0.1668  0.3174
 8743TIP3    H147644   4.644   5.981  11.003  3.4659  2.5715  0.2775
 8743TIP3    H247645   4.631   6.099  11.096 -2.1322  1.4288  1.3077
 8744TIP3   OH247646   3.085   1.342   0.386 -0.5526  0.1400  0.7231
 8744TIP3    H147647   3.135   1.319   0.308 -0.6683 -1.8575  1.1626
 8744TIP3    H247648   3.144   1.323   0.459 -1.2367 -0.2842  1.1827
 8745TIP3   OH247649   1.344   1.542  14.995  0.4119  0.2151 -0.1146
 8745TIP3    H147650   1.263   1.581  14.962  0.2650 -0.4353 -0.5242
 8745TIP3    H247651   1.328   1.530  15.089 -0.3836 -0.9268 -0.3832
 8746TIP3   OH247652   6.340   2.845  16.739  0.2249 -0.4401  0.1682
 8746TIP3    H147653   6.332   2.907  16.811  0.6311  0.7823 -0.8080
 8746TIP3    H247654   6.255   2.847  16.695  0.1118 -0.8673  0.3659
 8747TIP3   OH247655   4.061   4.488  15.565 -0.3199 -0.3330 -0.6158
 8747TIP3    H147656   3.976   4.513  15.599  0.6470 -0.3615  2.0185
 8747TIP3    H247657   4.095   4.568  15.524 -1.7838 -0.4838 -2.2392
 8748TIP3   OH247658   3.748   5.078  13.614 -0.1587  0.4516 -0.3123
 8748TIP3    H147659   3.707   5.057  13.698 -2.4493  0.4582 -1.3400
 8748TIP3    H247660   3.725   5.004  13.557  2.5392 -0.2421 -0.6203
 8749TIP3   OH247661   1.219   3.648  15.101  0.9866 -0.1620 -0.2493
 8749TIP3    H147662   1.178   3.587  15.163 -0.9690  0.8664 -0.4604
 8749TIP3    H247663   1.234   3.727  15.153 -0.4821  0.6375 -0.9669
 8750TIP3   OH247664   0.648   1.284   0.648  0.2761 -0.3540 -0.3530
 8750TIP3    H147665   0.619   1.256   0.562 -0.2032 -1.2649  0.0883
 8750TIP3    H247666   0.646   1.379   0.645  0.2031 -0.3813 -1.3197
 8751TIP3   OH247667   6.745   0.869   1.868 -0.0966 -0.0390 -0.3879
 8751TIP3    H147668   6.720   0.898   1.780  0.3931 -0.0858 -0.5466
 8751TIP3    H247669   6.743   0.773   1.863  2.0691 -0.0965 -1.0022
 8752TIP3   OH247670   1.381   2.371   5.843 -0.7476 -0.0094  0.3830
 8752TIP3    H147671   1.340   2.300   5.891  1.4258 -1.3225  0.4529
 8752TIP3    H247672   1.443   2.410   5.905  1.0269 -0.7756 -0.8130
 8753TIP3   OH247673   0.097   0.880  16.405 -0.3997  0.5718 -0.1255
 8753TIP3    H147674   0.071   0.835  16.324  0.8589 -1.7815  0.6901
 8753TIP3    H247675   0.185   0.913  16.386  0.8779 -1.9521  0.8727
 8754TIP3   OH247676   0.184   2.603  11.413 -0.1627 -0.3586 -0.2829
 8754TIP3    H147677   0.216   2.639  11.330  0.8363 -0.6561 -0.0431
 8754TIP3    H247678   0.255   2.620  11.475 -0.7143 -0.5382  0.4099
 8755TIP3   OH247679   1.080   6.262  10.999 -0.2079 -0.1567 -0.4053
 8755TIP3    H147680   1.051   6.261  11.090  1.2212 -0.1954  0.0830
 8755TIP3    H247681   1.111   6.351  10.984 -2.3179  0.4426 -1.5253
 8756TIP3   OH247682   0.786   2.675  16.194 -0.3039  0.0805  0.1713
 8756TIP3    H147683   0.881   2.683  16.181 -0.3867 -0.6289 -0.9755
 8756TIP3    H247684   0.747   2.708  16.114 -0.9994 -0.4334  0.2880
 8757TIP3   OH247685   3.024   4.735  14.362 -0.8107  0.1115  0.3542
 8757TIP3    H147686   3.082   4.808  14.339 -0.8376 -0.0411 -0.2156
 8757TIP3    H247687   2.970   4.722  14.283  0.5737 -1.8425 -0.3374
 8758TIP3   OH247688   5.403   0.087  14.267  0.0273 -0.1590  0.5505
 8758TIP3    H147689   5.466   0.020  14.292  0.7596 -0.0980 -1.0130
 8758TIP3    H247690   5.456   0.162  14.240 -0.6861 -0.0857 -0.7322
 8759TIP3   OH247691   3.784   0.988  11.871 -0.5988  0.5185  0.5141
 8759TIP3    H147692   3.724   0.979  11.797  0.5083  0.2471 -0.3953
 8759TIP3    H247693   3.846   1.056  11.843  1.5230 -1.5155 -0.0579
 8760TIP3   OH247694   5.922   0.549  15.376 -0.0110  0.4221 -0.4986
 8760TIP3    H147695   6.008   0.528  15.340 -0.7320 -0.9395 -1.5407
 8760TIP3    H247696   5.934   0.544  15.470  0.9174 -0.3543 -0.6407
 8761TIP3   OH247697   0.056   6.652   4.733  0.3907 -0.0346  0.4285
 8761TIP3    H147698  -0.012   6.673   4.669  1.1176  1.1800  0.0148
 8761TIP3    H247699   0.138   6.674   4.689  0.9918 -0.4996  1.2862
 8762TIP3   OH247700   4.065   0.629   0.696  0.3470  0.1090  0.1070
 8762TIP3    H147701   4.019   0.605   0.777 -0.3340  1.5056  0.1508
 8762TIP3    H247702   4.008   0.598   0.626  0.1826  0.2698  0.1673
 8763TIP3   OH247703   3.961   1.652   5.075 -0.2795 -0.4433  0.9965
 8763TIP3    H147704   4.018   1.575   5.078  2.3805  1.3776  0.4566
 8763TIP3    H247705   3.950   1.677   5.166 -1.4922 -1.6410  1.2046
 8764TIP3   OH247706   6.612   2.420  12.015  0.4353  0.1064 -0.4961
 8764TIP3    H147707   6.525   2.379  12.007  0.6435 -0.1683 -1.5728
 8764TIP3    H247708   6.593   2.512  12.030 -0.0561  0.0631 -0.7934
 8765TIP3   OH247709   0.924   5.851  11.939 -0.3904 -0.5366 -0.0931
 8765TIP3    H147710   0.921   5.779  11.876  0.5932 -1.0974  0.4633
 8765TIP3    H247711   0.903   5.810  12.023 -0.7175  0.0032  0.0896
 8766TIP3   OH247712   3.652   6.220   0.396  0.4941 -0.0636  0.0335
 8766TIP3    H147713   3.712   6.268   0.340  0.8231 -1.4351 -0.8309
 8766TIP3    H247714   3.694   6.134   0.408 -0.0113 -0.1214  1.6178
 8767TIP3   OH247715   5.391   0.706   1.999  0.4454 -0.0235  1.1909
 8767TIP3    H147716   5.319   0.764   2.023  1.1130  0.7504  1.3774
 8767TIP3    H247717   5.465   0.737   2.051  0.8591 -0.9514  1.1749
 8768TIP3   OH247718   0.868   4.272  12.258  0.2673 -0.3716 -0.1368
 8768TIP3    H147719   0.834   4.361  12.246  0.5344 -0.0717  1.1893
 8768TIP3    H247720   0.855   4.230  12.172 -0.9947  0.5492 -0.4378
 8769TIP3   OH247721   0.329   1.776   4.126 -0.7641  0.0010 -0.0805
 8769TIP3    H147722   0.343   1.774   4.220 -0.0024 -0.2316 -0.1914
 8769TIP3    H247723   0.382   1.704   4.092  0.1435  0.9961 -0.8280
 8770TIP3   OH247724   4.678   6.544  11.732  0.0733  0.2113  0.0949
 8770TIP3    H147725   4.646   6.510  11.815 -0.7005 -0.6183 -0.5357
 8770TIP3    H247726   4.673   6.639  11.742  0.0489  0.1255  1.0101
 8771TIP3   OH247727   5.185   2.895   4.180  0.2616  0.2287  0.1149
 8771TIP3    H147728   5.157   2.803   4.172  0.4746  0.2317 -0.7612
 8771TIP3    H247729   5.104   2.943   4.194  0.0088  0.0394 -0.6453
 8772TIP3   OH247730   5.382   5.821   0.045 -0.4575  0.3470 -0.1223
 8772TIP3    H147731   5.293   5.786   0.036 -0.4761 -0.3724  2.1109
 8772TIP3    H247732   5.439   5.749   0.018 -0.5091  0.7873 -1.4951
 8773TIP3   OH247733   5.592   0.801   3.579 -0.4707  0.2405  0.2794
 8773TIP3    H147734   5.521   0.863   3.599 -1.9463 -1.3460  0.2059
 8773TIP3    H247735   5.628   0.832   3.496 -1.2670  0.9144  0.1647
 8774TIP3   OH247736   2.974   1.989   4.942  0.5182  0.1857 -0.2588
 8774TIP3    H147737   2.947   1.898   4.950 -1.7841  0.9101  1.5672
 8774TIP3    H247738   3.062   1.992   4.979  1.0407 -1.4337 -1.2936
 8775TIP3   OH247739   3.740   4.734  15.201 -0.0576 -0.3844 -0.1463
 8775TIP3    H147740   3.665   4.676  15.194 -0.5217  0.2694 -0.8345
 8775TIP3    H247741   3.707   4.810  15.249  0.2411 -0.2231 -0.1924
 8776TIP3   OH247742   5.500   5.681   5.517 -0.1974 -0.4598 -0.0491
 8776TIP3    H147743   5.510   5.586   5.526 -0.9307 -0.8833 -2.8141
 8776TIP3    H247744   5.413   5.700   5.551 -1.3277 -1.3278 -2.2917
 8777TIP3   OH247745   3.281   3.506  14.188 -0.2866 -0.0318  1.0080
 8777TIP3    H147746   3.316   3.546  14.109 -2.8581  2.0956  0.8070
 8777TIP3    H247747   3.356   3.499  14.247  1.1252  1.0073 -0.5852
 8778TIP3   OH247748   4.665   6.519  12.987 -0.1382 -0.3806 -0.1516
 8778TIP3    H147749   4.704   6.607  12.981  0.1802 -0.5802 -1.2202
 8778TIP3    H247750   4.571   6.535  12.984 -0.0744 -0.1108 -1.1651
 8779TIP3   OH247751   0.163   5.441   6.277  0.1807 -0.4194 -0.4712
 8779TIP3    H147752   0.111   5.514   6.244  0.7348  0.7161  1.0809
 8779TIP3    H247753   0.211   5.476   6.352  1.6183 -1.9761 -0.5781
 8780TIP3   OH247754   0.481   6.786  14.378 -0.3569  0.0413 -0.3214
 8780TIP3    H147755   0.400   6.735  14.387  1.5534 -3.0239  0.8792
 8780TIP3    H247756   0.511   6.768  14.289  0.5898 -1.4324  0.2771
 8781TIP3   OH247757   0.835   2.811  16.455 -0.6738 -0.3964  0.2847
 8781TIP3    H147758   0.926   2.787  16.474 -1.2272 -1.7397  1.4760
 8781TIP3    H247759   0.828   2.805  16.360  1.2898  3.0241 -0.2214
 8782TIP3   OH247760   4.281   5.744  15.247 -0.4088 -0.0676 -0.6720
 8782TIP3    H147761   4.202   5.708  15.288 -0.2082  1.8804  1.6693
 8782TIP3    H247762   4.251   5.822  15.201  0.0534  0.3737 -0.2354
 8783TIP3   OH247763   0.633   6.212   0.961 -0.0442  0.1282 -0.6773
 8783TIP3    H147764   0.696   6.141   0.974 -0.4534  0.0283  1.0357
 8783TIP3    H247765   0.646   6.270   1.035  0.1897  1.8300 -1.9838
 8784TIP3   OH247766   2.878   5.260   3.147  0.1981  0.2127 -0.5243
 8784TIP3    H147767   2.852   5.184   3.200  0.1286  1.1394  0.7946
 8784TIP3    H247768   2.952   5.228   3.095 -0.3806 -1.0044 -0.6394
 8785TIP3   OH247769   2.047   2.587   5.414  0.1206 -0.1115 -1.1620
 8785TIP3    H147770   1.989   2.512   5.427  0.2501  0.0035  0.2927
 8785TIP3    H247771   2.039   2.608   5.321 -0.9471 -1.0812 -1.3145
 8786TIP3   OH247772   2.930   0.185  10.297 -0.0456 -0.3366 -1.1096
 8786TIP3    H147773   2.844   0.227  10.292 -0.4691 -1.0439  0.0229
 8786TIP3    H247774   2.992   0.257  10.282 -0.8055  0.3410 -1.0788
 8787TIP3   OH247775   5.385   5.781   1.141 -0.5499 -0.2120 -0.3419
 8787TIP3    H147776   5.419   5.700   1.179 -0.1558 -1.1090 -2.4466
 8787TIP3    H247777   5.461   5.838   1.135 -1.1029  1.0082  2.5664
 8788TIP3   OH247778   3.961   1.238  11.553 -0.2997  0.1905  0.2291
 8788TIP3    H147779   4.042   1.289  11.555 -0.4332  0.3658  1.7341
 8788TIP3    H247780   3.894   1.299  11.582 -0.7778 -0.3072  0.1805
 8789TIP3   OH247781   4.312   5.212  15.556 -0.1670 -0.0800 -0.1262
 8789TIP3    H147782   4.337   5.122  15.536 -1.9469 -1.1551  2.0187
 8789TIP3    H247783   4.217   5.208  15.568 -0.0645  1.6787  1.7988
 8790TIP3   OH247784   1.860   0.460   3.814  0.1313  0.0822  0.2825
 8790TIP3    H147785   1.930   0.526   3.816  0.9018 -0.7151  0.0890
 8790TIP3    H247786   1.797   0.495   3.751  0.5737  0.6000  0.1168
 8791TIP3   OH247787   3.114   1.864  12.356  0.0322 -0.1555  0.7638
 8791TIP3    H147788   3.193   1.913  12.332  0.5064 -1.1163  0.2678
 8791TIP3    H247789   3.145   1.774  12.366 -0.5160 -0.1363  3.1284
 8792TIP3   OH247790   0.042   4.743  12.961  0.6372 -0.1363  0.0537
 8792TIP3    H147791   0.013   4.828  12.929 -2.2205 -0.5013  1.3457
 8792TIP3    H247792   0.063   4.758  13.054 -1.2541 -1.0149  0.6799
 8793TIP3   OH247793   3.552   0.637  15.267 -0.2584  0.1791 -0.0904
 8793TIP3    H147794   3.598   0.627  15.183  1.1276  2.0437  0.3858
 8793TIP3    H247795   3.471   0.586  15.256  1.9069 -3.5092 -0.8931
 8794TIP3   OH247796   5.255   4.065  12.068 -0.9511 -0.2199  0.2223
 8794TIP3    H147797   5.234   4.085  12.159 -0.3288  0.8528  0.1501
 8794TIP3    H247798   5.333   4.117  12.049  0.1084 -1.9321 -0.3460
 8795TIP3   OH247799   4.808   6.479   4.264 -0.1039 -0.0013  0.1840
 8795TIP3    H147800   4.733   6.465   4.206 -0.1189  1.0589 -0.0723
 8795TIP3    H247801   4.864   6.540   4.216  0.6420 -0.3317  0.6219
 8796TIP3   OH247802   6.324   2.762  14.717  0.0356 -0.0154 -0.0658
 8796TIP3    H147803   6.232   2.771  14.743  0.1895  0.1260  0.4347
 8796TIP3    H247804   6.329   2.673  14.680 -0.2862 -0.0478 -0.0385
 8797TIP3   OH247805   6.665   2.357   1.238 -0.6456 -0.1602 -0.1278
 8797TIP3    H147806   6.636   2.381   1.150 -2.1071 -1.3070  0.0021
 8797TIP3    H247807   6.678   2.440   1.283 -4.2022  0.5314 -0.0973
 8798TIP3   OH247808   0.269   1.566   0.260 -0.0737 -0.2968 -0.0793
 8798TIP3    H147809   0.257   1.639   0.321 -0.5720  0.3996 -0.9851
 8798TIP3    H247810   0.359   1.576   0.228 -0.5241  0.6578 -1.1079
 8799TIP3   OH247811   4.482   2.234   4.436 -0.0518 -0.3225 -0.3367
 8799TIP3    H147812   4.452   2.314   4.394 -2.2113 -1.4926 -1.1568
 8799TIP3    H247813   4.541   2.194   4.372 -0.3093 -0.2201 -0.6398
 8800TIP3   OH247814   6.649   4.330  14.213 -0.1862  0.0518  0.0575
 8800TIP3    H147815   6.606   4.319  14.129  2.3307 -0.2288 -1.2713
 8800TIP3    H247816   6.620   4.416  14.244 -0.5184  0.5082 -1.4664
 8801TIP3   OH247817   0.937   4.405   1.006 -0.3125  0.6201  0.0728
 8801TIP3    H147818   0.959   4.343   0.936 -0.4725  1.7836 -1.0649
 8801TIP3    H247819   0.904   4.351   1.077  1.6690 -0.7751 -0.0070
 8802TIP3   OH247820   0.654   1.415   2.251  0.4597 -0.4131 -0.2231
 8802TIP3    H147821   0.566   1.409   2.214 -0.9758  2.0569  2.4262
 8802TIP3    H247822   0.659   1.343   2.314  0.7956 -1.1770 -1.0893
 8803TIP3   OH247823   2.022   5.569   3.517  0.2046 -0.5579  0.6625
 8803TIP3    H147824   2.027   5.628   3.442 -1.4051 -0.4712  0.5897
 8803TIP3    H247825   2.085   5.499   3.497  0.8527  0.2122 -0.0671
 8804TIP3   OH247826   6.306   5.596  16.470  0.0309 -0.2293  0.0551
 8804TIP3    H147827   6.241   5.630  16.531  0.9848  1.9463 -0.0292
 8804TIP3    H247828   6.355   5.532  16.521  0.0074  0.6340  1.2134
 8805TIP3   OH247829   3.168   5.742   3.029 -0.2108  0.2992  0.1527
 8805TIP3    H147830   3.234   5.697   2.976  0.8879  1.1219  0.7576
 8805TIP3    H247831   3.203   5.737   3.118 -1.0515  0.6266  0.5067
 8806TIP3   OH247832   4.903   2.678   0.653  0.5684  0.0204 -0.0846
 8806TIP3    H147833   4.850   2.697   0.730  0.8952 -0.6267  0.3113
 8806TIP3    H247834   4.845   2.696   0.579  0.3123  0.8283  0.2996
 8807TIP3   OH247835   0.797   1.017  15.732 -0.8317 -0.1014 -0.1820
 8807TIP3    H147836   0.786   0.923  15.745  0.3404 -0.3551 -0.8654
 8807TIP3    H247837   0.881   1.025  15.687  1.0213  1.5128  3.1824
 8808TIP3   OH247838   4.860   4.987   0.624 -0.0584 -0.2348  0.0903
 8808TIP3    H147839   4.862   4.936   0.543 -1.0360  0.2663 -0.2791
 8808TIP3    H247840   4.877   5.077   0.595  2.0713 -0.3815  0.7830
 8809TIP3   OH247841   5.732   4.814  11.875  0.3121 -0.0422  0.3750
 8809TIP3    H147842   5.760   4.864  11.799 -1.5681  3.7470  1.9140
 8809TIP3    H247843   5.787   4.845  11.947  0.4681 -1.7899  1.0726
 8810TIP3   OH247844   2.148   1.524  11.836 -0.6284  0.1004  0.0729
 8810TIP3    H147845   2.226   1.519  11.781 -0.4952 -0.0264  0.2744
 8810TIP3    H247846   2.127   1.618  11.838 -0.5486  0.1225 -0.0719
 8811TIP3   OH247847   4.637   0.982   4.449  0.6774 -0.0308  1.2441
 8811TIP3    H147848   4.542   0.994   4.445  0.6549 -0.5036  0.0934
 8811TIP3    H247849   4.672   1.070   4.438  0.4283 -0.2651 -3.1439
 8812TIP3   OH247850   0.451   1.041   3.640 -0.0676  0.4206 -0.7049
 8812TIP3    H147851   0.546   1.040   3.630  0.1157 -0.1621  0.8396
 8812TIP3    H247852   0.418   1.024   3.552  1.2441  0.7437 -1.2908
 8813TIP3   OH247853   6.233   0.932   1.983 -0.5475  0.4299 -0.3047
 8813TIP3    H147854   6.311   0.880   1.965  0.4334  1.3987  0.9017
 8813TIP3    H247855   6.174   0.913   1.911  0.6145 -0.7050 -0.9987
 8814TIP3   OH247856   5.317   1.456  10.551  0.2980 -0.0274  0.2503
 8814TIP3    H147857   5.336   1.371  10.510  0.6978 -0.4869  1.3403
 8814TIP3    H247858   5.321   1.519  10.479  3.1800 -0.4766 -0.1281
 8815TIP3   OH247859   3.068   6.740  13.393 -0.1849  0.0588  0.0689
 8815TIP3    H147860   2.980   6.714  13.364 -0.0584 -1.5341  0.9761
 8815TIP3    H247861   3.123   6.664  13.373  0.2422 -0.4590  2.7740
 8816TIP3   OH247862   5.985   2.177  14.923  0.0440 -0.2013  0.3415
 8816TIP3    H147863   6.035   2.216  14.851 -2.2504 -0.8127 -1.7114
 8816TIP3    H247864   6.039   2.103  14.951  0.7106 -0.3575 -1.2318
 8817TIP3   OH247865   6.768   6.794   1.749 -0.3323 -0.1303 -0.2974
 8817TIP3    H147866   6.770   6.818   1.656 -0.8053  0.7498 -0.0933
 8817TIP3    H247867   6.756   6.699   1.749  1.1335 -0.3544 -1.1376
 8818TIP3   OH247868   4.874   1.716  14.182  0.0573  0.2262  0.4185
 8818TIP3    H147869   4.810   1.647  14.198  0.9182 -0.9715 -1.0539
 8818TIP3    H247870   4.863   1.776  14.256 -0.7683 -1.4305  1.7102
 8819TIP3   OH247871   6.497   2.582  13.468  0.5371 -0.6606 -1.0097
 8819TIP3    H147872   6.587   2.607  13.489  0.7901 -1.1681 -1.4835
 8819TIP3    H247873   6.447   2.663  13.478  1.0118 -0.4185 -0.5535
 8820TIP3   OH247874   3.432   6.176  13.670  0.0769 -0.0090  0.0206
 8820TIP3    H147875   3.407   6.165  13.579  1.8520  0.1666 -0.5377
 8820TIP3    H247876   3.475   6.262  13.673  0.2926 -0.1380  0.9467
 8821TIP3   OH247877   2.243   1.379   2.821 -0.6676  0.0324 -0.0146
 8821TIP3    H147878   2.189   1.400   2.898 -1.0090  0.4258 -0.3589
 8821TIP3    H247879   2.284   1.295   2.843 -0.2206  0.4617  0.8895
 8822TIP3   OH247880   2.352   6.630   5.288 -0.3449  0.2392  0.5166
 8822TIP3    H147881   2.259   6.648   5.271 -0.0918  1.2131  0.1089
 8822TIP3    H247882   2.389   6.616   5.200  0.3522  2.2068  0.4506
 8823TIP3   OH247883   1.286   4.918  12.237  0.4364 -0.4320  0.4879
 8823TIP3    H147884   1.274   4.883  12.149  1.5429  0.8994 -0.2470
 8823TIP3    H247885   1.341   4.853  12.282 -0.8164 -1.5191  0.5002
 8824TIP3   OH247886   4.706   1.523  13.893  0.2253 -0.2355 -0.2361
 8824TIP3    H147887   4.789   1.505  13.848  0.3873  0.3499 -0.1839
 8824TIP3    H247888   4.717   1.486  13.980  0.9146  0.9044  0.1890
 8825TIP3   OH247889   6.701   0.672  14.372 -0.1506  0.0074  0.5678
 8825TIP3    H147890   6.654   0.742  14.327 -1.6412 -1.4509 -0.2643
 8825TIP3    H247891   6.631   0.620  14.412  0.9884 -0.3785  2.1269
 8826TIP3   OH247892   3.306   5.351  15.080 -0.1340  0.0783  0.4644
 8826TIP3    H147893   3.310   5.442  15.048 -2.5559 -0.1750 -0.8300
 8826TIP3    H247894   3.377   5.307  15.034 -0.0662  0.9576 -0.3221
 8827TIP3   OH247895   6.175   3.441   5.726  0.6492  0.8731  0.5163
 8827TIP3    H147896   6.179   3.523   5.776  0.8047  1.3295 -0.2292
 8827TIP3    H247897   6.237   3.453   5.655 -0.1260  0.5442 -0.2414
 8828TIP3   OH247898   0.252   2.894   4.353  0.0868 -0.3530  0.6832
 8828TIP3    H147899   0.285   2.838   4.283  0.7362  0.4348  0.3404
 8828TIP3    H247900   0.286   2.855   4.434  2.1364  0.5526  0.3333
 8829TIP3   OH247901   5.641   2.500  14.448 -0.0926  0.5203  0.4404
 8829TIP3    H147902   5.720   2.495  14.394 -0.1127 -0.7767  0.5042
 8829TIP3    H247903   5.586   2.565  14.404 -0.0785 -0.4489 -1.0886
 8830TIP3   OH247904   1.690   0.832   0.979 -0.0289 -0.3684 -0.5502
 8830TIP3    H147905   1.645   0.760   0.934 -0.6923 -1.0568  1.1351
 8830TIP3    H247906   1.672   0.817   1.071 -1.6672  2.9867 -0.2113
 8831TIP3   OH247907   1.258   6.831  13.186 -0.0021  0.2943 -0.0156
 8831TIP3    H147908   1.348   6.811  13.210 -0.0481 -0.6237 -0.5589
 8831TIP3    H247909   1.212   6.842  13.269  0.8290  1.8924  0.2775
 8832TIP3   OH247910   2.328   6.408  12.917 -0.2090  0.9126 -0.3348
 8832TIP3    H147911   2.413   6.373  12.944 -0.1295  0.7917 -0.7293
 8832TIP3    H247912   2.322   6.493  12.961 -1.2911 -0.4090  2.2807
 8833TIP3   OH247913   2.433   2.282  12.032 -0.4790 -0.1117  0.1651
 8833TIP3    H147914   2.387   2.312  12.111 -1.1383 -0.9762  0.1291
 8833TIP3    H247915   2.456   2.191  12.051 -0.1043 -0.1385 -0.4096
 8834TIP3   OH247916   2.059   2.297   2.824 -0.1547 -0.0296  0.0046
 8834TIP3    H147917   2.119   2.225   2.801  1.8570  1.7319 -0.5280
 8834TIP3    H247918   2.035   2.335   2.740 -1.2247 -0.0299  0.2897
 8835TIP3   OH247919   2.864   2.023   3.307  0.6088  0.6395 -0.4159
 8835TIP3    H147920   2.867   1.962   3.233  0.5536 -0.1974  0.2515
 8835TIP3    H247921   2.777   2.011   3.345  0.6945  0.9488 -0.1146
 8836TIP3   OH247922   3.582   1.931  16.093 -0.4192  0.0101 -0.3011
 8836TIP3    H147923   3.626   1.953  16.011  1.1502  0.9419  0.7381
 8836TIP3    H247924   3.641   1.962  16.162  0.1382 -4.0003  1.3198
 8837TIP3   OH247925   2.831   2.396  15.630 -0.2160  0.1320  0.5363
 8837TIP3    H147926   2.736   2.389  15.618 -0.2198  0.2827  0.4843
 8837TIP3    H247927   2.864   2.308  15.610 -0.5154 -0.3755  2.1324
 8838TIP3   OH247928   0.430   5.987  14.770  0.0920  0.3200  0.0891
 8838TIP3    H147929   0.512   5.962  14.728  1.1490  0.8466  1.7367
 8838TIP3    H247930   0.407   6.070  14.729  0.8690  0.6117  0.2272
 8839TIP3   OH247931   6.778   5.758   3.431  0.0381 -0.4064 -0.1585
 8839TIP3    H147932   6.712   5.809   3.384 -0.7078 -1.3262 -0.1336
 8839TIP3    H247933   6.749   5.761   3.522  0.5065 -0.1035 -0.0184
 8840TIP3   OH247934   0.780   5.699   0.454  0.5692 -0.5266 -0.0155
 8840TIP3    H147935   0.709   5.659   0.404 -0.9417  0.5192  1.1784
 8840TIP3    H247936   0.839   5.734   0.388 -1.2550  0.6280 -1.1237
 8841TIP3   OH247937   2.926   2.871  11.877  0.0656 -0.3188 -0.0638
 8841TIP3    H147938   2.885   2.954  11.852  0.0652 -1.1473 -3.3033
 8841TIP3    H247939   2.858   2.805  11.861  0.3031 -1.0604  1.7578
 8842TIP3   OH247940   2.597   2.959  15.787  0.3597 -0.5439  0.4229
 8842TIP3    H147941   2.552   2.875  15.799  0.1503 -1.0610 -2.9680
 8842TIP3    H247942   2.594   2.974  15.693  2.1742  2.3368  0.7126
 8843TIP3   OH247943   6.155   0.646   3.414 -0.3758  0.0599  0.3709
 8843TIP3    H147944   6.120   0.594   3.486 -1.3501  1.3165  0.8474
 8843TIP3    H247945   6.215   0.588   3.369 -2.5085 -1.9827 -0.0350
 8844TIP3   OH247946   5.212   5.428   2.075  0.1101  0.6555  0.4021
 8844TIP3    H147947   5.248   5.367   2.011 -1.9006  1.3769 -1.5522
 8844TIP3    H247948   5.159   5.373   2.133 -0.8361  0.3490 -0.7014
 8845TIP3   OH247949   5.856   0.690  12.638 -0.3529  0.6120 -0.5831
 8845TIP3    H147950   5.870   0.770  12.587 -1.5192  0.9688 -0.3858
 8845TIP3    H247951   5.943   0.661  12.663  0.1714  0.9825 -1.9389
 8846TIP3   OH247952   3.838   5.907  13.985 -0.2667  0.2554  0.5593
 8846TIP3    H147953   3.783   5.851  14.040  0.6467 -2.3192 -0.9385
 8846TIP3    H247954   3.800   5.900  13.897  1.3828 -0.1916 -0.1666
 8847TIP3   OH247955   0.313   0.406  11.267 -0.7511  0.2761 -0.6941
 8847TIP3    H147956   0.342   0.402  11.176 -2.1478  1.1715 -1.2121
 8847TIP3    H247957   0.238   0.347  11.270 -0.3438 -0.2099  0.0331
 8848TIP3   OH247958   5.499   6.294   4.007 -0.2761 -0.5245  0.0376
 8848TIP3    H147959   5.456   6.336   4.082  0.5111  0.4983 -0.0635
 8848TIP3    H247960   5.459   6.207   4.002 -1.4226 -0.0485  0.7031
 8849TIP3   OH247961   6.299   0.884   5.411 -0.5341 -0.0266 -0.5951
 8849TIP3    H147962   6.289   0.891   5.316 -0.6703 -1.0044 -0.6595
 8849TIP3    H247963   6.209   0.871   5.443 -0.4802  0.2276 -0.3308
 8850TIP3   OH247964   5.997   0.630  14.827 -0.3933  0.0296  0.0986
 8850TIP3    H147965   5.939   0.638  14.903 -0.4333 -0.0580  0.0780
 8850TIP3    H247966   6.074   0.681  14.850 -0.9852  1.1862 -0.3748
 8851TIP3   OH247967   3.533   4.563  15.274  0.3108  0.6526  1.0850
 8851TIP3    H147968   3.447   4.523  15.265  0.1540  1.2314 -0.1535
 8851TIP3    H247969   3.538   4.589  15.366 -0.4734 -0.1609  1.3737
 8852TIP3   OH247970   6.451   1.085   5.770 -0.0699  0.2215  0.0379
 8852TIP3    H147971   6.404   1.092   5.853  1.4764  2.2442  0.8442
 8852TIP3    H247972   6.463   1.175   5.741  0.5111 -0.3808 -1.7735
 8853TIP3   OH247973   5.060   5.882   3.785  0.7623 -0.2916  0.5364
 8853TIP3    H147974   5.149   5.863   3.813  1.0268  3.0699  2.4293
 8853TIP3    H247975   5.071   5.932   3.704  0.6167  0.1735  0.8014
 8854TIP3   OH247976   1.591   3.066   2.171  0.1201 -0.2291  0.8700
 8854TIP3    H147977   1.644   3.145   2.160 -1.0173  0.5375  0.7722
 8854TIP3    H247978   1.551   3.075   2.257  1.1428 -1.4370  1.5054
 8855TIP3   OH247979   0.099   3.819   1.670 -0.1054 -0.2892 -0.1778
 8855TIP3    H147980   0.122   3.726   1.663  1.8991 -0.0490  2.0352
 8855TIP3    H247981   0.004   3.819   1.679 -0.1040 -2.1557  0.2712
 8856TIP3   OH247982   2.105   0.060   2.774 -0.2472  0.6323  0.0413
 8856TIP3    H147983   2.156  -0.003   2.825 -0.1277 -0.8619 -1.8258
 8856TIP3    H247984   2.170   0.116   2.732 -0.2858  0.7151  0.0900
 8857TIP3   OH247985   6.330   5.751  15.615 -0.2157  0.4450  0.3820
 8857TIP3    H147986   6.274   5.684  15.653 -0.3322 -0.1002 -0.6939
 8857TIP3    H247987   6.270   5.822  15.592 -0.5754 -0.3109 -1.1567
 8858TIP3   OH247988   4.488   5.532   5.862 -0.1983  0.0120  0.0972
 8858TIP3    H147989   4.470   5.624   5.881  0.7662  0.0686  0.7940
 8858TIP3    H247990   4.577   5.531   5.828  0.2903 -0.7959  1.3336
 8859TIP3   OH247991   4.082   2.167  16.150 -0.1489  0.8744  0.3524
 8859TIP3    H147992   4.170   2.203  16.160  0.6215 -0.8659  0.1211
 8859TIP3    H247993   4.048   2.209  16.071  1.3365 -0.0141 -0.8204
 8860TIP3   OH247994   1.767   3.224  16.842  0.1681 -0.8709 -0.1005
 8860TIP3    H147995   1.794   3.299  16.895 -1.5147  0.3567 -0.8827
 8860TIP3    H247996   1.735   3.262  16.761  0.1365 -2.5196 -0.9004
 8861TIP3   OH247997   4.762   5.335   0.860  0.1662 -0.1032 -0.2848
 8861TIP3    H147998   4.825   5.324   0.789 -0.5358  2.2440 -1.3768
 8861TIP3    H247999   4.815   5.365   0.934  0.4108  1.9257 -1.2113
 8862TIP3   OH248000   2.492   1.942  11.191 -0.4244  0.1045  0.1002
 8862TIP3    H148001   2.553   2.014  11.206 -0.2693 -0.1829  0.9373
 8862TIP3    H248002   2.435   1.972  11.120  1.4799 -0.1242 -1.5849
 8863TIP3   OH248003   1.192   0.473  16.819  0.3109  0.1295  0.5002
 8863TIP3    H148004   1.107   0.495  16.858 -1.0767 -1.6333 -1.3577
 8863TIP3    H248005   1.171   0.438  16.733  2.9826 -0.0043 -0.1854
 8864TIP3   OH248006   2.352   0.166   2.653  0.5088 -0.0118  0.5440
 8864TIP3    H148007   2.388   0.226   2.588  0.9597 -1.4045 -0.5376
 8864TIP3    H248008   2.426   0.147   2.711  0.3947  0.3909  0.8220
 8865TIP3   OH248009   0.976   2.963   3.474  0.1649 -0.5873 -0.2784
 8865TIP3    H148010   0.992   2.868   3.479 -0.2626 -0.5970  2.8331
 8865TIP3    H248011   0.916   2.981   3.547 -1.5461  1.8013 -2.0959
 8866TIP3   OH248012   5.876   1.127   3.286  0.3565 -0.3114  0.3000
 8866TIP3    H148013   5.838   1.047   3.321 -0.5303  0.6152  1.5516
 8866TIP3    H248014   5.934   1.158   3.355 -1.4543  1.5726  1.0986
 8867TIP3   OH248015   5.310   3.392  11.989 -0.1103  0.5038 -0.1438
 8867TIP3    H148016   5.389   3.446  11.985 -1.0436  1.8869 -0.7759
 8867TIP3    H248017   5.320   3.330  11.917  1.1673 -0.4885  0.8429
 8868TIP3   OH248018   2.766   2.314  10.618  0.4933  0.0539 -0.7816
 8868TIP3    H148019   2.735   2.225  10.633  0.6136 -0.1038 -1.4090
 8868TIP3    H248020   2.800   2.312  10.528  1.3970  0.4711 -0.4647
 8869TIP3   OH248021   5.022   4.560   4.867  0.0619  0.6403 -0.2344
 8869TIP3    H148022   5.106   4.575   4.822  1.2932 -2.4694  0.7518
 8869TIP3    H248023   4.970   4.510   4.804  0.5382 -0.8760  0.5268
 8870TIP3   OH248024   0.030   3.789   3.497  0.0872 -0.0416  0.4183
 8870TIP3    H148025   0.022   3.884   3.507 -0.1812 -0.0124  0.0006
 8870TIP3    H248026   0.009   3.753   3.583 -1.4446  0.2093  0.1754
 8871TIP3   OH248027   5.925   3.575   0.311  0.0911 -0.1135  0.0445
 8871TIP3    H148028   6.004   3.537   0.349  0.2331  0.7146  0.5938
 8871TIP3    H248029   5.948   3.666   0.294 -0.0266 -0.3901 -1.8585
 8872TIP3   OH248030   6.141   1.899   3.712  0.1465 -0.0255  0.1946
 8872TIP3    H148031   6.116   1.991   3.710  0.4716  0.1281  1.6255
 8872TIP3    H248032   6.066   1.854   3.752  1.3335  0.1936  2.9040
 8873TIP3   OH248033   6.119   1.288   0.769 -0.4058  0.9925  0.6278
 8873TIP3    H148034   6.032   1.314   0.798 -0.3942  1.0845  0.5793
 8873TIP3    H248035   6.119   1.303   0.674 -1.2903 -1.6151  0.1222
 8874TIP3   OH248036   5.703   0.126  15.945 -0.1751 -0.3536  0.5618
 8874TIP3    H148037   5.619   0.121  15.900 -0.6423 -1.6768  1.4989
 8874TIP3    H248038   5.684   0.173  16.026  0.6208  1.8692 -0.4799
 8875TIP3   OH248039   4.555   1.328  11.259  0.1911 -0.0396  0.1761
 8875TIP3    H148040   4.530   1.251  11.208  0.3870  0.6924 -1.0681
 8875TIP3    H248041   4.536   1.402  11.202 -2.4325  1.0834  2.2653
 8876TIP3   OH248042   5.542   4.230  14.644 -0.1800 -0.1504 -0.2374
 8876TIP3    H148043   5.627   4.236  14.686  0.2810  1.1294 -1.2578
 8876TIP3    H248044   5.485   4.286  14.697  0.2402  0.9352 -0.8820
 8877TIP3   OH248045   0.166   3.830   6.199 -0.4481  0.0541  0.3393
 8877TIP3    H148046   0.130   3.742   6.189 -1.4537  0.4937  0.0071
 8877TIP3    H248047   0.202   3.831   6.288 -1.0646 -0.4625  0.6017
 8878TIP3   OH248048   3.412   1.716  15.919  0.0213 -0.0851  0.0388
 8878TIP3    H148049   3.421   1.811  15.931 -0.3225 -0.0169 -0.2347
 8878TIP3    H248050   3.502   1.684  15.918  0.1255  0.0302  1.7360
 8879TIP3   OH248051   3.236   4.898  13.813 -0.4593  0.4811  0.5730
 8879TIP3    H148052   3.205   4.988  13.814 -1.8081  0.0450  0.2691
 8879TIP3    H248053   3.192   4.857  13.887  0.8365  0.2636  1.2609
 8880TIP3   OH248054   2.400   1.938   1.211 -0.0884 -0.2253 -0.0926
 8880TIP3    H148055   2.324   1.881   1.195  0.2280 -0.6790  0.0016
 8880TIP3    H248056   2.372   2.024   1.180 -0.5112 -0.4690 -0.4012
 8881TIP3   OH248057   4.525   6.118   5.197  0.3316 -0.1383  0.0104
 8881TIP3    H148058   4.468   6.043   5.180  0.0148  0.3291 -1.1347
 8881TIP3    H248059   4.570   6.133   5.113 -0.5234  1.6865 -0.1614
 8882TIP3   OH248060   4.572   0.509  15.322  0.2991  0.0187 -0.4770
 8882TIP3    H148061   4.561   0.603  15.332  0.7802  0.0036  0.2589
 8882TIP3    H248062   4.486   0.478  15.295 -0.0078  0.6014 -0.1975
 8883TIP3   OH248063   3.379   2.730  11.561 -0.6248  0.2899 -0.2600
 8883TIP3    H148064   3.290   2.740  11.528 -0.8790 -0.7652  0.0668
 8883TIP3    H248065   3.384   2.638  11.588  0.5326  0.3668 -0.1858
 8884TIP3   OH248066   1.947   6.600  13.631 -0.7291  0.2266 -0.0087
 8884TIP3    H148067   2.025   6.596  13.575 -0.9681  3.8241 -0.8008
 8884TIP3    H248068   1.900   6.519  13.612  2.3805 -1.7425 -0.0370
 8885TIP3   OH248069   0.128   6.437  15.270  0.1481  0.7559  0.1920
 8885TIP3    H148070   0.193   6.502  15.242 -0.2197  0.9995 -0.1049
 8885TIP3    H248071   0.063   6.488  15.319 -0.5203  0.7379 -0.6513
 8886TIP3   OH248072   2.808   5.645   0.722 -0.0162 -0.2570  0.7628
 8886TIP3    H148073   2.831   5.576   0.785  2.2306  1.0378  1.4721
 8886TIP3    H248074   2.864   5.627   0.646 -2.4507 -1.5927 -0.8489
 8887TIP3   OH248075   2.837   6.218   5.411 -0.3671  0.0342  0.4104
 8887TIP3    H148076   2.767   6.173   5.363  0.4370 -1.4602  0.5648
 8887TIP3    H248077   2.910   6.219   5.349  0.3704 -1.0380  1.2182
 8888TIP3   OH248078   5.440   6.811   3.602  0.3351 -0.0293 -0.4314
 8888TIP3    H148079   5.414   6.843   3.515  1.2775  0.8571 -0.3919
 8888TIP3    H248080   5.533   6.829   3.608  0.3611 -0.4490  0.6237
 8889TIP3   OH248081   5.682   5.867   4.398 -0.0682  0.1583 -0.4926
 8889TIP3    H148082   5.607   5.809   4.387 -0.4369  0.5073  0.1797
 8889TIP3    H248083   5.745   5.815   4.449 -0.7591  0.6404  0.9029
 8890TIP3   OH248084   5.422   1.607  12.589  0.2772  0.3869 -0.8529
 8890TIP3    H148085   5.388   1.631  12.675  0.3395 -1.9826 -0.0955
 8890TIP3    H248086   5.511   1.643  12.587  0.4988 -0.0621  0.3588
 8891TIP3   OH248087   5.572   4.120  13.353  0.1452  0.1097 -0.1355
 8891TIP3    H148088   5.601   4.042  13.306 -1.6767 -2.3053  2.3664
 8891TIP3    H248089   5.479   4.126  13.335  0.3933  2.2921 -0.9394
 8892TIP3   OH248090   2.137   6.498   3.982 -0.7939 -0.3514 -0.2419
 8892TIP3    H148091   2.182   6.525   3.902  0.0599 -1.4022 -0.1274
 8892TIP3    H248092   2.143   6.403   3.983 -2.8722 -0.5408 -0.1286
 8893TIP3   OH248093   3.518   3.581   1.198  1.0322 -0.6925  0.0587
 8893TIP3    H148094   3.602   3.613   1.167  0.5273 -0.8676 -1.5657
 8893TIP3    H248095   3.484   3.528   1.126 -2.2995  2.5789 -1.0706
 8894TIP3   OH248096   6.419   0.286   0.439  0.3496  0.2438 -0.3954
 8894TIP3    H148097   6.508   0.309   0.414  1.1677 -0.2579  1.8616
 8894TIP3    H248098   6.373   0.370   0.442  0.8836  0.5669 -0.9786
 8895TIP3   OH248099   2.603   0.334   6.197 -0.3455 -0.7797  0.4299
 8895TIP3    H148100   2.601   0.328   6.292 -1.4504 -0.6486  0.4334
 8895TIP3    H248101   2.536   0.272   6.168 -0.5281 -0.2848 -0.2311
 8896TIP3   OH248102   3.695   5.014   4.960 -0.3965 -1.2044  0.6985
 8896TIP3    H148103   3.667   4.984   4.873  0.3811  3.0035 -1.2742
 8896TIP3    H248104   3.790   5.018   4.954 -0.4144  0.8560  0.9678
 8897TIP3   OH248105   0.994   5.375  12.459  0.4461  0.2124 -0.5115
 8897TIP3    H148106   1.030   5.436  12.394  2.2355 -0.8542 -0.5820
 8897TIP3    H248107   1.008   5.420  12.543  1.7293 -0.0449 -0.5655
 8898TIP3   OH248108   6.371   3.249   3.292 -0.0814  0.0892 -0.0660
 8898TIP3    H148109   6.305   3.247   3.222 -0.8334  0.2435  0.6328
 8898TIP3    H248110   6.454   3.242   3.245 -0.5980 -0.4810 -0.9384
 8899TIP3   OH248111   2.489   2.215  14.894 -0.2239 -0.1846 -0.0275
 8899TIP3    H148112   2.577   2.214  14.857 -1.3840  0.2199 -3.0933
 8899TIP3    H248113   2.444   2.142  14.850 -1.4268 -0.4142  1.5094
 8900TIP3   OH248114   5.508   1.665   4.718  0.2399  0.1000  0.5787
 8900TIP3    H148115   5.590   1.692   4.759  0.5694  0.4601 -0.2869
 8900TIP3    H248116   5.523   1.574   4.692  0.5072  0.2750  0.0988
 8901TIP3   OH248117   1.282   1.039   4.391 -0.0897 -0.1960 -0.8400
 8901TIP3    H148118   1.275   1.085   4.308  0.5171  0.1894 -0.6848
 8901TIP3    H248119   1.191   1.021   4.417 -0.2836 -0.1826 -1.5024
 8902TIP3   OH248120   1.958   3.175   1.436 -0.8537 -0.3823 -0.2621
 8902TIP3    H148121   2.030   3.235   1.415 -1.3137 -0.4155 -2.1263
 8902TIP3    H248122   1.897   3.229   1.487  0.4433 -0.3584  1.3437
 8903TIP3   OH248123   4.159   0.060   4.067 -0.1768 -0.0580  0.2312
 8903TIP3    H148124   4.229   0.065   4.132  0.1622 -0.2958 -0.1077
 8903TIP3    H248125   4.156  -0.033   4.042 -0.7391 -0.0823  0.3772
 8904TIP3   OH248126   2.477   1.228   2.942  0.7286  0.5198  0.0911
 8904TIP3    H148127   2.532   1.152   2.960  0.0320  0.1889  0.8856
 8904TIP3    H248128   2.434   1.246   3.025  0.2726  1.2892 -0.3063
 8905TIP3   OH248129   3.246   5.812  16.333  0.6055  0.4577  0.4778
 8905TIP3    H148130   3.156   5.783  16.317  1.4820 -2.1487 -0.3495
 8905TIP3    H248131   3.283   5.827  16.246  0.5278  3.3211  0.8497
 8906TIP3   OH248132   3.427   4.879  12.722 -0.1865 -0.1266  0.4992
 8906TIP3    H148133   3.388   4.792  12.722 -1.2848  0.3025 -1.4006
 8906TIP3    H248134   3.511   4.868  12.767  0.0700 -2.3305 -0.3972
 8907TIP3   OH248135   6.147   2.880  14.148  0.1429 -0.1913  0.0515
 8907TIP3    H148136   6.115   2.870  14.238 -0.5643 -1.8126 -0.3408
 8907TIP3    H248137   6.229   2.829  14.147  0.4697  0.3343 -0.0680
 8908TIP3   OH248138   6.315   5.004  12.871 -0.0597  0.4075 -0.1640
 8908TIP3    H148139   6.402   4.999  12.911 -0.1338 -0.6071 -0.1129
 8908TIP3    H248140   6.327   4.968  12.783 -0.7175 -1.1365  0.3550
 8909TIP3   OH248141   3.816   3.693  15.163  0.0080 -0.2247 -0.1191
 8909TIP3    H148142   3.824   3.699  15.068  0.7214 -0.2123 -0.0609
 8909TIP3    H248143   3.740   3.637  15.177  2.1895 -3.5990 -0.7296
 8910TIP3   OH248144   3.362   1.221  12.155  0.1917 -0.1603 -0.3071
 8910TIP3    H148145   3.438   1.201  12.211  0.9723 -0.7216 -1.5190
 8910TIP3    H248146   3.292   1.167  12.190  0.1869  0.7544  1.1576
 8911TIP3   OH248147   4.906   4.279   6.164  0.2776 -0.4935 -0.3592
 8911TIP3    H148148   4.917   4.272   6.259  0.3809 -0.3165 -0.3574
 8911TIP3    H248149   4.948   4.362   6.141 -0.2146 -0.2782 -0.4890
 8912TIP3   OH248150   2.130   0.782   5.286  0.2594 -0.0015  0.6280
 8912TIP3    H148151   2.045   0.748   5.261 -0.1402  1.3539  0.0570
 8912TIP3    H248152   2.190   0.750   5.218  0.0519 -0.2515  0.5639
 8913TIP3   OH248153   1.792   5.445  14.353 -0.0575  0.4461 -0.1745
 8913TIP3    H148154   1.861   5.468  14.291  0.5783  0.6079  0.5846
 8913TIP3    H248155   1.816   5.491  14.434  0.4820 -1.7122  0.9642
 8914TIP3   OH248156   3.421   2.038  15.843 -0.7512  0.2606 -0.1410
 8914TIP3    H148157   3.452   2.118  15.800 -0.3174  0.6019  0.8007
 8914TIP3    H248158   3.425   2.057  15.936 -0.0420 -1.0782  0.1310
 8915TIP3   OH248159   1.663   4.841   2.289  0.1274  0.2306 -0.1130
 8915TIP3    H148160   1.678   4.895   2.211 -2.2213 -1.5787 -1.9704
 8915TIP3    H248161   1.611   4.768   2.257  0.7230 -1.6371  2.8443
 8916TIP3   OH248162   4.034   5.714  13.721  0.5398 -0.3624  0.4940
 8916TIP3    H148163   4.035   5.619  13.713  0.7416 -0.5521  2.4128
 8916TIP3    H248164   4.124   5.740  13.705  0.2834 -0.3554 -1.1086
 8917TIP3   OH248165   4.652   2.402   1.234  0.3706  0.1238  0.0522
 8917TIP3    H148166   4.700   2.478   1.266  0.8459  0.9594 -2.4401
 8917TIP3    H248167   4.606   2.434   1.156 -1.3579 -1.5598  0.3142
 8918TIP3   OH248168   1.166   3.669  15.720  0.3382 -0.0024 -0.0921
 8918TIP3    H148169   1.074   3.652  15.741 -0.2502  0.1997 -2.2516
 8918TIP3    H248170   1.199   3.718  15.795 -1.3974  0.1780  0.6013
 8919TIP3   OH248171   6.393   3.416   5.929  0.0078 -0.0763  0.0137
 8919TIP3    H148172   6.408   3.358   6.004 -2.7391  0.0858  0.7932
 8919TIP3    H248173   6.372   3.501   5.968  1.1997  0.7543 -1.0565
 8920TIP3   OH248174   4.947   5.026   4.736  0.2006 -0.2577 -0.0847
 8920TIP3    H148175   5.005   4.953   4.714  0.7955  0.4215 -0.8294
 8920TIP3    H248176   4.938   5.021   4.831  0.3698 -1.1994 -0.1105
 8921TIP3   OH248177   3.756   4.027   1.306  0.0921  0.2617  0.0920
 8921TIP3    H148178   3.732   4.101   1.251  1.3458  0.5700 -0.0468
 8921TIP3    H248179   3.690   3.960   1.286 -0.1153  0.7715 -0.9445
 8922TIP3   OH248180   0.704   5.092  11.728  0.2270 -0.4915 -0.2470
 8922TIP3    H148181   0.796   5.117  11.721  0.2181  0.1165  1.3191
 8922TIP3    H248182   0.705   4.998  11.743  0.4513 -0.8790 -2.3915
 8923TIP3   OH248183   5.200   3.384   2.182  0.3160 -0.5760 -0.7514
 8923TIP3    H148184   5.169   3.381   2.272  1.3492  1.4003 -0.2839
 8923TIP3    H248185   5.214   3.292   2.158 -0.7759 -1.1775  0.7888
 8924TIP3   OH248186   2.363   3.379   4.438 -0.0135 -0.4349 -0.4022
 8924TIP3    H148187   2.426   3.310   4.421  0.4250 -0.6162  1.6353
 8924TIP3    H248188   2.277   3.339   4.423  0.2096 -1.6532  1.2779
 8925TIP3   OH248189   6.106   4.810  15.315  0.3150  0.1519  0.0785
 8925TIP3    H148190   6.120   4.743  15.383  1.9589  1.1428  0.7917
 8925TIP3    H248191   6.028   4.857  15.344  0.3449 -0.1651  0.7036
 8926TIP3   OH248192   1.003   5.573  15.841  0.0623 -0.1272  0.4218
 8926TIP3    H148193   0.917   5.538  15.862 -0.0269 -0.3975 -0.3813
 8926TIP3    H248194   0.986   5.650  15.788  0.2371  1.5500  2.6618
 8927TIP3   OH248195   0.521   1.391  16.439  0.4018  0.1837  0.4856
 8927TIP3    H148196   0.524   1.482  16.469 -0.7819 -0.0495  1.3873
 8927TIP3    H248197   0.568   1.342  16.506 -1.9074 -0.2871  1.8368
 8928TIP3   OH248198   0.455   5.977  12.124  0.6007 -0.1609 -0.1801
 8928TIP3    H148199   0.419   6.014  12.204  2.4138  3.2400 -0.7510
 8928TIP3    H248200   0.459   5.883  12.140  2.4657  0.4498  4.4181
 8929TIP3   OH248201   3.695   5.567  16.348 -0.5734  0.2651  0.4532
 8929TIP3    H148202   3.720   5.522  16.267 -2.9935 -0.6841  0.1291
 8929TIP3    H248203   3.710   5.503  16.417 -0.8786  0.1607  0.4232
 8930TIP3   OH248204   3.886   3.513   3.795 -0.3248 -0.2419  0.2968
 8930TIP3    H148205   3.893   3.598   3.838 -2.1949  1.2023 -1.9994
 8930TIP3    H248206   3.804   3.476   3.830 -0.8836  0.1184 -0.5895
 8931TIP3   OH248207   0.636   1.137  10.593  0.3506 -0.0144  0.7966
 8931TIP3    H148208   0.705   1.076  10.569  0.3638  0.3934 -0.2720
 8931TIP3    H248209   0.676   1.223  10.584 -0.9257  0.4153 -2.4366
 8932TIP3   OH248210   5.802   4.758   3.398 -0.3395  0.5952 -0.1307
 8932TIP3    H148211   5.846   4.676   3.376  1.6358  1.1342  1.4820
 8932TIP3    H248212   5.711   4.733   3.414  0.1554 -1.2451  0.0587
 8933TIP3   OH248213   3.817   6.137  10.959 -0.8763  0.6276 -0.0697
 8933TIP3    H148214   3.734   6.098  10.931 -0.1814 -2.1428  1.3846
 8933TIP3    H248215   3.866   6.149  10.878 -1.7101 -0.1778 -0.7151
 8934TIP3   OH248216   2.931   4.808  13.705  0.2512  0.5502  0.3679
 8934TIP3    H148217   2.898   4.840  13.622 -1.6247 -1.1103  0.3965
 8934TIP3    H248218   2.938   4.885  13.761  0.1110  1.4698 -0.8596
 8935TIP3   OH248219   4.227   5.303  14.976  0.2144 -0.0761 -0.4345
 8935TIP3    H148220   4.152   5.246  14.993 -0.5750  1.0616  0.0145
 8935TIP3    H248221   4.248   5.341  15.062 -0.2667  1.4756 -0.9745
 8936TIP3   OH248222   5.190   3.126  15.059  0.2147  0.2178 -0.1950
 8936TIP3    H148223   5.147   3.211  15.054 -0.0749  0.3201  2.5983
 8936TIP3    H248224   5.118   3.062  15.060  0.3341  0.0819 -0.1813
 8937TIP3   OH248225   2.946   6.827   6.197 -0.1308 -0.1196  0.4952
 8937TIP3    H148226   3.038   6.849   6.179 -0.1981 -1.3306 -1.7267
 8937TIP3    H248227   2.950   6.750   6.254  0.2876 -0.6534 -0.2300
 8938TIP3   OH248228   3.131   3.707   3.333 -0.1172  0.6175 -0.2732
 8938TIP3    H148229   3.211   3.661   3.310 -0.8780  0.0007 -1.8093
 8938TIP3    H248230   3.088   3.724   3.249 -1.3584  1.3708  0.4844
 8939TIP3   OH248231   4.554   4.487   1.337 -0.0500  0.3923  0.3434
 8939TIP3    H148232   4.612   4.439   1.396  0.9918  1.2186  0.0147
 8939TIP3    H248233   4.549   4.575   1.375  1.3387  1.2021 -1.2232
 8940TIP3   OH248234   5.287   2.374   5.176  0.3879 -0.0396 -0.3311
 8940TIP3    H148235   5.264   2.414   5.261 -0.4319 -0.4065 -0.3683
 8940TIP3    H248236   5.270   2.281   5.189  0.9727 -0.1910 -0.6749
 8941TIP3   OH248237   1.567   4.937  15.743 -0.1902  0.2572 -0.0485
 8941TIP3    H148238   1.561   5.029  15.767  2.7155  0.2252  1.1811
 8941TIP3    H248239   1.660   4.917  15.745 -0.7955 -3.4918  2.8942
 8942TIP3   OH248240   1.800   1.863   0.187 -0.5697 -0.2163  0.8934
 8942TIP3    H148241   1.868   1.806   0.152  0.8110  1.7942  0.1374
 8942TIP3    H248242   1.747   1.887   0.111  0.2195  1.2282  0.7537
 8943TIP3   OH248243   0.557   4.859   3.915 -0.0932 -0.4019  0.3926
 8943TIP3    H148244   0.463   4.856   3.931 -0.4251  0.5395 -1.2411
 8943TIP3    H248245   0.588   4.932   3.968 -0.4039 -0.2366  0.3492
 8944TIP3   OH248246   3.527   3.454   0.378 -0.5605 -0.2919 -0.0405
 8944TIP3    H148247   3.482   3.498   0.306 -0.7021  0.9852  0.7889
 8944TIP3    H248248   3.460   3.399   0.419 -0.4764 -1.0274 -0.8545
 8945TIP3   OH248249   6.605   5.994   2.056  0.5429  0.2768 -0.4332
 8945TIP3    H148250   6.561   6.075   2.081  0.6516 -0.1054  1.0557
 8945TIP3    H248251   6.668   6.021   1.988  1.6104  1.7196  1.0650
 8946TIP3   OH248252   3.723   5.012  12.466  0.0430 -0.3268  0.0640
 8946TIP3    H148253   3.726   4.924  12.503  1.3088 -0.3011  0.0664
 8946TIP3    H248254   3.673   5.063  12.529 -0.0215 -0.8687  0.4608
 8947TIP3   OH248255   6.560   5.722  16.627 -0.2810  0.2240  0.3203
 8947TIP3    H148256   6.570   5.628  16.643  0.2493  0.3729  0.9140
 8947TIP3    H248257   6.515   5.727  16.543 -0.9480 -0.5676  0.6137
 8948TIP3   OH248258   2.787   3.402   0.922  0.2377  0.2301  0.0242
 8948TIP3    H148259   2.739   3.456   0.985 -2.4876  0.7244 -2.2690
 8948TIP3    H248260   2.755   3.313   0.937  0.6527  0.1168  0.2510
 8949TIP3   OH248261   4.168   2.272  14.242  0.4252 -0.0385 -0.3870
 8949TIP3    H148262   4.188   2.264  14.336 -0.4534  1.4445 -0.0297
 8949TIP3    H248263   4.186   2.185  14.206 -3.4728 -2.1327  1.9771
 8950TIP3   OH248264   1.499   1.179   4.511 -0.2392 -0.4895 -0.2416
 8950TIP3    H148265   1.445   1.228   4.575  1.2283  2.1986 -0.9120
 8950TIP3    H248266   1.437   1.118   4.470 -1.7029 -0.8196  2.1967
 8951TIP3   OH248267   2.610   3.764   2.331  0.2868 -0.9289 -0.3854
 8951TIP3    H148268   2.601   3.677   2.291  0.0880 -0.3332 -1.6861
 8951TIP3    H248269   2.550   3.819   2.281  1.1918  0.1858 -0.2738
 8952TIP3   OH248270   4.383   2.303  13.400 -0.5711  0.5131  0.0775
 8952TIP3    H148271   4.463   2.334  13.357 -0.9516  0.7363 -0.4798
 8952TIP3    H248272   4.312   2.330  13.341 -0.9804 -0.6075  0.0388
 8953TIP3   OH248273   2.008   4.563   2.513 -0.4034  0.4784 -0.2723
 8953TIP3    H148274   1.998   4.543   2.420 -1.1889  1.8372 -0.4997
 8953TIP3    H248275   1.944   4.631   2.530 -1.4654 -0.9073  1.6693
 8954TIP3   OH248276   2.550   4.805  15.204  0.0241  0.5914  0.4228
 8954TIP3    H148277   2.607   4.858  15.148 -0.5963  1.4186  0.5530
 8954TIP3    H248278   2.482   4.772  15.145  0.6759 -0.4727  0.2486
 8955TIP3   OH248279   2.096   2.739  13.940 -0.1909 -0.4070 -0.4291
 8955TIP3    H148280   2.167   2.694  13.985 -1.2213 -0.2486  1.4264
 8955TIP3    H248281   2.129   2.751  13.850  1.7644 -1.0745  0.1464
 8956TIP3   OH248282   6.061   2.757  13.085 -0.0344  0.1721  0.3129
 8956TIP3    H148283   6.092   2.761  13.176 -2.2239  1.7680  1.0754
 8956TIP3    H248284   6.046   2.848  13.061 -1.8109 -0.3718 -0.7781
 8957TIP3   OH248285   5.118   0.361   2.020  0.0708 -0.3266 -0.7665
 8957TIP3    H148286   5.182   0.389   1.954  0.6973 -2.8508 -1.3106
 8957TIP3    H248287   5.144   0.407   2.100  1.3872  0.1353 -1.4350
 8958TIP3   OH248288   6.207   3.251  12.406  0.0595 -0.1136  0.5944
 8958TIP3    H148289   6.216   3.337  12.446  0.1431 -1.4008  3.5508
 8958TIP3    H248290   6.254   3.191  12.465 -1.3817 -2.4299 -0.4548
 8959TIP3   OH248291   0.233   4.893  14.607 -0.7006 -0.2692  0.5305
 8959TIP3    H148292   0.287   4.817  14.632  0.3482 -0.1253 -1.1100
 8959TIP3    H248293   0.213   4.937  14.690 -1.8485 -2.6280  1.5960
 8960TIP3   OH248294   5.564   6.568   1.386  0.4730 -0.5778  0.5304
 8960TIP3    H148295   5.571   6.475   1.363  0.5254 -0.0837 -1.6176
 8960TIP3    H248296   5.478   6.594   1.353  1.2191  0.5645 -0.5561
 8961TIP3   OH248297   2.623   6.682   5.036 -0.0576  0.5312 -0.1793
 8961TIP3    H148298   2.564   6.635   4.978 -0.4562  1.2509 -0.3655
 8961TIP3    H248299   2.598   6.774   5.028 -0.1620  0.6509  1.1705
 8962TIP3   OH248300   4.209   0.254  12.116 -0.2619 -0.0555  0.1029
 8962TIP3    H148301   4.195   0.330  12.172 -0.9525 -0.0398 -0.0768
 8962TIP3    H248302   4.121   0.231  12.084  0.1048 -0.0854 -0.9400
 8963TIP3   OH248303   6.578   1.396   0.347  0.0138 -0.0125  0.5750
 8963TIP3    H148304   6.622   1.321   0.388  0.9589  1.3347  2.1037
 8963TIP3    H248305   6.647   1.444   0.302 -0.8421 -0.8687 -1.8063
 8964TIP3   OH248306   1.885   0.068   2.948 -0.3727 -0.1148  0.4302
 8964TIP3    H148307   1.961   0.075   3.005 -1.3703  0.3843  1.7436
 8964TIP3    H248308   1.920   0.081   2.860  1.3588 -1.8537  0.8004
 8965TIP3   OH248309   6.123   2.973  10.521  0.4725 -0.1078 -0.0185
 8965TIP3    H148310   6.140   2.923  10.600 -1.2419 -0.7257 -0.0125
 8965TIP3    H248311   6.086   3.056  10.552  0.4252 -0.0752 -0.1590
 8966TIP3   OH248312   2.992   3.798   5.853 -0.0589 -0.1819 -0.2629
 8966TIP3    H148313   2.911   3.847   5.839 -0.3346 -0.1244  1.3590
 8966TIP3    H248314   3.061   3.864   5.848 -0.2209 -0.0217 -0.3945
 8967TIP3   OH248315   0.990   4.377   5.203 -0.4703  0.2475 -0.6982
 8967TIP3    H148316   1.035   4.298   5.231  0.7919  0.9535 -0.6883
 8967TIP3    H248317   0.936   4.402   5.278 -0.6333 -0.4094 -0.5908
 8968TIP3   OH248318   2.683   0.248   3.409  0.5250  0.3239  0.3338
 8968TIP3    H148319   2.678   0.267   3.502  0.3867 -1.0637  0.6189
 8968TIP3    H248320   2.622   0.175   3.395 -0.1766  1.1120 -1.0136
 8969TIP3   OH248321   4.789   5.204   5.329  0.5699  0.0499  0.0735
 8969TIP3    H148322   4.758   5.265   5.396  0.7147  1.8814 -1.4634
 8969TIP3    H248323   4.716   5.142   5.318 -0.5272  1.2905  0.0889
 8970TIP3   OH248324   1.023   3.403   1.685 -0.1397  0.3804 -0.0306
 8970TIP3    H148325   1.009   3.496   1.670  3.7806  0.8513 -1.9280
 8970TIP3    H248326   1.117   3.391   1.681 -0.3776 -3.5286  1.4607
 8971TIP3   OH248327   2.911   3.826  13.090 -0.1546 -0.0219 -0.2535
 8971TIP3    H148328   2.905   3.869  13.005 -1.5990 -0.9927 -0.6639
 8971TIP3    H248329   2.827   3.843  13.133  0.1212 -0.5072  0.5085
 8972TIP3   OH248330   2.272   5.190   3.992 -0.5011  0.4903  0.1997
 8972TIP3    H148331   2.331   5.116   3.981 -0.3917  0.5430  0.4286
 8972TIP3    H248332   2.329   5.262   4.021 -0.5575  0.7381 -0.2834
 8973TIP3   OH248333   5.665   1.684  15.405 -0.3748 -0.0181  0.1265
 8973TIP3    H148334   5.623   1.702  15.489  0.5202 -0.0184  0.5831
 8973TIP3    H248335   5.725   1.757  15.392  1.7324 -1.5196  0.9739
 8974TIP3   OH248336   5.148   2.617   2.370  0.0390 -0.1685  0.1138
 8974TIP3    H148337   5.186   2.705   2.379 -0.3366  0.2407 -1.7958
 8974TIP3    H248338   5.122   2.593   2.459 -0.5635  2.0062  0.5966
 8975TIP3   OH248339   0.619   4.577  11.743  0.3479 -0.3984  0.7045
 8975TIP3    H148340   0.690   4.542  11.798 -0.0790 -0.2090  1.3893
 8975TIP3    H248341   0.551   4.602  11.805  0.0393  0.2520  0.1141
 8976TIP3   OH248342   1.226   2.186  13.050  0.4534 -0.4526  0.0264
 8976TIP3    H148343   1.164   2.258  13.039 -0.7696 -1.0140  2.6560
 8976TIP3    H248344   1.266   2.176  12.963 -1.8867  1.0506 -1.3328
 8977TIP3   OH248345   1.787   4.976  14.884  0.0362 -0.1076  0.0956
 8977TIP3    H148346   1.732   4.969  14.963  1.3568  1.0387  1.1751
 8977TIP3    H248347   1.782   4.889  14.844 -1.0784 -0.5730  1.1570
 8978TIP3   OH248348   4.370   1.022   3.501  0.5372 -0.6344  0.1093
 8978TIP3    H148349   4.431   0.948   3.506  1.2553 -0.1961 -1.5932
 8978TIP3    H248350   4.291   0.992   3.546  1.0570 -2.1823  0.0148
 8979TIP3   OH248351   5.378   2.597  15.233 -0.0357 -0.4063  0.7497
 8979TIP3    H148352   5.394   2.547  15.313  1.3793  1.6897  1.8762
 8979TIP3    H248353   5.283   2.601  15.226 -0.1910 -0.7156  2.3026
 8980TIP3   OH248354   4.011   3.593  13.901 -0.4478 -0.4295  0.2454
 8980TIP3    H148355   3.923   3.556  13.894 -0.5093 -0.0166 -1.5589
 8980TIP3    H248356   4.069   3.517  13.895 -0.6428 -0.5446 -0.2055
 8981TIP3   OH248357   1.088   3.668  14.862 -0.5166 -0.1803 -0.0554
 8981TIP3    H148358   1.103   3.579  14.829  0.6186  0.4966 -1.4668
 8981TIP3    H248359   1.130   3.669  14.948  0.5528 -0.6752 -0.5533
 8982TIP3   OH248360   4.731   4.863  16.427 -0.4507 -0.3552 -0.2984
 8982TIP3    H148361   4.676   4.917  16.484 -0.2468 -0.1707 -0.2780
 8982TIP3    H248362   4.675   4.845  16.351 -0.6071 -0.3286 -0.1914
 8983TIP3   OH248363   2.322   4.673   5.669  0.7413 -0.0078 -0.3066
 8983TIP3    H148364   2.373   4.686   5.590 -1.0812 -2.3915 -2.0276
 8983TIP3    H248365   2.296   4.581   5.666 -0.8313  0.2609  2.1806
 8984TIP3   OH248366   2.236   4.039  12.311 -0.7850 -0.3008  1.0018
 8984TIP3    H148367   2.216   3.952  12.346  0.2283 -1.5540 -1.3302
 8984TIP3    H248368   2.159   4.063  12.259  0.2731 -1.4217 -1.1917
 8985TIP3   OH248369   4.614   0.771  14.902  0.4267 -0.1915  0.0109
 8985TIP3    H148370   4.563   0.795  14.979 -0.2470 -0.0315 -0.4719
 8985TIP3    H248371   4.609   0.675  14.899  0.4251 -0.1953  0.1463
 8986TIP3   OH248372   4.207   2.318   5.258 -0.0069 -0.4322 -0.5438
 8986TIP3    H148373   4.290   2.366   5.261 -0.8527  1.2008 -1.7260
 8986TIP3    H248374   4.219   2.255   5.187  0.0469  0.1814 -1.0907
 8987TIP3   OH248375   2.444   5.330  12.865 -0.3471  0.7095  0.9891
 8987TIP3    H148376   2.464   5.290  12.950 -0.0484  0.1703  0.6684
 8987TIP3    H248377   2.477   5.267  12.801 -0.5738  1.1156  0.4726
 8988TIP3   OH248378   5.358   6.583   3.874 -0.0633  0.5732  0.5378
 8988TIP3    H148379   5.451   6.593   3.892 -0.0080  1.1018 -0.0282
 8988TIP3    H248380   5.354   6.544   3.787 -0.3800  2.4445 -0.3244
 8989TIP3   OH248381   6.623   1.920   5.371  0.3528  0.4027  0.1080
 8989TIP3    H148382   6.539   1.895   5.409  0.6502  1.0468  1.2363
 8989TIP3    H248383   6.625   2.015   5.378  0.8657  0.4507 -0.5981
 8990TIP3   OH248384   5.509   2.713  16.617  0.2467  0.8474 -0.0945
 8990TIP3    H148385   5.416   2.714  16.593  0.4227  0.4946 -0.7989
 8990TIP3    H248386   5.526   2.802  16.649 -0.0366  1.2889 -1.1349
 8991TIP3   OH248387   3.437   2.057  11.228  0.1999  0.1013 -0.1377
 8991TIP3    H148388   3.463   1.966  11.242 -0.9850 -0.5800 -1.9397
 8991TIP3    H248389   3.342   2.057  11.240  0.3458  1.4691  1.3790
 8992TIP3   OH248390   5.185   2.235  14.422  0.2744 -0.0332  0.5153
 8992TIP3    H148391   5.154   2.284  14.346 -0.5953 -1.0701  0.1878
 8992TIP3    H248392   5.275   2.266  14.435 -0.3836  1.9822  0.6199
 8993TIP3   OH248393   4.058   3.329   4.387 -0.2661 -0.2162  0.3405
 8993TIP3    H148394   4.114   3.257   4.414 -0.5868 -0.5256  0.1832
 8993TIP3    H248395   4.055   3.387   4.463  1.7347  0.7434 -0.2192
 8994TIP3   OH248396   0.508   3.187   5.251 -0.1496 -0.0656 -0.1805
 8994TIP3    H148397   0.467   3.108   5.284  1.9839 -1.1978 -0.0634
 8994TIP3    H248398   0.601   3.165   5.243  1.0417  3.1753  2.3081
 8995TIP3   OH248399   2.991   4.802  14.612 -0.0725  0.8164 -0.0626
 8995TIP3    H148400   3.015   4.788  14.521  0.0305  2.0355 -0.2411
 8995TIP3    H248401   2.896   4.788  14.615 -0.2068  1.6033 -0.5348
 8996TIP3   OH248402   0.755   1.523   1.799 -0.2007 -0.2006 -0.0720
 8996TIP3    H148403   0.668   1.500   1.767 -0.0990  0.2881 -0.7264
 8996TIP3    H248404   0.761   1.483   1.886 -0.7189 -1.0355 -0.4157
 8997TIP3   OH248405   2.857   2.832   1.604 -0.4172 -0.2460 -0.3705
 8997TIP3    H148406   2.851   2.737   1.611 -3.4947 -0.1893 -1.0427
 8997TIP3    H248407   2.911   2.847   1.527 -0.1441 -1.4343 -0.4312
 8998TIP3   OH248408   1.031   6.600  11.249 -0.2121 -0.1476 -0.2475
 8998TIP3    H148409   1.024   6.582  11.156  0.8183 -1.2510 -0.1394
 8998TIP3    H248410   0.971   6.673  11.265  0.8503  1.2049 -2.0897
 8999TIP3   OH248411   3.504   0.614  10.482  0.2346  0.4021  0.2641
 8999TIP3    H148412   3.428   0.632  10.537 -0.2856  0.7583 -0.5467
 8999TIP3    H248413   3.467   0.589  10.398  1.0131 -0.7420  0.2481
 9000TIP3   OH248414   4.478   5.117  13.562 -0.4449  0.5392  0.5801
 9000TIP3    H148415   4.421   5.043  13.543 -0.5237  0.8186 -0.2871
 9000TIP3    H248416   4.454   5.142  13.652 -1.2102  0.2291  0.4745
 9001TIP3   OH248417   0.877   2.038  16.774  0.1156 -0.0676 -0.3370
 9001TIP3    H148418   0.923   2.112  16.735  1.1680 -0.6239 -0.1797
 9001TIP3    H248419   0.847   1.986  16.699 -0.7335  0.5624 -0.4498
 9002TIP3   OH248420   6.768   6.046  14.152 -0.0533  0.8589 -0.7915
 9002TIP3    H148421   6.830   6.115  14.174 -0.5107  1.2907 -0.8315
 9002TIP3    H248422   6.690   6.067  14.203  0.1936 -0.2946  0.1232
 9003TIP3   OH248423   3.078   2.006  11.377  0.0616 -0.3801 -0.2268
 9003TIP3    H148424   2.983   1.998  11.385  0.2194 -0.7288  1.8353
 9003TIP3    H248425   3.101   1.945  11.307 -1.3098  0.5042 -1.5167
 9004TIP3   OH248426   2.070   4.256   4.824 -0.2296  0.0559  0.4650
 9004TIP3    H148427   2.053   4.168   4.857 -0.4983 -0.0062  0.1597
 9004TIP3    H248428   2.015   4.264   4.746  2.2461 -0.7467 -1.4999
 9005TIP3   OH248429   1.840   1.305   0.419  0.5156 -0.0246  0.4329
 9005TIP3    H148430   1.869   1.227   0.373 -1.1238 -2.2635  2.9198
 9005TIP3    H248431   1.890   1.305   0.501  0.7022  1.7400  0.3638
 9006TIP3   OH248432   2.199   4.586   0.969  0.3766 -0.1748 -0.4151
 9006TIP3    H148433   2.218   4.674   1.002  1.2321 -0.4868 -0.0267
 9006TIP3    H248434   2.155   4.600   0.885  2.4100  0.6516 -1.4137
 9007TIP3   OH248435   0.727   6.553  10.894  0.2760  0.6388  0.1749
 9007TIP3    H148436   0.655   6.615  10.909 -0.1569  0.2421 -0.2036
 9007TIP3    H248437   0.705   6.512  10.810  1.6091  1.4198 -0.5754
 9008TIP3   OH248438   3.543   4.748  13.939 -0.1567  0.0250  0.0614
 9008TIP3    H148439   3.616   4.690  13.960  1.3444  1.5061 -0.7907
 9008TIP3    H248440   3.496   4.704  13.869 -0.7166 -1.4167  1.2910
 9009TIP3   OH248441   2.276   4.062  11.195  0.6515  0.0034 -0.4106
 9009TIP3    H148442   2.274   4.125  11.123  1.4017 -0.7816 -1.1515
 9009TIP3    H248443   2.221   4.101  11.263  0.5581  1.1295 -1.1035
 9010TIP3   OH248444   4.145   1.960  13.271 -0.2395  0.3274 -0.1664
 9010TIP3    H148445   4.199   1.993  13.199  1.6639 -0.7907  0.6571
 9010TIP3    H248446   4.149   1.865  13.262  1.1643  0.0849  2.0989
 9011TIP3   OH248447   5.930   5.453   2.379 -0.1785  0.7582  0.5503
 9011TIP3    H148448   5.993   5.404   2.431  1.1856  1.2050 -0.5991
 9011TIP3    H248449   5.868   5.387   2.347 -0.2241  0.2878  1.5834
 9012TIP3   OH248450   2.512   6.086  10.086 -0.6048  0.1979 -0.1107
 9012TIP3    H148451   2.495   6.060   9.995  0.6406 -0.8287 -0.0677
 9012TIP3    H248452   2.607   6.096  10.091 -0.7828  1.7641  0.7054
 9013TIP3   OH248453   3.622   2.961   5.905 -0.0401  0.0514 -0.1488
 9013TIP3    H148454   3.541   3.010   5.921  0.2949  0.3284  0.7127
 9013TIP3    H248455   3.655   2.996   5.823 -0.8670 -0.1722 -0.5994
 9014TIP3   OH248456   2.134   1.027  11.342 -0.2456 -0.4841 -0.1387
 9014TIP3    H148457   2.077   0.955  11.315  0.3262 -1.2093  0.5377
 9014TIP3    H248458   2.150   1.011  11.435 -0.2054  0.5924  0.0487
 9015TIP3   OH248459   1.796   6.625  14.984  0.5217  0.2220 -0.2965
 9015TIP3    H148460   1.878   6.598  14.941  0.5831  0.3647 -0.2699
 9015TIP3    H248461   1.732   6.559  14.957  0.4615  0.5397 -0.9471
 9016TIP3   OH248462   0.792   3.585   4.652  0.0699 -0.4547  0.1188
 9016TIP3    H148463   0.829   3.562   4.737 -0.0624  0.1032  0.3291
 9016TIP3    H248464   0.812   3.510   4.596  1.7159 -0.0649  0.1547
 9017TIP3   OH248465   3.266   0.684   2.228 -0.4168  0.5686  0.4929
 9017TIP3    H148466   3.195   0.675   2.164 -1.6786 -1.5078  2.0540
 9017TIP3    H248467   3.234   0.640   2.307  1.9443  1.0668  1.8507
 9018TIP3   OH248468   5.421   0.451   1.250  0.0420  0.2050 -0.0652
 9018TIP3    H148469   5.365   0.511   1.200  0.3777  0.3686 -0.2450
 9018TIP3    H248470   5.359   0.389   1.289 -0.1410 -0.9453 -2.0356
 9019TIP3   OH248471   3.702   5.224   3.451  0.4818  0.2433 -0.6302
 9019TIP3    H148472   3.644   5.196   3.522  2.8132 -0.2299  1.2580
 9019TIP3    H248473   3.711   5.147   3.395  0.0331  0.0249 -0.4037
 9020TIP3   OH248474   2.397   2.390  10.883 -0.6165  0.2215 -0.3259
 9020TIP3    H148475   2.324   2.388  10.822 -1.4715  0.9334  0.6268
 9020TIP3    H248476   2.465   2.441  10.839 -0.4814 -0.8731 -1.4220
 9021TIP3   OH248477   4.018   3.435   1.801  0.0508  0.6434  0.1004
 9021TIP3    H148478   4.104   3.474   1.813 -0.3602  1.2923  1.1385
 9021TIP3    H248479   3.997   3.451   1.709  0.6351  1.3392  0.0801
 9022TIP3   OH248480   1.663   5.792   0.572 -0.2359  0.5282  0.2772
 9022TIP3    H148481   1.637   5.874   0.614 -0.3443  0.3320  0.5956
 9022TIP3    H248482   1.759   5.793   0.576 -0.2639 -0.1501  1.8319
 9023TIP3   OH248483   3.408   0.579  12.782 -0.1352  0.1779 -0.2043
 9023TIP3    H148484   3.482   0.608  12.835  0.1135 -0.2457 -0.3130
 9023TIP3    H248485   3.332   0.625  12.819 -0.2751 -1.4091  1.6740
 9024TIP3   OH248486   6.598   3.848  13.920  0.0589  0.5326  0.3759
 9024TIP3    H148487   6.688   3.817  13.910 -0.9398 -2.7770  0.2841
 9024TIP3    H248488   6.579   3.892  13.837  1.0848 -0.2463 -0.3075
 9025TIP3   OH248489   2.595   6.251  10.947  0.4241  0.0781 -0.2147
 9025TIP3    H148490   2.594   6.281  10.856 -1.3013 -1.3000 -0.7076
 9025TIP3    H248491   2.556   6.164  10.944 -1.4988  0.7427  2.0547
 9026TIP3   OH248492   5.484   4.113   1.371  0.1570  0.5862  0.1277
 9026TIP3    H148493   5.544   4.186   1.382  0.1903  0.6679 -0.5313
 9026TIP3    H248494   5.452   4.122   1.281 -0.1256  0.0076  0.1663
 9027TIP3   OH248495   5.967   5.780   6.363  0.1132  0.2770 -0.2127
 9027TIP3    H148496   6.005   5.709   6.414 -0.9679  0.2664  0.6238
 9027TIP3    H248497   5.883   5.797   6.406 -1.3867 -0.4921 -2.6225
 9028TIP3   OH248498   4.690   6.833  16.856  0.3476  0.3503 -0.2779
 9028TIP3    H148499   4.631   6.900  16.890  2.3259  1.0023  2.1731
 9028TIP3    H248500   4.632   6.766  16.820 -1.7491  2.4185 -1.0428
 9029TIP3   OH248501   6.655   6.801  14.427  0.0504 -0.2651  0.0232
 9029TIP3    H148502   6.708   6.771  14.353 -0.6294  2.7283 -1.8732
 9029TIP3    H248503   6.566   6.772  14.406  0.0424 -0.4527  0.3101
 9030TIP3   OH248504   0.217   0.962  11.188  0.1888  0.0972 -0.2195
 9030TIP3    H148505   0.271   0.985  11.113 -0.2749  2.2409  0.0298
 9030TIP3    H248506   0.255   0.881  11.221  2.2619  0.6853 -0.9856
 9031TIP3   OH248507   1.693   4.760  16.397  0.0113  0.0408 -0.8348
 9031TIP3    H148508   1.683   4.847  16.434 -3.4900 -0.1985 -0.9456
 9031TIP3    H248509   1.694   4.701  16.473  0.5870  0.0399 -0.8385
 9032TIP3   OH248510   6.088   5.818   0.799 -0.5740  0.0169 -0.2746
 9032TIP3    H148511   5.998   5.829   0.831 -1.1324 -1.3730 -1.2820
 9032TIP3    H248512   6.118   5.908   0.783 -1.8811  0.4918 -0.2057
 9033TIP3   OH248513   3.268   2.750  13.444 -0.4019  0.0180 -0.4917
 9033TIP3    H148514   3.173   2.742  13.453 -0.2323  0.2375  2.7546
 9033TIP3    H248515   3.284   2.844  13.439 -0.3019  0.1401  1.3533
 9034TIP3   OH248516   1.001   6.263   4.201  0.1800  0.0740  0.9762
 9034TIP3    H148517   0.908   6.248   4.182 -0.3205  0.9949  2.4977
 9034TIP3    H248518   1.002   6.346   4.249  1.8242  0.2042  0.7497
 9035TIP3   OH248519   1.665   5.503  16.064 -0.1191  0.1232 -0.3878
 9035TIP3    H148520   1.686   5.507  15.971 -0.9210  1.0412 -0.5524
 9035TIP3    H248521   1.676   5.593  16.095 -0.5398 -0.0350  0.2371
 9036TIP3   OH248522   5.746   0.446  13.391  0.4962  0.1896 -0.6196
 9036TIP3    H148523   5.721   0.496  13.468 -1.3100 -0.8496 -0.4772
 9036TIP3    H248524   5.825   0.399  13.418 -2.3530 -3.5541  2.3045
 9037TIP3   OH248525   1.889   0.449  15.584  0.5342 -0.4894  0.2885
 9037TIP3    H148526   1.901   0.519  15.648 -1.2223  1.2238 -1.1236
 9037TIP3    H248527   1.916   0.487  15.500 -2.4750 -0.6339 -0.8844
 9038TIP3   OH248528   0.401   3.800  16.688 -0.0576 -0.1333  0.2209
 9038TIP3    H148529   0.356   3.750  16.756 -0.8572  0.8799  0.4657
 9038TIP3    H248530   0.421   3.884  16.729  0.2789  0.1539 -0.5076
 9039TIP3   OH248531   0.416   6.489  14.560  0.0508  0.1639  0.1677
 9039TIP3    H148532   0.366   6.432  14.619 -1.9073 -0.3396 -1.8692
 9039TIP3    H248533   0.350   6.546  14.520  1.1485 -0.1626 -2.2455
 9040TIP3   OH248534   0.049   1.001   0.553 -0.1055  0.3145 -0.8496
 9040TIP3    H148535   0.092   0.938   0.495 -2.9085 -2.0973 -0.5031
 9040TIP3    H248536   0.079   0.977   0.641 -0.3245  0.1929 -0.8084
 9041TIP3   OH248537   2.532   1.622  12.227  0.2952  0.3700 -0.1371
 9041TIP3    H148538   2.469   1.689  12.204  0.4147  0.5619  0.0932
 9041TIP3    H248539   2.573   1.598  12.144  0.0972  0.4234 -0.2498
 9042TIP3   OH248540   2.915   5.996   5.102 -0.2491  0.5705  0.7315
 9042TIP3    H148541   2.864   6.049   5.041 -1.6511  0.0496  1.4104
 9042TIP3    H248542   2.976   6.058   5.142 -0.4729  1.2490  0.0433
 9043TIP3   OH248543   1.014   2.784   2.987 -0.0100  0.9442  0.2303
 9043TIP3    H148544   1.030   2.800   2.894 -1.1695 -0.0470 -0.1650
 9043TIP3    H248545   0.923   2.810   3.000 -0.3032 -0.2625  0.7501
 9044TIP3   OH248546   2.463   6.405   2.073 -0.3543 -0.2204 -0.1187
 9044TIP3    H148547   2.483   6.398   2.167  2.2632  0.5496 -0.5471
 9044TIP3    H248548   2.433   6.495   2.062 -1.7688 -0.6402  0.1211
 9045TIP3   OH248549   6.207   2.554  12.216 -0.5230  0.5038  0.5102
 9045TIP3    H148550   6.130   2.584  12.167 -0.6767 -0.0681  0.3943
 9045TIP3    H248551   6.174   2.533  12.303 -1.2382 -3.0578 -0.4883
 9046TIP3   OH248552   5.555   2.890   3.914 -0.0895 -0.2104  0.4704
 9046TIP3    H148553   5.523   2.829   3.980 -0.9078  1.3488  1.5682
 9046TIP3    H248554   5.525   2.853   3.831 -2.4216 -0.2501  1.2586
 9047TIP3   OH248555   3.501   1.668  15.544  0.4581 -0.2946  0.0704
 9047TIP3    H148556   3.561   1.606  15.586 -1.0317 -1.8357  0.0223
 9047TIP3    H248557   3.528   1.754  15.577  1.8424 -1.0724  1.0576
 9048TIP3   OH248558   3.574   1.096   3.720  0.7169  0.2693 -0.2515
 9048TIP3    H148559   3.601   1.028   3.782 -0.8828 -0.7024 -0.5329
 9048TIP3    H248560   3.650   1.109   3.664  1.2348 -0.9568  0.1196
 9049TIP3   OH248561   3.402   4.275  12.081  0.5855 -0.4757 -0.1084
 9049TIP3    H148562   3.433   4.211  12.017 -1.1729 -0.6906 -0.7998
 9049TIP3    H248563   3.364   4.345  12.029  1.7812  0.7939  0.6674
 9050TIP3   OH248564   6.476   0.880  10.684  0.0090 -0.2968  0.2702
 9050TIP3    H148565   6.570   0.870  10.701 -0.1565  1.0266  2.2631
 9050TIP3    H248566   6.462   0.974  10.681 -0.7944 -0.3951 -3.2814
 9051TIP3   OH248567   5.031   4.829  15.200  0.3710  0.2700  0.0910
 9051TIP3    H148568   4.979   4.909  15.207 -0.0738  0.0035 -0.1024
 9051TIP3    H248569   5.010   4.795  15.113  0.8300  0.1293  0.0329
 9052TIP3   OH248570   4.501   2.341  15.106  0.4570 -0.6371  0.3566
 9052TIP3    H148571   4.440   2.315  15.037 -0.1335  0.8911  0.2627
 9052TIP3    H248572   4.587   2.318  15.072  0.0564 -1.2810 -0.2353
 9053TIP3   OH248573   5.076   2.521  10.607  0.2789 -0.1820 -0.0495
 9053TIP3    H148574   4.984   2.548  10.611  0.9227  2.0882  1.0814
 9053TIP3    H248575   5.119   2.570  10.677  2.5592 -0.3279 -1.2391
 9054TIP3   OH248576   5.830   4.234  16.725 -0.0977 -0.3810 -0.5964
 9054TIP3    H148577   5.816   4.168  16.657  0.0782 -0.8615 -0.1708
 9054TIP3    H248578   5.921   4.223  16.750 -0.0381  0.0994 -0.5916
 9055TIP3   OH248579   5.631   5.445   5.546  0.0919  0.1658 -0.1529
 9055TIP3    H148580   5.632   5.355   5.581 -1.3142 -0.3688 -1.4018
 9055TIP3    H248581   5.718   5.479   5.567  0.9146 -1.7405 -0.2641
 9056TIP3   OH248582   6.057   3.773  13.737 -0.1514 -0.0944 -0.3329
 9056TIP3    H148583   6.139   3.789  13.785  1.7202 -3.5082 -2.0429
 9056TIP3    H248584   6.076   3.804  13.648 -0.5582 -1.2567 -0.8348
 9057TIP3   OH248585   3.876   5.356   5.098 -0.4317 -0.0457  0.5319
 9057TIP3    H148586   3.785   5.327   5.090 -0.2683 -0.2807 -0.5565
 9057TIP3    H248587   3.880   5.396   5.185 -0.6153 -3.4886  2.3019
 9058TIP3   OH248588   3.181   0.534   4.739  0.0469  0.1827 -0.2525
 9058TIP3    H148589   3.130   0.591   4.796  1.1065  0.9520 -0.0463
 9058TIP3    H248590   3.121   0.511   4.668 -0.2656  1.9683 -0.6021
 9059TIP3   OH248591   2.728   0.178   4.544 -0.0455 -0.0432 -0.7052
 9059TIP3    H148592   2.692   0.263   4.570  1.5071  0.3281  0.4258
 9059TIP3    H248593   2.745   0.133   4.627 -1.8098 -1.9389 -1.2873
 9060TIP3   OH248594   3.718   0.008   1.411  0.1313 -0.6121  0.3256
 9060TIP3    H148595   3.669  -0.008   1.492 -0.5944 -2.6495 -0.4309
 9060TIP3    H248596   3.810  -0.001   1.436  0.0982  1.3476  1.3843
 9061TIP3   OH248597   3.750   0.892   3.567  0.1685 -0.3567 -0.0009
 9061TIP3    H148598   3.705   0.816   3.531  1.0392 -1.3284  0.8775
 9061TIP3    H248599   3.829   0.901   3.514  0.7398 -0.9135  0.7385
 9062TIP3   OH248600   4.686   0.042   3.577 -0.3276 -0.3780 -0.0273
 9062TIP3    H148601   4.754   0.075   3.637 -1.7225 -1.4203  2.2783
 9062TIP3    H248602   4.629   0.118   3.563 -0.9662 -0.5486  1.4710
 9063TIP3   OH248603   0.991   3.192  16.049  0.2834  0.3413 -0.3260
 9063TIP3    H148604   1.026   3.216  15.963  0.6443 -0.9446 -0.5599
 9063TIP3    H248605   0.940   3.268  16.076 -0.3386  0.5366 -1.9520
 9064TIP3   OH248606   0.332   6.139  15.117 -0.3401 -0.4021 -0.8922
 9064TIP3    H148607   0.414   6.102  15.152  1.4983  2.3101 -1.9545
 9064TIP3    H248608   0.271   6.135  15.190  2.0981  1.3226  1.4658
 9065TIP3   OH248609   5.132   5.167   4.919  0.4789  0.4949 -0.2464
 9065TIP3    H148610   5.131   5.183   4.825 -0.5193 -0.4597 -0.4162
 9065TIP3    H248611   5.067   5.227   4.955  0.1879  0.1991 -0.2806
 9066TIP3   OH248612   6.343   3.382  15.206 -0.1202 -0.5458  0.5019
 9066TIP3    H148613   6.391   3.436  15.143 -1.3513  0.8439  0.6892
 9066TIP3    H248614   6.284   3.329  15.152  3.1996 -4.2313  0.0228
 9067TIP3   OH248615   1.856   2.193   4.927 -0.4269 -0.1815  0.0281
 9067TIP3    H148616   1.931   2.211   4.871 -1.0841  0.3441 -0.7220
 9067TIP3    H248617   1.802   2.272   4.920  0.3271  0.7115  2.8691
 9068TIP3   OH248618   5.103   0.141  14.828  0.6527  0.1845 -0.0153
 9068TIP3    H148619   5.136   0.140  14.738  1.0594 -0.6039  0.1275
 9068TIP3    H248620   5.176   0.106  14.880 -0.0960 -0.7679  0.4231
 9069TIP3   OH248621   5.570   5.428  12.434  0.0160  0.1847 -0.5656
 9069TIP3    H148622   5.660   5.461  12.429  0.1896 -0.1307  0.2808
 9069TIP3    H248623   5.525   5.471  12.361  0.4830  1.5419 -0.1023
 9070TIP3   OH248624   2.707   6.732   5.865  0.1441  0.1097  0.5567
 9070TIP3    H148625   2.713   6.637   5.877 -1.1648  0.0258  0.6636
 9070TIP3    H248626   2.746   6.747   5.779 -0.8185 -0.7083 -0.0515
 9071TIP3   OH248627   6.259   0.319   2.106  0.3024  0.3584  0.3440
 9071TIP3    H148628   6.255   0.351   2.017  0.2494 -0.2935  0.1038
 9071TIP3    H248629   6.182   0.356   2.149  0.3397  0.6888  0.1237
 9072TIP3   OH248630   6.349   3.461  13.473 -0.2256  0.1300 -0.0285
 9072TIP3    H148631   6.341   3.444  13.379 -0.4981  1.3790 -0.2437
 9072TIP3    H248632   6.262   3.444  13.508  0.1719 -1.5765  0.2387
 9073TIP3   OH248633   3.266   2.662  15.458 -0.0257  0.5687  0.6561
 9073TIP3    H148634   3.224   2.576  15.458  0.6578  0.2177  0.0856
 9073TIP3    H248635   3.207   2.718  15.408  0.6720 -0.1901 -1.1162
 9074TIP3   OH248636   0.752   1.395   1.282  0.1479 -0.1461  0.3571
 9074TIP3    H148637   0.817   1.435   1.224 -0.7014 -0.0005 -0.5162
 9074TIP3    H248638   0.794   1.394   1.368  1.5915 -0.7304 -0.3197
 9075TIP3   OH248639   6.393   1.464   1.822  0.4534 -0.2837 -0.3063
 9075TIP3    H148640   6.420   1.437   1.735  0.1799  1.0386 -0.8229
 9075TIP3    H248641   6.318   1.523   1.807 -0.1364 -0.6932  0.8615
 9076TIP3   OH248642   1.195   1.597  10.180 -0.0107 -0.4234  0.0505
 9076TIP3    H148643   1.194   1.505  10.205 -0.0214 -0.7211 -1.0341
 9076TIP3    H248644   1.220   1.643  10.261  0.1799 -1.3811  0.5499
 9077TIP3   OH248645   4.845   0.617   0.283 -0.0385 -0.4705  0.2129
 9077TIP3    H148646   4.902   0.553   0.239  0.4200 -0.4550  0.7716
 9077TIP3    H248647   4.899   0.651   0.354 -0.1851  0.7403 -0.2429
 9078TIP3   OH248648   4.959   1.555   6.453 -0.2065 -0.0284  0.5797
 9078TIP3    H148649   4.976   1.463   6.433 -1.7639 -0.2909  0.3019
 9078TIP3    H248650   4.873   1.572   6.414  0.5817  1.8991 -0.4533
 9079TIP3   OH248651   2.080   1.711  12.693  0.6573 -0.3720 -0.0979
 9079TIP3    H148652   2.029   1.743  12.767  0.9563  0.3857 -0.2128
 9079TIP3    H248653   2.038   1.748  12.616  1.6309  0.6463 -0.1680
 9080TIP3   OH248654   6.046   4.610  14.373  0.7545 -0.0623 -0.3008
 9080TIP3    H148655   6.002   4.692  14.349 -0.0560 -0.6248 -0.8027
 9080TIP3    H248656   6.123   4.607  14.316  0.1333 -0.2233 -1.1584
 9081TIP3   OH248657   5.839   6.760  16.739  0.1924 -0.6029  0.1132
 9081TIP3    H148658   5.770   6.789  16.679 -0.6014  1.2896  1.8284
 9081TIP3    H248659   5.792   6.712  16.808  0.5070  0.7789  1.3488
 9082TIP3   OH248660   4.223   1.848   0.960  0.2884  0.0334  0.5030
 9082TIP3    H148661   4.187   1.770   0.918 -0.3887  0.2797  0.6248
 9082TIP3    H248662   4.174   1.857   1.041  0.8274  0.2057  0.8186
 9083TIP3   OH248663   3.571   4.107  14.587  0.5616  0.1536  0.3483
 9083TIP3    H148664   3.620   4.059  14.654  2.8746  1.3584 -0.4016
 9083TIP3    H248665   3.482   4.072  14.594  1.3938 -1.8560  2.0325
 9084TIP3   OH248666   5.389   0.924  13.290  0.8888  0.6702 -0.0900
 9084TIP3    H148667   5.326   0.921  13.218  1.3495 -0.1527 -0.4799
 9084TIP3    H248668   5.396   0.832  13.319 -0.1299  1.1138  1.7591
 9085TIP3   OH248669   6.446   2.149   2.093 -0.4211  0.5377 -0.1071
 9085TIP3    H148670   6.352   2.162   2.105 -0.6645  0.1010 -1.4536
 9085TIP3    H248671   6.454   2.097   2.014  0.8583 -1.7362  1.4205
 9086TIP3   OH248672   3.744   3.520   5.206 -0.4338  0.1716 -0.2040
 9086TIP3    H148673   3.694   3.585   5.155  0.3444 -0.0485 -1.2791
 9086TIP3    H248674   3.833   3.555   5.209 -0.5610  0.4251  1.4737
 9087TIP3   OH248675   1.919   6.638   2.801  0.2054 -0.3057 -0.1816
 9087TIP3    H148676   1.960   6.706   2.748 -0.9556  0.9061  0.4348
 9087TIP3    H248677   1.853   6.683   2.853 -0.2600 -1.8236  0.6242
 9088TIP3   OH248678   6.266   1.573   1.477 -0.3220 -0.3726 -0.2989
 9088TIP3    H148679   6.244   1.607   1.563 -1.4764 -1.8328  0.0288
 9088TIP3    H248680   6.360   1.556   1.480 -0.2437  0.1642  0.4449
 9089TIP3   OH248681   2.566   4.610   0.221 -0.4208 -0.0978 -0.0043
 9089TIP3    H148682   2.526   4.587   0.304  0.2537 -2.3303 -0.2473
 9089TIP3    H248683   2.637   4.670   0.244 -1.0461  0.3323  0.8660
 9090TIP3   OH248684   6.043   4.585  15.430  0.5556 -0.3303 -0.1640
 9090TIP3    H148685   5.977   4.595  15.498 -0.7688  2.4566 -1.7046
 9090TIP3    H248686   6.112   4.532  15.471 -1.7428 -1.8175  2.1045
 9091TIP3   OH248687   1.083   3.513  16.038 -0.6942  0.1286 -0.3330
 9091TIP3    H148688   1.074   3.482  16.128 -1.5164  1.1264 -0.0541
 9091TIP3    H248689   1.097   3.433  15.986  1.2676 -0.3356  0.8347
 9092TIP3   OH248690   6.694   2.453   5.637  0.1023 -0.3447  0.5246
 9092TIP3    H148691   6.752   2.499   5.697 -0.0712  0.1704  0.3035
 9092TIP3    H248692   6.719   2.485   5.550 -1.6130  1.1612  0.5396
 9093TIP3   OH248693   0.980   4.256  14.937 -0.1499 -0.0937 -0.4381
 9093TIP3    H148694   0.928   4.270  14.858 -1.1576 -1.9655 -0.1905
 9093TIP3    H248695   0.939   4.179  14.979  1.9729 -0.7930  0.5068
 9094TIP3   OH248696   1.362   3.287   3.900 -0.4125 -0.7767 -0.0845
 9094TIP3    H148697   1.350   3.382   3.911  1.3811 -0.3624 -1.3553
 9094TIP3    H248698   1.301   3.248   3.963 -1.0666  1.2151  0.5891
 9095TIP3   OH248699   5.158   6.409   0.794 -0.3287  0.4332 -0.1220
 9095TIP3    H148700   5.203   6.434   0.713 -3.2058  0.0327 -1.9579
 9095TIP3    H248701   5.187   6.319   0.810 -0.5171  0.1401 -1.3202
 9096TIP3   OH248702   0.060   0.849  14.901 -0.2161  0.0834 -0.4560
 9096TIP3    H148703  -0.025   0.816  14.930 -0.4646  0.5719 -0.6163
 9096TIP3    H248704   0.038   0.922  14.842  0.3131  0.1895 -0.5222
 9097TIP3   OH248705   4.644   6.729  15.069 -0.3007 -0.3050  0.0130
 9097TIP3    H148706   4.590   6.667  15.020 -0.4348  1.4818 -2.2195
 9097TIP3    H248707   4.595   6.744  15.150 -1.0861 -1.7701 -0.1481
 9098TIP3   OH248708   0.814   0.320  14.421  0.7179  0.3435  0.0332
 9098TIP3    H148709   0.805   0.383  14.492 -0.3749 -0.2605  0.4679
 9098TIP3    H248710   0.731   0.272  14.422  1.5493 -1.1561 -0.2170
 9099TIP3   OH248711   5.922   6.256  15.500  0.5163  0.4228 -0.4043
 9099TIP3    H148712   5.889   6.219  15.582  2.1179 -0.7084 -0.2128
 9099TIP3    H248713   5.889   6.196  15.433  1.0846  0.0370 -0.3443
 9100TIP3   OH248714   3.288   1.683   1.890 -0.0006 -0.5036  0.2518
 9100TIP3    H148715   3.370   1.723   1.918  0.1355 -0.4820 -0.1644
 9100TIP3    H248716   3.220   1.741   1.924  0.2021  0.2450 -0.5656
 9101TIP3   OH248717   3.738   3.219   0.964 -0.8192 -0.5716  0.7948
 9101TIP3    H148718   3.821   3.266   0.970  0.5945 -2.7391 -0.3751
 9101TIP3    H248719   3.692   3.260   0.891  0.0116 -0.4706  0.3203
 9102TIP3   OH248720   0.252   4.454  11.238  0.0567  0.5435 -0.1356
 9102TIP3    H148721   0.250   4.359  11.232  1.9961  0.5244 -2.0482
 9102TIP3    H248722   0.215   4.484  11.155  2.7921  1.2776 -1.1993
 9103TIP3   OH248723   0.926   3.455   3.487 -0.2491 -0.6099  0.1815
 9103TIP3    H148724   0.941   3.493   3.400  2.0820 -1.4059  0.1734
 9103TIP3    H248725   0.864   3.383   3.471  1.5491 -1.9564 -1.2198
 9104TIP3   OH248726   4.535   2.460   5.911  0.1698 -0.5500  0.2150
 9104TIP3    H148727   4.607   2.438   5.852 -0.0120 -0.4952 -0.0256
 9104TIP3    H248728   4.558   2.546   5.946  0.0064 -0.3387 -0.1952
 9105TIP3   OH248729   6.654   0.765  16.065  0.1179  0.3499  0.2249
 9105TIP3    H148730   6.748   0.762  16.083 -0.0871  2.2106  1.9596
 9105TIP3    H248731   6.621   0.681  16.095  1.2683 -0.5267 -0.8623
 9106TIP3   OH248732   3.319   3.356   3.350  0.1307  0.1406 -0.0464
 9106TIP3    H148733   3.320   3.315   3.264  1.0502  0.1159 -0.0379
 9106TIP3    H248734   3.353   3.445   3.335  0.1306  0.1967  0.2587
 9107TIP3   OH248735   2.097   5.625  16.776 -0.4956  0.3834  0.3246
 9107TIP3    H148736   2.191   5.607  16.767 -0.7411 -0.3088 -1.1350
 9107TIP3    H248737   2.088   5.717  16.750 -0.1768  0.5597  0.8258
 9108TIP3   OH248738   1.236   0.153   2.924 -0.2549  0.3930  0.2688
 9108TIP3    H148739   1.255   0.246   2.938  1.5536 -0.3224  3.5797
 9108TIP3    H248740   1.317   0.118   2.886 -0.7018  0.0290 -0.3672
 9109TIP3   OH248741   5.005   5.748   1.115  0.0860  0.3000  0.2733
 9109TIP3    H148742   4.943   5.817   1.090  2.1178  1.9591 -0.5625
 9109TIP3    H248743   4.980   5.673   1.062 -0.0837  1.5334 -1.5067
 9110TIP3   OH248744   1.442   4.368  13.082 -0.1460 -0.2621 -0.3469
 9110TIP3    H148745   1.442   4.315  13.003 -0.7366  0.4128 -0.8111
 9110TIP3    H248746   1.399   4.313  13.148 -0.7601 -0.3631 -0.8222
 9111TIP3   OH248747   4.519   1.162   5.144  0.3214  0.2228 -0.2803
 9111TIP3    H148748   4.441   1.107   5.146 -0.9383  1.7289 -3.1355
 9111TIP3    H248749   4.503   1.229   5.212  0.0128 -0.5359  0.4108
 9112TIP3   OH248750   1.724   4.585   4.608  0.0269 -0.0500  0.0603
 9112TIP3    H148751   1.635   4.609   4.584 -0.1407  0.1339  0.8313
 9112TIP3    H248752   1.748   4.516   4.546 -0.3562  0.4499 -0.6499
 9113TIP3   OH248753   2.438   6.664  12.123 -0.5848 -0.6377  0.2436
 9113TIP3    H148754   2.417   6.592  12.063  0.4386 -1.3546  0.7196
 9113TIP3    H248755   2.452   6.622  12.208 -0.3326  0.1625  0.6097
 9114TIP3   OH248756   5.523   0.798   5.050 -0.4706  0.0504 -0.2643
 9114TIP3    H148757   5.579   0.875   5.035 -0.5082  0.3636  1.0655
 9114TIP3    H248758   5.485   0.779   4.964 -0.3577  1.4468 -0.6534
 9115TIP3   OH248759   2.905   1.731   5.027  0.2595  0.1398  0.0203
 9115TIP3    H148760   2.823   1.690   5.057  1.1382 -2.2603 -0.6365
 9115TIP3    H248761   2.972   1.697   5.087  0.7798  2.4166  0.8185
 9116TIP3   OH248762   4.771   0.030  15.763 -0.2654  0.0928 -0.0681
 9116TIP3    H148763   4.850   0.084  15.755 -1.2517  1.4368 -1.6613
 9116TIP3    H248764   4.776  -0.031  15.689 -1.0985  0.7744 -0.7129
 9117TIP3   OH248765   4.282   4.295  11.857  0.5234 -0.1265  0.3460
 9117TIP3    H148766   4.296   4.238  11.932 -0.2951 -1.4447 -0.4554
 9117TIP3    H248767   4.370   4.324  11.833  0.9340 -0.8002  0.9764
 9118TIP3   OH248768   3.906   4.616   1.395  0.4807  0.0473 -0.1899
 9118TIP3    H148769   3.985   4.626   1.447  0.2544  0.2380  0.1272
 9118TIP3    H248770   3.924   4.664   1.314  0.4303  0.6914  0.1750
 9119TIP3   OH248771   1.073   0.684   1.747 -0.9938  0.2813  0.1770
 9119TIP3    H148772   0.984   0.716   1.736 -0.4850  1.9797  0.7588
 9119TIP3    H248773   1.114   0.746   1.807  1.0075  0.3494 -1.1780
 9120TIP3   OH248774   4.860   3.479  16.510  0.2383 -0.1831  0.2157
 9120TIP3    H148775   4.822   3.396  16.539 -0.1867  0.2994  1.1278
 9120TIP3    H248776   4.784   3.535  16.494  0.5203  0.0579 -0.2837
 9121TIP3   OH248777   3.342   2.984   3.277  0.0274  0.0535  0.3157
 9121TIP3    H148778   3.281   3.055   3.256  0.1745 -0.5355 -2.3879
 9121TIP3    H248779   3.285   2.911   3.302 -0.2091  0.4398  0.9466
 9122TIP3   OH248780   3.928   0.741  15.589 -0.0556  0.0247  0.2095
 9122TIP3    H148781   3.871   0.740  15.512  0.2031 -2.1919 -0.0080
 9122TIP3    H248782   3.881   0.689  15.654  0.0093  1.3724  1.3687
 9123TIP3   OH248783   5.001   3.894  13.394  0.6148  0.4341 -0.1393
 9123TIP3    H148784   5.077   3.918  13.448 -0.0526 -1.5044  1.7967
 9123TIP3    H248785   5.007   3.799  13.385 -1.8902  0.1560  0.5566
 9124TIP3   OH248786   4.659   0.721  14.254 -0.3271 -0.8837 -0.2963
 9124TIP3    H148787   4.723   0.734  14.184  1.1613  0.1510  1.1661
 9124TIP3    H248788   4.590   0.784  14.236  0.6899  0.3207 -0.1530
 9125TIP3   OH248789   3.052   3.989  10.393 -0.2422 -0.2170  0.2618
 9125TIP3    H148790   2.969   4.035  10.378  0.3690  1.3745  1.4484
 9125TIP3    H248791   3.103   4.050  10.445  1.2593 -1.6437  0.5179
 9126TIP3   OH248792   4.217   5.980   2.482  0.1459  0.0990 -0.3718
 9126TIP3    H148793   4.126   5.951   2.492 -0.3830  1.8020 -0.0116
 9126TIP3    H248794   4.243   6.009   2.569  1.1045 -0.5100 -0.4382
 9127TIP3   OH248795   0.196   3.765   4.131  0.5134 -0.2783 -0.1754
 9127TIP3    H148796   0.109   3.791   4.102  0.0308  0.1184  1.4965
 9127TIP3    H248797   0.205   3.674   4.104 -0.3652 -0.2715 -0.4902
 9128TIP3   OH248798   5.111   1.483   1.961  0.1052 -0.6553 -0.3520
 9128TIP3    H148799   5.073   1.451   1.879  0.9911  0.9678 -1.4509
 9128TIP3    H248800   5.144   1.404   2.004  1.5421 -1.3697 -2.5925
 9129TIP3   OH248801   5.879   5.687   3.210 -0.4252  0.1424 -0.6349
 9129TIP3    H148802   5.944   5.739   3.163  1.2953 -1.2209  0.0905
 9129TIP3    H248803   5.895   5.708   3.303  0.1519 -1.4183 -0.3448
 9130TIP3   OH248804   0.712   5.212   1.342  0.3123 -0.6756  0.1122
 9130TIP3    H148805   0.730   5.194   1.435 -1.4878  3.4503  1.4832
 9130TIP3    H248806   0.617   5.225   1.338  0.5005  0.5131 -2.0363
 9131TIP3   OH248807   0.248   3.376   4.474  0.8039 -0.4852 -0.2686
 9131TIP3    H148808   0.283   3.405   4.558  0.8186 -0.4078 -0.3013
 9131TIP3    H248809   0.300   3.422   4.409 -0.0575  0.4926 -0.3084
 9132TIP3   OH248810   1.721   5.013   2.664  0.0692  0.7550  0.5126
 9132TIP3    H148811   1.734   4.928   2.623  0.4827  0.4046  1.3514
 9132TIP3    H248812   1.719   5.075   2.591 -2.8777 -0.2193 -0.3550
 9133TIP3   OH248813   0.064   5.033  11.632 -0.5067  0.2978  0.2251
 9133TIP3    H148814   0.155   5.063  11.636  0.2663 -1.5004 -1.9296
 9133TIP3    H248815   0.036   5.056  11.543 -2.3429  1.1600  0.9687
 9134TIP3   OH248816   6.549   0.255  11.823  0.6702 -1.0063  0.2852
 9134TIP3    H148817   6.594   0.240  11.906  0.5935  0.1562  0.5571
 9134TIP3    H248818   6.510   0.170  11.801  0.5614 -1.2984  1.5222
 9135TIP3   OH248819   0.244   5.325  10.236 -0.5187 -0.1640  0.0190
 9135TIP3    H148820   0.303   5.393  10.268  0.3164 -1.2800  0.9450
 9135TIP3    H248821   0.281   5.298  10.152 -1.6032  1.3984 -1.0233
 9136TIP3   OH248822   4.624   6.144  11.473  0.3817 -0.5214  0.2954
 9136TIP3    H148823   4.629   6.239  11.462 -1.3886 -0.4486 -0.1906
 9136TIP3    H248824   4.593   6.131  11.563 -1.0422 -0.5531 -0.1768
 9137TIP3   OH248825   2.356   5.613  13.792 -0.3464 -0.6271  0.3756
 9137TIP3    H148826   2.293   5.542  13.790 -0.0576 -0.8929  0.5209
 9137TIP3    H248827   2.440   5.570  13.812 -0.2556 -0.1938  0.9622
 9138TIP3   OH248828   0.944   0.313   4.521 -0.4876  0.8742  0.0942
 9138TIP3    H148829   1.006   0.317   4.594 -2.8435  0.5448  2.2430
 9138TIP3    H248830   0.862   0.347   4.558 -1.8929  0.2467 -2.2787
 9139TIP3   OH248831   1.120   4.707   2.346 -0.5101 -0.2415  0.9517
 9139TIP3    H148832   1.158   4.658   2.419  0.7934  0.3683  0.7142
 9139TIP3    H248833   1.061   4.770   2.388 -0.3606 -0.4078  1.4243
 9140TIP3   OH248834   5.926   3.462  15.429  0.1347 -0.1400  0.4293
 9140TIP3    H148835   5.937   3.385  15.373  0.9868 -0.1807  0.6467
 9140TIP3    H248836   6.002   3.517  15.410 -0.3257  0.5272  0.4755
 9141TIP3   OH248837   6.549   2.344   2.459 -0.3732  0.6935  0.1859
 9141TIP3    H148838   6.639   2.325   2.487 -0.0449 -0.3712 -1.4499
 9141TIP3    H248839   6.494   2.287   2.513  0.0076  0.6170  0.4998
 9142TIP3   OH248840   3.155   0.932   5.425  0.1765  0.4155 -0.1921
 9142TIP3    H148841   3.168   0.963   5.515  1.5501  0.6983 -0.4520
 9142TIP3    H248842   3.063   0.907   5.420  0.4404 -1.1448  1.7558
 9143TIP3   OH248843   2.023   5.010   4.323 -0.5641  0.1614 -0.3214
 9143TIP3    H148844   2.081   5.010   4.400 -1.2356  2.4156  0.2700
 9143TIP3    H248845   2.050   5.087   4.273 -2.0564  0.3870 -0.8265
 9144TIP3   OH248846   5.391   2.946   3.217  0.2142 -0.1959  0.3878
 9144TIP3    H148847   5.357   2.878   3.275 -0.1154  0.8091  1.4025
 9144TIP3    H248848   5.475   2.971   3.256  1.0486 -1.0159 -0.7949
 9145TIP3   OH248849   2.280   4.965  15.754  0.3252  0.2166 -0.1800
 9145TIP3    H148850   2.259   4.980  15.846  1.2666 -0.0211  0.0797
 9145TIP3    H248851   2.375   4.956  15.751  0.3371  0.4673 -1.2153
 9146TIP3   OH248852   2.429   2.102   6.223 -0.5161  0.0086  0.6341
 9146TIP3    H148853   2.460   2.170   6.164  0.3602 -2.1574 -1.5582
 9146TIP3    H248854   2.501   2.090   6.285  0.8912 -1.2545 -1.1318
 9147TIP3   OH248855   5.760   2.822   3.534 -0.2031  0.1020 -0.6218
 9147TIP3    H148856   5.764   2.916   3.547  0.2018 -0.1923  1.7485
 9147TIP3    H248857   5.773   2.784   3.621  1.9993 -2.1832 -1.7898
 9148TIP3   OH248858   0.265   4.421  10.402  0.1324 -0.2449  0.1052
 9148TIP3    H148859   0.225   4.383  10.323 -1.6303  1.3999  0.1271
 9148TIP3    H248860   0.318   4.494  10.368  3.0935 -2.2478  0.1019
 9149TIP3   OH248861   0.559   4.442   5.174 -0.9025  0.4398 -0.0095
 9149TIP3    H148862   0.633   4.394   5.136 -0.4223  0.6297  0.6823
 9149TIP3    H248863   0.557   4.525   5.126  1.2908  1.7706  2.0189
 9150TIP3   OH248864   3.852   6.448  16.884 -0.1348 -0.0992 -0.1410
 9150TIP3    H148865   3.897   6.529  16.907  0.6651  0.0973 -2.1371
 9150TIP3    H248866   3.772   6.478  16.840 -0.6717 -0.4242  0.5980
 9151TIP3   OH248867   5.309   3.303  14.000  0.0734 -0.0446  0.4447
 9151TIP3    H148868   5.375   3.356  14.045  0.2920  1.5750 -1.6306
 9151TIP3    H248869   5.233   3.305  14.057  1.5391 -1.4009  2.5908
 9152TIP3   OH248870   0.151   1.961   1.550 -0.2822  0.0187 -0.7025
 9152TIP3    H148871   0.129   2.031   1.489  1.9981  2.2188  0.8022
 9152TIP3    H248872   0.115   1.990   1.634 -0.3137 -1.2164 -0.2686
 9153TIP3   OH248873   0.697   3.110   4.231 -0.0856  0.1295 -0.0120
 9153TIP3    H148874   0.628   3.074   4.288 -1.4614 -0.4390 -1.9429
 9153TIP3    H248875   0.694   3.204   4.248 -3.2641  0.5002 -1.9202
 9154TIP3   OH248876   2.557   4.075  14.079 -0.1247  0.4365 -0.0820
 9154TIP3    H148877   2.611   4.074  14.001  0.9595  2.8858  0.5428
 9154TIP3    H248878   2.572   4.162  14.118 -1.4979 -0.2607  2.2174
 9155TIP3   OH248879   5.624   2.470  12.484 -0.1977 -0.0171  0.0410
 9155TIP3    H148880   5.539   2.466  12.441  0.8274  0.0770 -2.1639
 9155TIP3    H248881   5.635   2.563  12.507 -0.9119 -0.1301  0.8769
 9156TIP3   OH248882   5.186   1.904  16.832 -0.5241  0.0436 -0.6142
 9156TIP3    H148883   5.157   1.861  16.912 -1.5205  1.0628 -0.3932
 9156TIP3    H248884   5.231   1.835  16.782  1.5407 -0.2580  1.4735
 9157TIP3   OH248885   1.938   6.429  15.687  0.2219 -0.2621  0.4074
 9157TIP3    H148886   1.979   6.385  15.761  1.0788 -1.1354 -0.5654
 9157TIP3    H248887   1.977   6.517  15.686 -1.3090  0.4951  2.1976
 9158TIP3   OH248888   5.309   0.226  12.299  0.1372  0.3441 -0.3820
 9158TIP3    H148889   5.328   0.236  12.206  1.2508 -1.3527 -0.3836
 9158TIP3    H248890   5.227   0.273  12.312  1.1055  2.6146 -1.7177
 9159TIP3   OH248891   6.676   3.540   1.853  0.2108 -0.6208 -0.1105
 9159TIP3    H148892   6.614   3.611   1.836  1.0752  0.1525 -0.0434
 9159TIP3    H248893   6.722   3.566   1.933  1.1888 -0.8079 -0.6019
 9160TIP3   OH248894   1.941   1.592  16.515  0.1524  0.1963  0.3654
 9160TIP3    H148895   1.907   1.540  16.442  1.7596 -0.9428  0.3504
 9160TIP3    H248896   1.905   1.550  16.593 -0.3503  0.4617  0.2769
 9161TIP3   OH248897   1.706   5.216  15.553  0.6761  0.4689  1.0242
 9161TIP3    H148898   1.694   5.306  15.525  0.4002  0.6106  1.5967
 9161TIP3    H248899   1.619   5.176  15.545  0.8836  0.1210  0.3383
 9162TIP3   OH248900   1.914   0.786  14.500  0.6909  0.5578 -0.1324
 9162TIP3    H148901   1.890   0.825  14.416 -1.2911  1.2065  0.6733
 9162TIP3    H248902   1.871   0.841  14.565  1.8058 -0.1932  1.3053
 9163TIP3   OH248903   4.693   1.285  13.165 -0.0274 -0.6338  0.1289
 9163TIP3    H148904   4.677   1.379  13.160 -0.9322 -0.7790 -0.0005
 9163TIP3    H248905   4.773   1.277  13.216 -0.5059  0.1745  1.0525
 9164TIP3   OH248906   6.609   6.709   0.901 -0.1724  0.0306 -0.3791
 9164TIP3    H148907   6.607   6.805   0.901 -1.0056  0.0294  0.9470
 9164TIP3    H248908   6.536   6.683   0.956  0.9539 -1.3520  0.5279
 9165TIP3   OH248909   5.100   5.056  15.483  0.1428  0.3311 -0.2064
 9165TIP3    H148910   5.045   5.064  15.405 -0.9965  0.9238  0.6198
 9165TIP3    H248911   5.147   5.139  15.487  1.5321 -0.3643 -1.1866
 9166TIP3   OH248912   6.770   0.759  15.400  0.1709  0.5094 -0.2469
 9166TIP3    H148913   6.676   0.741  15.396  0.1863  0.3182  0.1590
 9166TIP3    H248914   6.782   0.835  15.343 -0.2200  0.4957 -0.3542
 9167TIP3   OH248915   2.648   0.150  14.606 -0.3515 -0.2322  0.2135
 9167TIP3    H148916   2.697   0.228  14.582 -1.1596 -0.0810 -1.0718
 9167TIP3    H248917   2.709   0.097  14.656  0.3452  1.0251  0.7231
 9168TIP3   OH248918   2.838   3.001  11.008  0.6722 -0.3646 -0.0914
 9168TIP3    H148919   2.833   2.942  10.932  0.0410 -1.2575  0.6266
 9168TIP3    H248920   2.751   3.039  11.015  1.4115  1.7575 -1.3554
 9169TIP3   OH248921   1.850   4.369   1.303  0.1805  0.0478 -0.3684
 9169TIP3    H148922   1.789   4.319   1.248 -0.3482  0.2028  0.0665
 9169TIP3    H248923   1.908   4.303   1.342 -0.5141 -0.2389  0.2072
 9170TIP3   OH248924   3.569   3.027   2.420  0.3197 -0.0385  0.5422
 9170TIP3    H148925   3.598   2.965   2.487  0.4702  0.4951  0.9752
 9170TIP3    H248926   3.566   3.112   2.465 -0.8924  0.1018  0.2305
 9171TIP3   OH248927   2.311   2.872   1.412  0.6430 -0.0505  0.8562
 9171TIP3    H148928   2.254   2.803   1.376  0.5131  0.6592 -0.3732
 9171TIP3    H248929   2.379   2.825   1.460  0.2833 -1.0168  0.4498
 9172TIP3   OH248930   4.187   6.383  12.294 -0.2319  0.1161  0.1426
 9172TIP3    H148931   4.253   6.331  12.249  1.6448  1.1598  1.4861
 9172TIP3    H248932   4.237   6.457  12.331 -2.1928  1.0291  1.1210
 9173TIP3   OH248933   4.790   5.187  12.942  0.8546 -0.0749 -0.4500
 9173TIP3    H148934   4.762   5.278  12.930  0.6503 -0.4100 -3.0346
 9173TIP3    H248935   4.710   5.136  12.937  1.2501 -0.5945 -2.1367
 9174TIP3   OH248936   3.270   0.694   2.720 -0.2498 -0.5471  0.2100
 9174TIP3    H148937   3.340   0.759   2.715 -1.6730  0.9492 -1.9656
 9174TIP3    H248938   3.214   0.724   2.791 -0.4773  0.2147 -0.2743
 9175TIP3   OH248939   3.063   4.613  13.818  0.2617  0.1121  0.0748
 9175TIP3    H148940   3.045   4.524  13.789  0.9627 -0.2167  0.6064
 9175TIP3    H248941   3.007   4.668  13.765 -0.9594 -0.7320  0.4571
 9176TIP3   OH248942   4.661   0.163   1.929  0.2712 -0.0037 -0.7923
 9176TIP3    H148943   4.685   0.255   1.939  1.1141 -0.5357  4.4999
 9176TIP3    H248944   4.742   0.119   1.903  0.5622  0.3953 -0.5615
 9177TIP3   OH248945   0.654   6.496   4.189 -0.4142 -0.6064 -0.2785
 9177TIP3    H148946   0.709   6.468   4.116  1.1998 -0.6328  0.9254
 9177TIP3    H248947   0.688   6.582   4.214 -2.4690  0.5198 -1.0314
 9178TIP3   OH248948   5.619   6.595  13.570 -0.4612  0.2355  0.4515
 9178TIP3    H148949   5.613   6.628  13.660  1.5778 -0.8700  1.0460
 9178TIP3    H248950   5.596   6.670  13.515 -0.3406  1.3400  1.8567
 9179TIP3   OH248951   5.019   4.955  16.215 -0.2392  0.7797 -0.4704
 9179TIP3    H148952   4.931   4.927  16.241  0.2923 -0.2592  0.2638
 9179TIP3    H248953   5.025   5.045  16.248 -0.7081  0.5520  0.2901
 9180TIP3   OH248954   4.444   5.252  13.268 -0.2032  0.1880 -0.4352
 9180TIP3    H148955   4.473   5.292  13.350 -0.9938 -0.8934  0.4039
 9180TIP3    H248956   4.433   5.160  13.290 -0.1144 -0.1747 -1.8603
 9181TIP3   OH248957   3.346   0.512  15.098  0.2403 -0.3963  0.1886
 9181TIP3    H148958   3.412   0.504  15.029 -0.4075 -1.9371 -0.3007
 9181TIP3    H248959   3.282   0.574  15.062  0.0764 -0.9348 -0.4609
 9182TIP3   OH248960   0.800   4.598   0.830 -0.3596 -0.5012  0.0822
 9182TIP3    H148961   0.820   4.680   0.876 -4.2674 -0.0230  1.2526
 9182TIP3    H248962   0.822   4.529   0.893  0.7211 -0.2707 -0.0192
 9183TIP3   OH248963   5.563   1.405  10.317  0.0346  0.4107 -0.0392
 9183TIP3    H148964   5.536   1.314  10.308 -1.6722  1.1425 -4.5419
 9183TIP3    H248965   5.482   1.456  10.311  1.1854  2.3152 -0.4751
 9184TIP3   OH248966   2.376   0.659  12.544  0.1688  0.2906 -0.6203
 9184TIP3    H148967   2.327   0.615  12.613  0.0258  2.0166  0.4328
 9184TIP3    H248968   2.430   0.590  12.505 -1.1258 -1.0965 -0.0437
 9185TIP3   OH248969   5.733   4.585   4.117 -0.5003  0.2521  0.2169
 9185TIP3    H148970   5.648   4.615   4.087  0.0373  0.5970 -1.0168
 9185TIP3    H248971   5.794   4.614   4.050  0.5673 -0.1923  0.9616
 9186TIP3   OH248972   2.328   5.435  15.205  0.6188 -0.4093  0.3844
 9186TIP3    H148973   2.350   5.428  15.112  1.2827  0.9082  0.4260
 9186TIP3    H248974   2.379   5.366  15.247  0.9232 -0.5021 -0.1333
 9187TIP3   OH248975   1.750   4.298  16.094  0.2094  0.0365 -0.7024
 9187TIP3    H148976   1.820   4.233  16.094  0.8665  0.6916 -2.5676
 9187TIP3    H248977   1.730   4.312  16.002 -1.6241  0.6982 -0.2403
 9188TIP3   OH248978   2.927   1.535  12.223 -0.2653 -0.0723  0.1299
 9188TIP3    H148979   2.854   1.475  12.235 -0.6256 -0.1878 -2.1534
 9188TIP3    H248980   2.895   1.599  12.159  0.8663  1.2424  0.8311
 9189TIP3   OH248981   3.366   2.478  14.782  0.3719  0.1771 -0.3425
 9189TIP3    H148982   3.310   2.442  14.851  1.5473  1.5038  1.3879
 9189TIP3    H248983   3.309   2.537  14.733  0.0532  0.9758  0.9527
 9190TIP3   OH248984   2.349   6.306   2.567 -0.4623 -0.0309  0.4344
 9190TIP3    H148985   2.374   6.349   2.649 -0.5443  2.2897 -0.7008
 9190TIP3    H248986   2.275   6.250   2.592 -1.0272  1.2477  1.8174
 9191TIP3   OH248987   3.602   5.481   5.784 -0.1501  0.0273  0.1342
 9191TIP3    H148988   3.552   5.420   5.839  0.0173  0.6045  0.9476
 9191TIP3    H248989   3.562   5.567   5.801 -0.5243  0.1311 -1.1601
 9192TIP3   OH248990   2.032   3.759  10.728  0.8234 -0.1311  0.2344
 9192TIP3    H148991   1.992   3.693  10.784  1.1280 -0.2300  0.3398
 9192TIP3    H248992   2.035   3.838  10.782 -0.7614  0.3588 -0.3334
 9193TIP3   OH248993   5.823   6.185   1.471 -0.1000  0.6127  0.0039
 9193TIP3    H148994   5.745   6.136   1.495  0.4859 -0.1156  0.4535
 9193TIP3    H248995   5.835   6.248   1.543 -1.3867  2.1003 -1.0234
 9194TIP3   OH248996   1.754   4.401  16.785 -0.3102  0.3745  0.2416
 9194TIP3    H148997   1.700   4.374  16.859 -0.7098  1.9388  0.5719
 9194TIP3    H248998   1.829   4.444  16.825 -0.0899  0.4546 -0.2475
 9195TIP3   OH248999   4.772   4.534   1.523  0.1645  0.4573  0.0280
 9195TIP3    H149000   4.824   4.507   1.448  0.8536 -1.3735  1.0968
 9195TIP3    H249001   4.792   4.627   1.534 -0.2813  0.8707 -2.2584
 9196TIP3   OH249002   2.788   1.788  13.196  0.9677 -0.2162  0.2070
 9196TIP3    H149003   2.804   1.876  13.230 -2.8615  0.5552  0.5015
 9196TIP3    H249004   2.751   1.803  13.109  0.7569 -1.5651  0.0448
 9197TIP3   OH249005   4.385   5.522  16.105 -0.4826  0.1434 -0.0284
 9197TIP3    H149006   4.423   5.434  16.108 -2.6515 -0.9389  4.3916
 9197TIP3    H249007   4.379   5.542  16.012  1.4973 -3.7255 -1.2103
 9198TIP3   OH249008   3.321   6.430   4.374  0.2195  0.1450  0.4276
 9198TIP3    H149009   3.267   6.357   4.405  1.5204 -0.2560  1.8722
 9198TIP3    H249010   3.323   6.492   4.448  0.1266  1.0884 -0.3344
 9199TIP3   OH249011   5.094   6.023   0.097  0.1662  0.0159 -0.1443
 9199TIP3    H149012   5.018   5.973   0.068  0.0222  0.4234 -0.4847
 9199TIP3    H249013   5.076   6.112   0.069  2.3190 -0.4103 -3.4619
 9200TIP3   OH249014   5.501   4.859  11.194 -0.0477  0.1539 -0.3197
 9200TIP3    H149015   5.593   4.875  11.215  0.4837 -1.5305 -1.2479
 9200TIP3    H249016   5.473   4.793  11.258 -0.9128  1.3261  0.5638
 9201TIP3   OH249017   4.125   6.556   1.615  0.5750  0.2869  0.2535
 9201TIP3    H149018   4.042   6.525   1.650 -0.0753  0.1700 -1.3292
 9201TIP3    H249019   4.173   6.588   1.692 -1.9199  2.7289  0.9646
 9202TIP3   OH249020   3.138   2.788  11.398  0.5503  0.1401 -0.1278
 9202TIP3    H149021   3.061   2.772  11.452  0.6926 -0.1858 -0.0181
 9202TIP3    H249022   3.104   2.831  11.320  0.3339  0.5343  0.1829
 9203TIP3   OH249023   1.252   2.176  15.095  0.2366  0.0949 -0.9951
 9203TIP3    H149024   1.337   2.212  15.070  0.1039  1.0323 -0.2090
 9203TIP3    H249025   1.268   2.135  15.180 -0.2078  0.8565 -0.5248
 9204TIP3   OH249026   4.997   3.487   1.646 -0.1188 -0.2401 -0.2330
 9204TIP3    H149027   5.034   3.408   1.683 -0.8076 -0.2251  0.5145
 9204TIP3    H249028   5.071   3.534   1.608  0.8380  0.3525  2.2180
 9205TIP3   OH249029   4.729   0.283  13.803 -0.7226  0.1363  0.2963
 9205TIP3    H149030   4.731   0.287  13.898  0.2520 -0.1121  0.2935
 9205TIP3    H249031   4.642   0.248  13.782 -0.3663 -1.2986  1.1534
 9206TIP3   OH249032   3.588   4.350   5.000  0.2376  0.4796  0.1467
 9206TIP3    H149033   3.564   4.258   4.992  2.1435  0.0306 -1.1566
 9206TIP3    H249034   3.574   4.371   5.092 -3.7319 -0.0130 -0.1636
 9207TIP3   OH249035   1.711   5.483  11.301 -0.0632  0.0260 -0.0874
 9207TIP3    H149036   1.620   5.477  11.329  0.1978 -0.5453  0.6793
 9207TIP3    H249037   1.711   5.552  11.234 -0.8375  0.9354  0.8096
 9208TIP3   OH249038   3.706   1.132   0.622  0.1195 -0.3354  0.6345
 9208TIP3    H149039   3.699   1.212   0.673 -0.3408 -0.0140  0.0804
 9208TIP3    H249040   3.790   1.094   0.647  1.3189  1.3713 -0.5736
 9209TIP3   OH249041   2.057   6.763  13.934 -0.0171 -0.0341 -0.1143
 9209TIP3    H149042   2.026   6.852  13.952 -0.3082 -0.3181  0.8382
 9209TIP3    H249043   2.059   6.757  13.838  1.7383  1.6003 -0.2286
 9210TIP3   OH249044   2.263   5.484   0.084 -0.3098  0.2377 -0.0625
 9210TIP3    H149045   2.332   5.499   0.149  1.4215 -0.8436 -1.5538
 9210TIP3    H249046   2.277   5.553   0.019  0.9076 -1.2908 -1.5254
 9211TIP3   OH249047   0.446   2.530  15.560 -0.2803  0.6650  0.0542
 9211TIP3    H149048   0.429   2.507  15.468 -1.6153  0.9779  0.2024
 9211TIP3    H249049   0.473   2.622  15.557  1.3788  0.2113 -0.1648
 9212TIP3   OH249050   2.848   6.413   3.539 -0.3632  0.1549  0.1970
 9212TIP3    H149051   2.943   6.418   3.525 -0.2888 -1.5657 -0.1867
 9212TIP3    H249052   2.811   6.428   3.452 -0.3479 -0.6955  0.0299
 9213TIP3   OH249053   4.181   4.154  15.173 -0.0131 -0.6852  0.3985
 9213TIP3    H149054   4.166   4.240  15.211 -0.9671 -0.7897  0.2821
 9213TIP3    H249055   4.276   4.149  15.161 -0.0563  0.9452 -0.9707
 9214TIP3   OH249056   2.027   1.809  16.630 -0.2381 -0.4781 -0.2162
 9214TIP3    H149057   1.952   1.829  16.686  0.0649 -1.1993  0.4572
 9214TIP3    H249058   2.011   1.720  16.598  1.2216 -1.3971  1.4433
 9215TIP3   OH249059   3.395   4.765   4.990  0.1822  0.7184 -0.1232
 9215TIP3    H149060   3.351   4.728   5.066  0.1361  1.4744  0.2317
 9215TIP3    H249061   3.382   4.701   4.920 -1.5957  0.9841 -0.0677
 9216TIP3   OH249062   6.130   5.792   2.950  0.4186  0.3140  0.5125
 9216TIP3    H149063   6.178   5.835   2.879  2.1685  0.1413  1.5466
 9216TIP3    H249064   6.192   5.729   2.987 -0.5033  0.2846  2.0929
 9217TIP3   OH249065   0.532   2.862   2.770  0.7457 -0.1462 -0.5158
 9217TIP3    H149066   0.576   2.788   2.727  0.8585 -0.4218  0.0626
 9217TIP3    H249067   0.503   2.917   2.698 -1.1767 -1.7677 -1.0715
 9218TIP3   OH249068   5.176   4.099   3.830 -0.2458  0.1417 -0.5983
 9218TIP3    H149069   5.223   4.171   3.788  0.7336 -0.7661 -1.1086
 9218TIP3    H249070   5.235   4.024   3.822 -0.3513 -0.2678  1.6826
 9219TIP3   OH249071   0.273   4.552   1.005 -0.4351  0.0189  0.3696
 9219TIP3    H149072   0.265   4.535   0.911 -1.8960 -1.0066  0.6406
 9219TIP3    H249073   0.183   4.565   1.035  0.0861  1.5599  1.4386
 9220TIP3   OH249074   1.133   1.939  10.904  0.3792 -0.1545  0.3110
 9220TIP3    H149075   1.151   1.845  10.897 -0.2371 -0.2764  0.3318
 9220TIP3    H249076   1.164   1.963  10.992 -0.7576 -0.6399  0.8619
 9221TIP3   OH249077   3.870   4.361   3.226 -0.0150 -0.0503 -0.1000
 9221TIP3    H149078   3.928   4.332   3.296  0.5916 -0.3225 -0.6998
 9221TIP3    H249079   3.828   4.280   3.195 -0.2324  0.0591 -0.0916
 9222TIP3   OH249080   5.934   0.961  12.337 -0.3306  0.0663  0.2669
 9222TIP3    H149081   5.912   1.053  12.350  0.6558 -0.0032  3.2455
 9222TIP3    H249082   6.030   0.960  12.329 -0.3532 -0.6683  0.0446
 9223TIP3   OH249083   6.820   3.868   2.850  0.3314 -0.0045 -0.6002
 9223TIP3    H149084   6.822   3.941   2.912 -0.1357 -0.7530  0.3136
 9223TIP3    H249085   6.877   3.897   2.777  1.4212  0.6210  0.4595
 9224TIP3   OH249086   1.421   2.040  12.067  0.4943  0.4459  0.3127
 9224TIP3    H149087   1.451   2.098  11.997  0.5618  0.5834  0.4545
 9224TIP3    H249088   1.368   1.974  12.023 -0.8772  1.5042  0.3160
 9225TIP3   OH249089   5.627   3.707   4.941  0.4415  0.2286  0.4209
 9225TIP3    H149090   5.693   3.687   5.006 -0.5277  0.6323  1.5625
 9225TIP3    H249091   5.547   3.665   4.973 -0.2522  1.1093 -0.0787
 9226TIP3   OH249092   6.187   1.639   1.724 -0.0451  0.7004 -0.0579
 9226TIP3    H149093   6.096   1.611   1.726  0.2117 -0.1654 -0.2287
 9226TIP3    H249094   6.184   1.732   1.747 -0.8910  0.4861  0.7551
 9227TIP3   OH249095   2.653   4.664  15.693 -0.5466 -0.1635 -0.7915
 9227TIP3    H149096   2.644   4.658  15.598  1.6344 -3.7051 -0.9663
 9227TIP3    H249097   2.742   4.631  15.711 -1.0260 -0.0250  2.4978
 9228TIP3   OH249098   1.833   1.661   1.098 -0.0113  0.3461  0.4135
 9228TIP3    H149099   1.823   1.756   1.103 -0.0664  0.3035  1.2899
 9228TIP3    H249100   1.911   1.642   1.149  1.5209  0.1425 -1.8508
 9229TIP3   OH249101   4.737   4.423  16.590 -0.0558  0.3320 -0.6621
 9229TIP3    H149102   4.741   4.353  16.525  2.1592  1.3714 -1.7506
 9229TIP3    H249103   4.756   4.379  16.673 -1.6236 -0.7954 -0.8542
 9230TIP3   OH249104   0.174   3.104   4.729  0.1968  0.0627 -0.3232
 9230TIP3    H149105   0.241   3.140   4.788  0.5032 -3.4707  1.7516
 9230TIP3    H249106   0.091   3.133   4.767  0.4105  2.1625 -1.3161
 9231TIP3   OH249107   5.292   0.930  13.711  0.0656 -0.5329 -0.5652
 9231TIP3    H149108   5.263   1.015  13.743 -0.9350 -0.8147 -0.6850
 9231TIP3    H249109   5.371   0.912  13.761  0.1772  0.3742 -0.3929
 9232TIP3   OH249110   5.447   5.242   2.274 -0.0034 -0.2168 -0.4617
 9232TIP3    H149111   5.400   5.160   2.258 -1.6642  0.5841  0.1329
 9232TIP3    H249112   5.394   5.288   2.338  2.5524 -0.0594  1.7642
 9233TIP3   OH249113   0.622   0.516  15.448  0.3525 -0.8192 -0.4294
 9233TIP3    H149114   0.608   0.527  15.354 -0.6058 -1.6030 -0.3921
 9233TIP3    H249115   0.659   0.428  15.457 -0.2045 -1.0197 -0.0261
 9234TIP3   OH249116   0.358   1.126  13.358  0.4965  0.4730  0.0777
 9234TIP3    H149117   0.326   1.045  13.398 -0.2479  0.9596  0.4922
 9234TIP3    H249118   0.420   1.161  13.422 -0.7956  1.3201  0.9030
 9235TIP3   OH249119   0.998   2.210   4.840  0.3223 -0.0864 -0.0557
 9235TIP3    H149120   1.034   2.286   4.886 -2.5015  1.4265 -0.0936
 9235TIP3    H249121   1.007   2.231   4.747  2.0338 -1.1362 -0.1699
 9236TIP3   OH249122   6.570   6.188   3.855  0.4476  0.4344 -0.6187
 9236TIP3    H149123   6.581   6.227   3.768 -1.9646  1.2007 -0.6354
 9236TIP3    H249124   6.572   6.263   3.915 -2.2946  0.4753 -0.4735
 9237TIP3   OH249125   6.443   2.855  13.272 -0.1772 -0.1511 -0.3368
 9237TIP3    H149126   6.395   2.795  13.216 -1.6135 -0.3094  1.0204
 9237TIP3    H249127   6.416   2.833  13.361  0.7646  1.2041  0.3237
 9238TIP3   OH249128   1.431   0.619   5.010 -0.0248 -0.3542  0.0903
 9238TIP3    H149129   1.407   0.709   5.032 -0.3920 -1.0974  3.0719
 9238TIP3    H249130   1.382   0.601   4.929 -1.4921  1.4611  0.4960
 9239TIP3   OH249131   6.206   6.061   0.728  0.0775  0.0387  0.0284
 9239TIP3    H149132   6.127   6.084   0.680 -0.4689 -0.4648  0.6692
 9239TIP3    H249133   6.263   6.138   0.719 -0.5840  0.5085 -0.2258
 9240TIP3   OH249134   2.967   0.557  12.901 -0.2046 -0.1272  0.3265
 9240TIP3    H149135   2.880   0.596  12.895  0.0267  0.4004  0.3867
 9240TIP3    H249136   2.984   0.549  12.994  0.1892  0.6325  0.3278
 9241TIP3   OH249137   1.376   1.110  16.802 -0.0493 -0.3158 -0.1491
 9241TIP3    H149138   1.324   1.172  16.853  0.9557  1.0303 -0.6999
 9241TIP3    H249139   1.428   1.063  16.867  0.1277  0.3358  0.1903
 9242TIP3   OH249140   2.080   3.892   0.731 -0.7456  0.4770  0.1722
 9242TIP3    H149141   2.172   3.868   0.729 -1.1818 -1.2772 -1.8611
 9242TIP3    H249142   2.064   3.921   0.821  1.9619  1.7339  0.3345
 9243TIP3   OH249143   2.165   4.519   1.222  0.1186  0.3521 -0.2344
 9243TIP3    H149144   2.179   4.527   1.127  2.5717  0.5643  0.0712
 9243TIP3    H249145   2.192   4.429   1.242 -2.3510 -0.3998  0.0354
 9244TIP3   OH249146   5.471   1.084  14.887 -0.0238 -0.8268 -0.3254
 9244TIP3    H149147   5.396   1.143  14.892  1.4203  1.0340  0.5133
 9244TIP3    H249148   5.465   1.045  14.799 -0.6514  1.1141 -1.1984
 9245TIP3   OH249149   5.365   6.006   2.123 -0.2605 -0.4540  0.5433
 9245TIP3    H149150   5.314   6.044   2.052  0.9002  2.2320  1.0369
 9245TIP3    H249151   5.436   6.068   2.138  1.4786 -2.6098  1.8295
 9246TIP3   OH249152   5.182   2.068   5.046 -0.4318 -0.1413 -0.3947
 9246TIP3    H149153   5.240   2.040   4.976 -0.9327  0.5864 -1.1235
 9246TIP3    H249154   5.211   2.019   5.123  2.3043  1.4914 -0.2731
 9247TIP3   OH249155   2.879   0.159   0.283 -0.3230 -0.3747  0.3916
 9247TIP3    H149156   2.967   0.136   0.311 -0.7965 -0.3429  2.0597
 9247TIP3    H249157   2.850   0.226   0.346 -0.5585  1.7092 -1.7530
 9248TIP3   OH249158   1.860   2.223   2.987 -0.5363 -0.3407 -0.0237
 9248TIP3    H149159   1.940   2.253   2.943 -0.5030 -2.1900 -1.3944
 9248TIP3    H249160   1.864   2.262   3.074  0.3820  1.9512 -1.0047
 9249TIP3   OH249161   2.456   0.350   2.454  0.8595  0.2701  0.0961
 9249TIP3    H149162   2.375   0.331   2.406  1.1153  0.1806 -0.3022
 9249TIP3    H249163   2.474   0.442   2.435 -0.3544  0.9721  1.9888
 9250TIP3   OH249164   6.035   3.178  10.665 -0.4095  0.3850 -0.0936
 9250TIP3    H149165   5.976   3.236  10.616  0.7271  3.4899  1.9560
 9250TIP3    H249166   5.988   3.158  10.746 -0.4126 -0.9154 -0.3877
 9251TIP3   OH249167   5.365   3.833   4.413 -0.5941  0.2228  0.3436
 9251TIP3    H149168   5.361   3.888   4.491  2.1534  0.6762  0.2579
 9251TIP3    H249169   5.348   3.745   4.446  1.5859  0.2301  1.7597
 9252TIP3   OH249170   5.100   2.536  13.986 -0.4264 -0.1215  0.6024
 9252TIP3    H149171   5.124   2.524  13.894 -0.9360  0.0466  0.4417
 9252TIP3    H249172   5.100   2.631  13.998  1.0438 -0.1546  1.1692
 9253TIP3   OH249173   6.192   1.256  14.144  0.2899 -0.2675  0.0869
 9253TIP3    H149174   6.223   1.346  14.154 -2.0011  0.5731  0.0532
 9253TIP3    H249175   6.169   1.229  14.233 -2.5406  0.5739 -0.3086
 9254TIP3   OH249176   4.867   6.037  12.813  0.3536 -0.0082  0.5481
 9254TIP3    H149177   4.860   5.943  12.831  1.0478  0.0161  0.9931
 9254TIP3    H249178   4.841   6.046  12.721  2.6533 -0.9808 -0.2585
 9255TIP3   OH249179   4.995   0.257  12.602  0.0237 -0.2356  0.0261
 9255TIP3    H149180   4.904   0.266  12.632  0.4387 -0.6441  1.4955
 9255TIP3    H249181   5.047   0.297  12.672  0.8845  2.3168 -1.9495
 9256TIP3   OH249182   1.130   5.968  14.205 -0.4143  0.4379  0.5822
 9256TIP3    H149183   1.084   6.028  14.146 -1.4326 -2.3711 -1.7644
 9256TIP3    H249184   1.121   6.007  14.292 -1.8899  3.0792 -0.6373
 9257TIP3   OH249185   3.106   3.717  14.085  0.1218 -0.0799 -0.0655
 9257TIP3    H149186   3.200   3.712  14.101  0.1262 -1.4076 -0.3652
 9257TIP3    H249187   3.078   3.626  14.076 -1.5373  0.1301  2.0194
 9258TIP3   OH249188   2.036   0.246   1.945 -0.1479 -0.0164 -0.7845
 9258TIP3    H149189   1.990   0.166   1.918 -0.5302  0.9077 -3.1790
 9258TIP3    H249190   1.986   0.279   2.019  0.9112 -2.7191  1.3296
 9259TIP3   OH249191   1.518   5.460  15.520 -0.0773 -0.0586  0.0753
 9259TIP3    H149192   1.504   5.519  15.594  0.7886 -0.6202  0.7125
 9259TIP3    H249193   1.533   5.518  15.446  0.6284  0.5443  0.6629
 9260TIP3   OH249194   5.973   0.616  16.426 -0.0744  0.2573 -0.5097
 9260TIP3    H149195   5.898   0.674  16.412  0.5853  1.1286 -0.5382
 9260TIP3    H249196   6.038   0.671  16.470  0.0056 -0.8949  0.8805
 9261TIP3   OH249197   6.071   5.667  13.403 -0.1101  0.0939  0.3986
 9261TIP3    H149198   6.121   5.586  13.404  1.2569  0.8944  0.3683
 9261TIP3    H249199   6.023   5.667  13.486 -3.0925 -2.4181 -1.1426
 9262TIP3   OH249200   3.466   1.747   2.085  0.3062  0.0834  0.0748
 9262TIP3    H149201   3.481   1.654   2.098  1.8938  0.3796  0.5588
 9262TIP3    H249202   3.436   1.779   2.171  2.0247  0.4086  0.5905
 9263TIP3   OH249203   3.232   2.419   2.298 -0.3710  0.1467 -0.0787
 9263TIP3    H149204   3.216   2.358   2.226  0.8789 -0.9812  0.5528
 9263TIP3    H249205   3.199   2.373   2.375  0.9682  0.0541  0.4646
 9264TIP3   OH249206   1.437   4.537  14.493 -0.2367 -0.1897  0.1357
 9264TIP3    H149207   1.365   4.561  14.551  0.8612  1.2747  0.9485
 9264TIP3    H249208   1.443   4.442  14.501 -2.8212 -0.5123 -0.8942
 9265TIP3   OH249209   4.252   6.086  13.315  0.0980  0.0267  0.8123
 9265TIP3    H149210   4.163   6.117  13.334  0.6025  0.8014  2.0233
 9265TIP3    H249211   4.241   5.993  13.295 -0.8562 -0.1736  2.1397
 9266TIP3   OH249212   6.768   2.890   0.408 -0.0394  0.2677  0.5093
 9266TIP3    H149213   6.721   2.921   0.330 -1.3845 -2.7493 -0.0408
 9266TIP3    H249214   6.857   2.873   0.377  0.4077  2.2993  0.5597
 9267TIP3   OH249215   0.823   4.066  12.803  0.2759  0.0598 -0.6427
 9267TIP3    H149216   0.910   4.088  12.770 -0.1185  1.0259 -1.0762
 9267TIP3    H249217   0.787   4.006  12.738  1.2375 -1.7559  0.3887
 9268TIP3   OH249218   0.834   0.146   0.857 -0.9588 -0.1042  0.2928
 9268TIP3    H149219   0.881   0.202   0.795 -1.4268  0.2486  0.2454
 9268TIP3    H249220   0.800   0.207   0.922 -2.3546 -0.1933 -0.3130
 9269TIP3   OH249221   2.565   3.766   3.189  0.3329  0.4154 -0.3176
 9269TIP3    H149222   2.638   3.821   3.218 -0.3741  0.7946  0.8190
 9269TIP3    H249223   2.601   3.714   3.117  2.3671 -0.8794  1.4968
 9270TIP3   OH249224   4.358   2.786   5.962 -0.0268 -1.0970 -0.2257
 9270TIP3    H149225   4.442   2.764   6.002 -0.1861  0.8053  1.3226
 9270TIP3    H249226   4.307   2.826   6.033 -1.4118 -0.1762 -1.6576
 9271TIP3   OH249227   3.411   4.166   1.760  0.1433  0.3713  0.4693
 9271TIP3    H149228   3.415   4.144   1.853  0.9108  2.0657  0.8859
 9271TIP3    H249229   3.386   4.259   1.759  0.7913  0.5558 -0.9724
 9272TIP3   OH249230   1.087   3.831  16.479  0.1020 -0.2348  0.0574
 9272TIP3    H149231   1.136   3.883  16.543 -0.4296  0.9662 -0.4927
 9272TIP3    H249232   1.125   3.854  16.395 -0.5227 -0.2987 -0.2476
 9273TIP3   OH249233   6.259   6.224   3.329  0.1747 -0.1538 -0.0458
 9273TIP3    H149234   6.277   6.279   3.405  0.4263  0.1992 -0.3537
 9273TIP3    H249235   6.298   6.272   3.256 -1.2474  0.1985 -0.6050
 9274TIP3   OH249236   2.479   2.253  11.126  0.0422  0.3756 -0.1108
 9274TIP3    H149237   2.461   2.301  11.046  0.8565  1.3951  0.2980
 9274TIP3    H249238   2.396   2.255  11.175  0.4560  2.7634  0.5976
 9275TIP3   OH249239   3.160   1.320  11.289  0.2132  0.1522 -0.2521
 9275TIP3    H149240   3.235   1.286  11.240 -1.3699  0.5956 -3.2332
 9275TIP3    H249241   3.100   1.245  11.296  0.5231  0.0244  1.3497
 9276TIP3   OH249242   4.515   4.291  13.200 -0.0583 -0.1514 -0.1504
 9276TIP3    H149243   4.565   4.223  13.244  0.1516  0.6298  0.8503
 9276TIP3    H249244   4.450   4.320  13.265 -0.7540 -0.0340 -0.8797
 9277TIP3   OH249245   0.159   0.327  11.650 -0.1710 -0.2763 -0.3801
 9277TIP3    H149246   0.073   0.287  11.637 -1.0325  0.3333  2.7625
 9277TIP3    H249247   0.150   0.415  11.612 -1.4001  0.2298  0.9997
 9278TIP3   OH249248   0.128   3.467  13.060  0.4389 -0.5971 -0.5128
 9278TIP3    H149249   0.119   3.513  13.143 -1.9930  1.0689 -1.5569
 9278TIP3    H249250   0.064   3.396  13.064  0.4968 -0.6703 -0.8423
 9279TIP3   OH249251   6.432   2.740   2.638 -0.9273 -0.7916  0.4143
 9279TIP3    H149252   6.398   2.823   2.670 -1.9315 -0.2226 -1.9116
 9279TIP3    H249253   6.506   2.765   2.582 -0.7814 -1.5265  0.2758
 9280TIP3   OH249254   2.830   2.138   5.794  0.0364  0.2494 -0.0487
 9280TIP3    H149255   2.775   2.116   5.869  1.4411  0.4137  1.0670
 9280TIP3    H249256   2.806   2.074   5.727 -0.8688 -0.2392  0.7273
 9281TIP3   OH249257   3.198   3.502  15.658 -0.0814 -0.6079  0.4289
 9281TIP3    H149258   3.174   3.490  15.566 -2.9612  0.2118  0.9575
 9281TIP3    H249259   3.152   3.432  15.705 -1.1092  0.7189  1.4967
 9282TIP3   OH249260   6.167   1.753   0.393  0.4018  0.2148  0.0297
 9282TIP3    H149261   6.080   1.717   0.410  0.7286 -0.2709  0.7121
 9282TIP3    H249262   6.227   1.694   0.438  1.1443  0.1541 -1.0104
 9283TIP3   OH249263   3.623   3.509  15.379 -0.4842 -0.0674  0.3123
 9283TIP3    H149264   3.577   3.473  15.303  0.8416 -0.6673 -0.2388
 9283TIP3    H249265   3.557   3.562  15.424 -1.4564 -0.1654 -0.9348
 9284TIP3   OH249266   3.360   5.836   5.100 -0.2883  0.4179 -0.1680
 9284TIP3    H149267   3.340   5.930   5.104 -0.2900  0.4504 -0.7961
 9284TIP3    H249268   3.301   5.802   5.033 -0.5273 -0.1006  0.2975
 9285TIP3   OH249269   5.566   1.775  11.926  0.4178  0.5220 -0.3192
 9285TIP3    H149270   5.609   1.836  11.986  2.2443  0.3000 -1.3237
 9285TIP3    H249271   5.558   1.694  11.976 -1.9794  1.4889  1.0100
 9286TIP3   OH249272   6.119   5.639  15.758 -0.0154 -0.6541 -0.1839
 9286TIP3    H149273   6.025   5.636  15.775  0.1884 -0.0389  1.1858
 9286TIP3    H249274   6.154   5.696  15.826  1.1819  0.2590 -1.5055
 9287TIP3   OH249275   2.965   4.913   2.574  0.2681 -0.0017 -0.0275
 9287TIP3    H149276   2.904   4.952   2.638  0.1129 -1.2728  0.6399
 9287TIP3    H249277   2.970   4.820   2.600  0.7323 -0.3945 -1.4644
 9288TIP3   OH249278   5.379   3.785   2.037 -0.1052 -0.0133  0.3956
 9288TIP3    H149279   5.469   3.769   2.008 -0.2056 -1.2656  0.7330
 9288TIP3    H249280   5.335   3.820   1.960  0.9480  1.7963  0.5410
 9289TIP3   OH249281   1.463   4.283  14.610 -0.3550 -0.4016  0.2896
 9289TIP3    H149282   1.518   4.295  14.688  0.2466 -1.0869 -0.0117
 9289TIP3    H249283   1.376   4.264  14.645 -0.3871  0.5473  0.7776
 9290TIP3   OH249284   0.447   0.265   1.836 -0.5797 -0.1402 -0.1755
 9290TIP3    H149285   0.364   0.218   1.846 -0.5817 -0.1856 -0.4164
 9290TIP3    H249286   0.466   0.261   1.743 -0.6093  0.3914 -0.2056
 9291TIP3   OH249287   2.285   1.444  12.700 -0.2866 -0.1467 -0.0216
 9291TIP3    H149288   2.348   1.482  12.639 -0.1288  0.5235  0.5508
 9291TIP3    H249289   2.200   1.479  12.671 -0.1760  0.4227  0.3230
 9292TIP3   OH249290   6.389   5.614  15.267  0.1449 -0.7324  0.4887
 9292TIP3    H149291   6.392   5.573  15.353  0.0800  0.2866  0.9948
 9292TIP3    H249292   6.471   5.589  15.225  1.8085  1.4921  2.1739
 9293TIP3   OH249293   6.670   5.695   1.393 -0.7432 -0.0402  0.0767
 9293TIP3    H149294   6.639   5.606   1.411 -0.8349  0.0790  0.5203
 9293TIP3    H249295   6.764   5.693   1.410 -1.0461  0.4297  2.0548
 9294TIP3   OH249296   1.772   5.105  10.967  0.4029  0.2073  1.2277
 9294TIP3    H149297   1.690   5.055  10.974  0.5597 -0.4022 -0.6802
 9294TIP3    H249298   1.840   5.039  10.979  0.6340 -0.3955 -2.3647
 9295TIP3   OH249299   1.312   2.284  10.740 -0.2286  0.2012  0.1090
 9295TIP3    H149300   1.339   2.375  10.724 -0.0193 -0.0873 -1.2949
 9295TIP3    H249301   1.217   2.287  10.737 -0.2462  0.4739  0.7206
 9296TIP3   OH249302   1.490   2.544   5.086 -0.6433 -0.4394  0.0892
 9296TIP3    H149303   1.474   2.612   5.021  2.7177  1.6764  1.2238
 9296TIP3    H249304   1.554   2.486   5.044 -0.5519 -0.6448  0.5050
 9297TIP3   OH249305   4.172   2.621  14.042 -1.2554  0.3958 -0.0423
 9297TIP3    H149306   4.097   2.644  13.988 -2.1567 -0.9070  0.5928
 9297TIP3    H249307   4.135   2.602  14.128 -0.2905 -0.7973  0.1465
 9298TIP3   OH249308   3.096   3.989   0.256 -0.4909 -0.0674  0.5086
 9298TIP3    H149309   3.104   3.956   0.346 -0.9254 -1.7750 -0.0425
 9298TIP3    H249310   3.027   4.055   0.261 -0.2965  0.0806  1.4740
 9299TIP3   OH249311   4.401   1.496  15.739 -0.2705 -0.3024 -0.2946
 9299TIP3    H149312   4.364   1.408  15.730  0.1214 -0.3761 -1.4029
 9299TIP3    H249313   4.325   1.554  15.737 -0.4727 -0.5695 -0.4752
 9300TIP3   OH249314   5.334   3.180   5.467  0.3601 -0.4327  0.2212
 9300TIP3    H149315   5.414   3.170   5.416  0.3221 -1.8239  0.4116
 9300TIP3    H249316   5.334   3.106   5.527 -1.1152 -0.5182  0.1524
 9301TIP3   OH249317   3.713   3.274   6.110  0.0766 -0.3170 -0.0346
 9301TIP3    H149318   3.768   3.211   6.156 -0.7581 -1.2695 -0.3226
 9301TIP3    H249319   3.676   3.329   6.179  0.5203 -0.3546  0.2391
 9302TIP3   OH249320   4.691   6.023   0.207 -0.1339  0.1611  0.1348
 9302TIP3    H149321   4.778   6.021   0.167 -0.1519  1.1676  0.0363
 9302TIP3    H249322   4.703   5.980   0.292  0.2552 -0.5211 -0.2519
 9303TIP3   OH249323   4.826   1.666   4.333  0.2979 -0.2077  0.4833
 9303TIP3    H149324   4.898   1.706   4.381  0.3394 -0.5071  0.6677
 9303TIP3    H249325   4.751   1.722   4.352  0.6003  0.4264 -0.1574
 9304TIP3   OH249326   4.525   5.537   3.196  0.3716 -0.4705 -0.0769
 9304TIP3    H149327   4.430   5.530   3.186  0.4622 -1.5290 -0.3148
 9304TIP3    H249328   4.558   5.450   3.174  1.5376  0.3164 -1.6056
 9305TIP3   OH249329   4.419   6.492  14.365 -0.5485 -0.3001  0.5562
 9305TIP3    H149330   4.381   6.490  14.278 -0.1094  3.1712  0.1270
 9305TIP3    H249331   4.351   6.533  14.420  0.3031  0.4110  1.1156
 9306TIP3   OH249332   0.309   3.980   4.276  0.3492 -0.5976  0.7668
 9306TIP3    H149333   0.353   4.030   4.208 -0.6836 -0.7848 -0.0784
 9306TIP3    H249334   0.281   3.899   4.232 -0.2161 -0.7826  1.4358
 9307TIP3   OH249335   2.199   2.537   5.807  0.0280  0.2541  0.4946
 9307TIP3    H149336   2.228   2.559   5.718  0.2518  0.9845  0.7417
 9307TIP3    H249337   2.279   2.510   5.851 -0.4715 -2.8769 -0.2893
 9308TIP3   OH249338   1.580   1.317  12.526 -0.2348  0.6104  0.3441
 9308TIP3    H149339   1.553   1.295  12.437  1.5039  1.3596 -0.4216
 9308TIP3    H249340   1.676   1.308  12.525  0.0814  3.0474  1.4151
 9309TIP3   OH249341   4.437   4.948  13.956  0.3681  0.1085  0.5709
 9309TIP3    H149342   4.355   4.931  13.909  0.8406  0.7734 -0.5243
 9309TIP3    H249343   4.426   4.903  14.040 -0.9507 -0.1565  0.2782
 9310TIP3   OH249344   3.929   3.381  16.430 -0.2415  0.2197 -0.0348
 9310TIP3    H149345   3.998   3.387  16.496 -1.8172 -0.1250  1.7358
 9310TIP3    H249346   3.885   3.298  16.449 -1.4768  0.6722 -0.7711
 9311TIP3   OH249347   5.703   2.389  12.063 -0.3467  0.5369 -0.3449
 9311TIP3    H149348   5.647   2.358  11.992 -0.8597  0.3938  0.1224
 9311TIP3    H249349   5.677   2.480  12.077  0.7715  1.0420 -1.3312
 9312TIP3   OH249350   4.132   3.931  11.471  0.5151  0.3914  0.0143
 9312TIP3    H149351   4.194   3.970  11.532  0.8335 -0.9431  0.5877
 9312TIP3    H249352   4.185   3.903  11.397  0.3531  0.6778 -0.2122
 9313TIP3   OH249353   3.136   4.500   5.585  0.5065 -1.0238  0.1983
 9313TIP3    H149354   3.048   4.538   5.575  1.4268  1.0654 -0.6941
 9313TIP3    H249355   3.150   4.497   5.680  0.7928  2.1959  0.3901
 9314TIP3   OH249356   5.306   4.652   4.777  0.2102 -0.3929 -0.1398
 9314TIP3    H149357   5.381   4.711   4.782  0.0040 -0.1668  0.4222
 9314TIP3    H249358   5.344   4.564   4.773  0.5121 -0.3373  1.0295
 9315TIP3   OH249359   0.953   1.994  12.696  0.0515 -0.5099 -0.7398
 9315TIP3    H149360   0.908   1.914  12.667  1.3184 -1.7212  0.4697
 9315TIP3    H249361   0.883   2.055  12.719 -0.9521 -1.5791 -0.8865
 9316TIP3   OH249362   5.979   1.378  13.403 -0.6991 -0.1413 -0.6668
 9316TIP3    H149363   5.996   1.429  13.323 -1.4009  1.9113  0.4104
 9316TIP3    H249364   6.066   1.356  13.435 -0.3635  0.3042 -1.2286
 9317TIP3   OH249365   2.920   0.742  15.448 -0.2346  0.3236 -0.7268
 9317TIP3    H149366   2.856   0.706  15.510  1.3728 -2.9973 -0.8195
 9317TIP3    H249367   2.871   0.751  15.366 -0.9119 -1.0363 -0.5004
 9318TIP3   OH249368   3.306   0.831   1.151 -0.2242  0.8334  0.0045
 9318TIP3    H149369   3.379   0.770   1.166 -0.2456  0.8492  0.1694
 9318TIP3    H249370   3.319   0.901   1.215 -1.1941  0.1061  1.0294
 9319TIP3   OH249371   3.557   5.456   5.064  0.3284  0.6798 -0.1553
 9319TIP3    H149372   3.553   5.483   4.973  0.8274  1.1853 -0.0278
 9319TIP3    H249373   3.570   5.361   5.061 -2.3584  0.2250 -0.6131
 9320TIP3   OH249374   1.459   4.683  10.888 -0.0817  0.0470 -0.3310
 9320TIP3    H149375   1.378   4.645  10.855 -1.4057  1.4922  1.0573
 9320TIP3    H249376   1.470   4.644  10.975  0.3257  0.3888 -0.2253
 9321TIP3   OH249377   5.150   5.150  12.957 -0.0070 -0.6220 -0.0639
 9321TIP3    H149378   5.149   5.195  13.041  0.2080 -2.2470  0.8404
 9321TIP3    H249379   5.076   5.090  12.961  0.5844 -1.4123 -0.6290
 9322TIP3   OH249380   0.350   3.120   1.532 -0.3236  0.2577  0.2146
 9322TIP3    H149381   0.373   3.186   1.466 -1.2641  0.5763  0.1996
 9322TIP3    H249382   0.435   3.093   1.569  0.1863  0.3249 -0.8720
 9323TIP3   OH249383   4.830   4.938   0.886  0.1207  0.7268 -0.6615
 9323TIP3    H149384   4.837   4.964   0.795 -1.0543  0.9439 -0.6977
 9323TIP3    H249385   4.804   4.846   0.883  1.8703  0.1887 -0.5265
 9324TIP3   OH249386   2.927   0.893  14.089  0.0315 -0.5735 -0.5095
 9324TIP3    H149387   2.879   0.965  14.049 -0.3447 -0.8156 -0.5099
 9324TIP3    H249388   2.859   0.828  14.111  0.3838 -1.0205 -0.7140
 9325TIP3   OH249389   4.603   5.028  13.122 -0.3471  0.3246 -0.0526
 9325TIP3    H149390   4.512   5.010  13.145 -0.4021 -0.2770 -0.7202
 9325TIP3    H249391   4.640   4.943  13.098  0.2489  0.6383 -0.2712
 9326TIP3   OH249392   4.972   2.555  12.457 -0.2464  0.7724  0.2342
 9326TIP3    H149393   4.904   2.551  12.389  1.9996 -0.6546 -2.1309
 9326TIP3    H249394   4.939   2.499  12.527 -0.8820 -1.2827 -1.5800
 9327TIP3   OH249395   0.913   1.310  14.318 -0.4414  0.0362  0.3949
 9327TIP3    H149396   0.872   1.341  14.399 -0.3683  1.8145 -0.2206
 9327TIP3    H249397   0.980   1.248  14.349 -0.0322  1.1006  1.7457
 9328TIP3   OH249398   0.781   0.460   3.862 -0.5058  0.4195 -0.1189
 9328TIP3    H149399   0.854   0.454   3.800 -0.8676 -2.4642 -0.3973
 9328TIP3    H249400   0.709   0.415   3.819 -1.5296  0.5377  1.3965
 9329TIP3   OH249401   0.667   5.954  12.735  0.1142 -0.4352  0.3640
 9329TIP3    H149402   0.632   5.997  12.657  0.0295 -0.6063  0.3057
 9329TIP3    H249403   0.761   5.972  12.733 -0.1766  1.3901  1.3729
 9330TIP3   OH249404   3.090   2.175   2.778 -0.4761 -1.0364 -0.4392
 9330TIP3    H149405   3.155   2.106   2.763 -0.0491 -1.0290  1.1484
 9330TIP3    H249406   3.025   2.135   2.835 -1.4176 -0.7666 -1.2974
 9331TIP3   OH249407   3.799   3.086   4.713 -0.4852  0.5638  0.1328
 9331TIP3    H149408   3.893   3.104   4.714 -0.5896  1.1580  0.1741
 9331TIP3    H249409   3.786   3.019   4.779 -0.0243  0.1194 -0.2221
 9332TIP3   OH249410   2.641   0.320   1.661  0.1920  0.6998  0.2444
 9332TIP3    H149411   2.733   0.332   1.684  0.3328 -0.6473  0.4453
 9332TIP3    H249412   2.641   0.315   1.565  0.1627  1.8655  0.1672
 9333TIP3   OH249413   0.339   4.795   0.703  0.2751 -0.2319  0.0098
 9333TIP3    H149414   0.338   4.700   0.711 -0.7080 -0.1439  1.3187
 9333TIP3    H249415   0.430   4.820   0.720  0.5812 -0.9333 -0.5372
 9334TIP3   OH249416   1.080   3.518  13.587  0.1506 -0.6349 -0.4574
 9334TIP3    H149417   1.016   3.585  13.561  0.1576 -0.6780 -0.5823
 9334TIP3    H249418   1.148   3.567  13.633 -0.4947 -0.7145  0.6211
 9335TIP3   OH249419   3.171   5.782   6.142  0.1173 -0.0957 -0.6048
 9335TIP3    H149420   3.176   5.837   6.064  0.5861 -0.0531 -0.5511
 9335TIP3    H249421   3.080   5.785   6.169  0.0363  0.2189 -0.9167
 9336TIP3   OH249422   2.110   1.313  13.395 -0.8297 -0.8347  0.3425
 9336TIP3    H149423   2.130   1.394  13.443 -2.0168 -0.0528 -0.4208
 9336TIP3    H249424   2.181   1.304  13.332 -0.3019 -0.8006  0.9164
 9337TIP3   OH249425   3.301   3.448  14.620 -0.1087  0.1661 -0.4950
 9337TIP3    H149426   3.394   3.452  14.597  0.3087 -0.5337  0.9877
 9337TIP3    H249427   3.264   3.384  14.559  1.0491 -1.9202  0.8745
 9338TIP3   OH249428   5.741   6.601   5.403  0.0609 -0.3723 -0.1675
 9338TIP3    H149429   5.812   6.664   5.392 -0.0612 -0.2138 -0.0553
 9338TIP3    H249430   5.785   6.522   5.436 -0.0755  0.4642  2.2197
 9339TIP3   OH249431   0.641   0.960  11.493  0.0258  0.2032 -0.2057
 9339TIP3    H149432   0.554   0.964  11.534  1.1972  1.8231  2.3122
 9339TIP3    H249433   0.632   1.016  11.415 -0.8760  1.4322  0.7307
 9340TIP3   OH249434   5.642   0.302  15.306  0.0730  0.4600  0.1445
 9340TIP3    H149435   5.607   0.263  15.226 -1.1059  0.4190  0.6706
 9340TIP3    H249436   5.721   0.250  15.325  0.5611  0.6887 -1.1557
 9341TIP3   OH249437   4.303   4.996   0.855  0.0851  0.0426  0.4769
 9341TIP3    H149438   4.234   4.980   0.919 -0.1765 -0.5611  0.0504
 9341TIP3    H249439   4.375   4.938   0.881 -0.6866 -1.5603 -0.7915
 9342TIP3   OH249440   1.637   1.427  15.405  0.1391  0.3512  0.1609
 9342TIP3    H149441   1.675   1.513  15.387  0.5282 -0.0780 -1.2257
 9342TIP3    H249442   1.651   1.414  15.498 -1.9975  2.7427  0.9251
 9343TIP3   OH249443   4.434   1.500  12.472  0.2417  0.0516 -0.0917
 9343TIP3    H149444   4.509   1.467  12.423  1.3867  1.8548  0.3750
 9343TIP3    H249445   4.406   1.426  12.525  2.2801 -0.4179  0.4087
 9344TIP3   OH249446   2.567   3.250   0.542  0.2295  0.0617  0.0098
 9344TIP3    H149447   2.658   3.276   0.555  0.1778  0.0869  0.3368
 9344TIP3    H249448   2.525   3.327   0.505 -0.0735  0.6983  1.5797
 9345TIP3   OH249449   2.865   5.694   1.756 -0.0120  0.4124  0.1561
 9345TIP3    H149450   2.945   5.742   1.737  0.2914 -0.3854 -0.6681
 9345TIP3    H249451   2.892   5.602   1.758 -1.0035  0.0757 -0.7769
 9346TIP3   OH249452   4.225   4.866  13.793 -0.2474 -0.6773  0.1111
 9346TIP3    H149453   4.214   4.780  13.752  0.0592 -0.9769  0.6418
 9346TIP3    H249454   4.146   4.915  13.768 -0.2974 -1.0220 -0.4142
 9347TIP3   OH249455   4.434   2.861  14.667 -0.2600 -0.2225  0.3454
 9347TIP3    H149456   4.412   2.903  14.750  1.2517 -0.1051  0.7030
 9347TIP3    H249457   4.477   2.929  14.616 -0.0848 -0.6334 -0.0552
 9348TIP3   OH249458   0.236   0.843   2.708 -0.0245  0.3699 -0.3469
 9348TIP3    H149459   0.271   0.766   2.663  0.1922 -0.1404  0.6621
 9348TIP3    H249460   0.269   0.917   2.658  2.0215 -0.1141  0.2203
 9349TIP3   OH249461   5.207   2.896  12.259 -0.1027  0.2504 -0.1483
 9349TIP3    H149462   5.224   2.964  12.323  0.2706 -0.5471  0.6169
 9349TIP3    H249463   5.180   2.820  12.311 -0.9699 -0.0532 -1.0066
 9350TIP3   OH249464   6.408   0.632  15.923  0.0541  0.0034 -0.0123
 9350TIP3    H149465   6.420   0.703  15.986 -0.7243  0.1972 -0.0669
 9350TIP3    H249466   6.495   0.618  15.885  0.1510  1.1688 -0.2539
 9351TIP3   OH249467   1.877   5.654   2.495  0.6907  0.2024  0.4050
 9351TIP3    H149468   1.969   5.667   2.517  1.3834 -0.3489 -1.9568
 9351TIP3    H249469   1.876   5.642   2.400 -1.9142  0.9576  0.2629
 9352TIP3   OH249470   4.256   4.725   0.683 -0.7424 -0.0150  0.7055
 9352TIP3    H149471   4.283   4.790   0.617 -0.5407  0.1430  0.9413
 9352TIP3    H249472   4.232   4.778   0.759 -2.2889 -0.1165  0.3114
 9353TIP3   OH249473   6.525   2.530  17.023  0.8942 -0.1613 -0.4885
 9353TIP3    H149474   6.531   2.586  16.946  1.7744 -0.4898 -0.6565
 9353TIP3    H249475   6.470   2.457  16.995  0.3226  0.2491 -0.4745
 9354TIP3   OH249476   2.235   1.341  14.349  0.0568  0.0007  0.0683
 9354TIP3    H149477   2.144   1.370  14.347  0.5885  1.8237  0.2478
 9354TIP3    H249478   2.268   1.371  14.435  1.7774  2.7687 -1.3851
 9355TIP3   OH249479   0.039   3.198   3.936 -0.0311 -0.3773 -0.4096
 9355TIP3    H149480  -0.006   3.118   3.908  0.6529 -0.8032 -0.3113
 9355TIP3    H249481   0.048   3.189   4.030  0.1426 -0.2272 -0.4124
 9356TIP3   OH249482   0.886   6.625  14.144 -0.0847 -0.0792 -0.2424
 9356TIP3    H149483   0.846   6.647  14.059 -0.2300 -1.6602 -0.6230
 9356TIP3    H249484   0.816   6.640  14.208  0.2631  1.8874 -0.2596
 9357TIP3   OH249485   4.777   6.700  15.542 -0.3805 -0.4817  0.5975
 9357TIP3    H149486   4.787   6.667  15.453  3.4039  3.2547 -0.7027
 9357TIP3    H249487   4.804   6.626  15.598  1.5543 -1.6121 -1.6409
 9358TIP3   OH249488   0.009   0.851  12.281  0.0249  0.5025  0.2573
 9358TIP3    H149489  -0.058   0.809  12.226 -0.1300  0.2453  0.6402
 9358TIP3    H249490  -0.038   0.875  12.361  0.6872 -0.8792  1.0849
 9359TIP3   OH249491   0.482   6.693  14.768  0.2254 -0.3600 -0.3908
 9359TIP3    H149492   0.480   6.657  14.680  2.8302 -0.1699 -0.6009
 9359TIP3    H249493   0.505   6.619  14.824  1.0042  0.0088 -0.2118
 9360TIP3   OH249494   2.685   5.848  12.902 -0.6395  0.3446 -0.0557
 9360TIP3    H149495   2.619   5.912  12.927 -0.5540  0.0872  0.8610
 9360TIP3    H249496   2.709   5.805  12.984  1.1860  0.9323 -0.2465
 9361TIP3   OH249497   1.665   2.709   0.577 -0.1600 -0.1778 -0.0674
 9361TIP3    H149498   1.633   2.653   0.507 -0.9881 -1.2110  1.0948
 9361TIP3    H249499   1.744   2.666   0.608  0.3744  0.4388 -0.5418
 9362TIP3   OH249500   3.615   0.771  15.487 -0.1837  0.2345  0.5952
 9362TIP3    H149501   3.618   0.749  15.393  0.3971  0.4418  0.5614
 9362TIP3    H249502   3.572   0.696  15.527  0.8251 -0.5077  0.3404
 9363TIP3   OH249503   1.151   2.622   1.717  0.5807  0.0038 -0.3109
 9363TIP3    H149504   1.087   2.638   1.649  2.8252 -1.8384 -3.0829
 9363TIP3    H249505   1.143   2.529   1.737  1.0707  0.1747  0.7834
 9364TIP3   OH249506   6.291   5.969   1.632  0.3337 -0.8560  0.0696
 9364TIP3    H149507   6.250   5.932   1.710  1.0196 -0.4546  0.6400
 9364TIP3    H249508   6.278   6.063   1.640 -0.9138 -0.9024 -1.0897
 9365TIP3   OH249509   0.078   6.475   0.520 -0.4930 -0.1874 -0.5117
 9365TIP3    H149510   0.063   6.543   0.585  0.0650 -0.8952  0.3952
 9365TIP3    H249511   0.104   6.522   0.440  0.7557  0.6404  0.3409
 9366TIP3   OH249512   4.028   3.614   2.568 -0.6240 -0.1662 -0.1894
 9366TIP3    H149513   4.082   3.683   2.530  0.4925 -1.9679 -2.1172
 9366TIP3    H249514   4.091   3.545   2.590 -1.5858 -0.3192  2.4538
 9367TIP3   OH249515   6.032   1.355   2.462 -0.0877 -0.3085  0.1294
 9367TIP3    H149516   6.010   1.290   2.396  2.9046  0.0833 -1.4365
 9367TIP3    H249517   6.079   1.423   2.413 -0.3667  1.4982  2.2173
 9368TIP3   OH249518   1.289   4.823   5.010 -0.8240 -0.6007 -0.3430
 9368TIP3    H149519   1.318   4.910   5.036 -1.0333 -0.5147 -0.3886
 9368TIP3    H249520   1.207   4.839   4.962  0.2897 -0.6228 -2.3298
 9369TIP3   OH249521   4.487   2.523   0.700  0.0430  0.4417  0.4411
 9369TIP3    H149522   4.566   2.514   0.754  0.2626 -1.1905 -0.1127
 9369TIP3    H249523   4.440   2.441   0.712 -1.0422  0.9628 -0.0995
 9370TIP3   OH249524   2.047   5.106   0.552  0.0151  0.3218  0.1821
 9370TIP3    H149525   2.111   5.097   0.482  0.0600  0.1940  0.2399
 9370TIP3    H249526   1.964   5.082   0.512  0.0715  0.0471  0.2265
 9371TIP3   OH249527   4.394   5.211   5.609  0.1071  0.4005  0.2263
 9371TIP3    H149528   4.415   5.138   5.550  0.7843  0.2758  0.6050
 9371TIP3    H249529   4.465   5.273   5.595  0.5878  0.1218  1.3025
 9372TIP3   OH249530   4.635   2.053   4.256 -0.0802 -0.0111 -0.2046
 9372TIP3    H149531   4.710   2.022   4.206  1.2029 -0.9552  2.1789
 9372TIP3    H249532   4.622   1.988   4.324 -1.7576  1.2002  0.7235
 9373TIP3   OH249533   2.370   4.680  16.396  0.1206  0.2365  0.5494
 9373TIP3    H149534   2.410   4.642  16.474  2.0787  0.7460 -0.1518
 9373TIP3    H249535   2.407   4.767  16.389  0.1442  0.1264 -1.0587
 9374TIP3   OH249536   6.460   5.419   4.631  0.6221  0.1274 -0.3310
 9374TIP3    H149537   6.414   5.497   4.664 -1.4003  0.0618 -2.7030
 9374TIP3    H249538   6.494   5.376   4.709 -0.3788  2.0657  1.2555
 9375TIP3   OH249539   0.853   2.473   2.950  0.0307 -0.2674  0.0035
 9375TIP3    H149540   0.869   2.407   3.017 -0.7165 -1.3221 -0.8421
 9375TIP3    H249541   0.790   2.533   2.990 -0.0769 -0.6413  0.4015
 9376TIP3   OH249542   1.133   0.317  12.855 -0.0806 -0.5251  0.0233
 9376TIP3    H149543   1.075   0.242  12.873 -0.7828  0.1827  0.8582
 9376TIP3    H249544   1.214   0.295  12.900 -0.1918 -0.9043  0.0470
 9377TIP3   OH249545   1.487   6.258   5.170 -0.1010 -0.3491 -0.0417
 9377TIP3    H149546   1.394   6.248   5.191  0.4156 -1.9106  1.7802
 9377TIP3    H249547   1.488   6.313   5.092 -2.5286  0.0455  0.1256
 9378TIP3   OH249548   4.044   6.132  10.415 -0.2664  0.1690  0.2594
 9378TIP3    H149549   3.998   6.190  10.355 -1.2796  0.2836  1.1200
 9378TIP3    H249550   4.130   6.172  10.426 -0.1745  0.2982 -0.8794
 9379TIP3   OH249551   6.314   5.627   0.953  0.2348  0.1114 -0.2409
 9379TIP3    H149552   6.267   5.685   0.894 -0.5683  0.8049  1.0329
 9379TIP3    H249553   6.288   5.655   1.041  1.0686 -1.1456  0.4492
 9380TIP3   OH249554   6.263   1.145   1.690  0.8498  0.0218  0.5526
 9380TIP3    H149555   6.237   1.060   1.724  1.3007  0.1721  1.2935
 9380TIP3    H249556   6.200   1.207   1.727  1.1236  0.1396  0.8246
 9381TIP3   OH249557   4.649   2.731  16.614 -0.2034 -0.8468 -0.4759
 9381TIP3    H149558   4.613   2.690  16.692  1.5918 -0.7371  0.4728
 9381TIP3    H249559   4.711   2.796  16.648  0.8560 -1.0129 -1.9774
 9382TIP3   OH249560   0.417   0.198  10.456 -0.3717 -0.6531 -0.4618
 9382TIP3    H149561   0.482   0.167  10.519 -1.1032 -0.4875  0.4091
 9382TIP3    H249562   0.461   0.267  10.407  0.1730 -0.6939 -0.0392
 9383TIP3   OH249563   6.312   0.885   0.234  0.2286  0.1488  0.4074
 9383TIP3    H149564   6.281   0.832   0.160 -1.1287 -0.9900  1.7374
 9383TIP3    H249565   6.310   0.825   0.309  3.5761  0.6710  1.0394
 9384TIP3   OH249566   3.361   4.175  12.757  0.2087 -0.4756 -0.4468
 9384TIP3    H149567   3.327   4.194  12.669 -1.8999  1.2737  0.6633
 9384TIP3    H249568   3.341   4.082  12.770  0.2742 -0.6852 -1.6654
 9385TIP3   OH249569   0.400   3.140  15.844  0.1650 -0.4732  0.0564
 9385TIP3    H149570   0.460   3.158  15.917 -1.9531 -1.0319  2.0690
 9385TIP3    H249571   0.444   3.072  15.793  2.3691  0.9684 -0.1012
 9386TIP3   OH249572   4.751   1.608   3.994  0.2324 -0.2781 -0.7174
 9386TIP3    H149573   4.730   1.687   4.043 -0.7883 -0.7911 -0.3201
 9386TIP3    H249574   4.788   1.548   4.059  1.9240  0.1815 -1.1860
 9387TIP3   OH249575   6.578   0.170   2.716  0.1558  0.2188 -0.2842
 9387TIP3    H149576   6.654   0.112   2.714  0.2057  0.2530  0.5215
 9387TIP3    H249577   6.507   0.115   2.751 -0.1280  0.2729 -0.7553
 9388TIP3   OH249578   3.277   6.090   5.098 -0.4533  0.0054  0.1010
 9388TIP3    H149579   3.229   6.076   5.179  0.7106 -0.8032  0.6714
 9388TIP3    H249580   3.322   6.173   5.111  1.0445 -0.9107  0.9712
 9389TIP3   OH249581   0.633   1.930  10.476  0.2964 -0.3539 -0.3059
 9389TIP3    H149582   0.583   2.012  10.480 -1.1419 -1.2172  0.5025
 9389TIP3    H249583   0.704   1.942  10.539  0.6695  0.6129 -0.8950
 9390TIP3   OH249584   4.796   4.957  13.810 -0.1555  0.2242  0.1069
 9390TIP3    H149585   4.723   4.898  13.824  0.5839 -0.9334 -0.7519
 9390TIP3    H249586   4.873   4.900  13.806  0.7743  1.3823  0.7624
 9391TIP3   OH249587   0.710   4.462   6.144  0.0396 -0.5399 -0.2228
 9391TIP3    H149588   0.705   4.554   6.121 -1.2384 -0.3938  0.5703
 9391TIP3    H249589   0.621   4.438   6.170  0.6266 -1.6273  0.9243
 9392TIP3   OH249590   1.193   5.865  11.928 -0.1701 -0.0022 -0.3342
 9392TIP3    H149591   1.101   5.845  11.915 -0.4993  1.7380 -0.9118
 9392TIP3    H249592   1.232   5.863  11.840 -0.1175  1.2782 -0.3597
 9393TIP3   OH249593   1.978   0.241  14.957  0.0445  0.3788  0.0308
 9393TIP3    H149594   1.996   0.273  14.869  0.9254 -0.8504 -0.2682
 9393TIP3    H249595   1.900   0.186  14.947  0.1635  0.2130  0.0011
 9394TIP3   OH249596   0.424   6.390   4.312  0.5774 -0.7207 -0.6849
 9394TIP3    H149597   0.454   6.415   4.399 -1.2332  0.2811 -0.2990
 9394TIP3    H249598   0.496   6.414   4.254  1.8698 -1.5337  0.5183
 9395TIP3   OH249599   3.380   6.220  11.583  0.3243 -0.2002  0.6509
 9395TIP3    H149600   3.384   6.260  11.670  0.2057  0.4959  0.3500
 9395TIP3    H249601   3.409   6.290  11.524  0.2112 -0.5999  0.1128
 9396TIP3   OH249602   6.000   5.848   4.361 -0.2786 -0.1968  0.6887
 9396TIP3    H149603   5.957   5.899   4.430 -0.3642  0.9894 -0.2044
 9396TIP3    H249604   5.940   5.775   4.345 -1.0836  0.4403  0.7110
 9397TIP3   OH249605   4.493   4.300   0.417 -0.4669  0.0107 -0.2886
 9397TIP3    H149606   4.431   4.349   0.471  1.8675  0.6282  2.0214
 9397TIP3    H249607   4.507   4.219   0.465 -0.5106 -0.7277 -1.5001
 9398TIP3   OH249608   6.277   4.671   1.320 -0.3906 -0.1621  0.4105
 9398TIP3    H149609   6.291   4.685   1.413  1.3575  0.2482  0.1137
 9398TIP3    H249610   6.350   4.615   1.293 -1.3938 -1.0528 -0.5343
 9399TIP3   OH249611   2.086   2.153   1.407 -0.0879 -0.0167 -0.1214
 9399TIP3    H149612   2.125   2.227   1.455  2.0415 -0.4134 -1.0935
 9399TIP3    H249613   1.998   2.145   1.442  0.6748  1.0079  2.2221
 9400TIP3   OH249614   1.140   2.799  16.518  0.1254  0.0610 -0.0243
 9400TIP3    H149615   1.214   2.744  16.492  0.1683  0.8982 -1.8473
 9400TIP3    H249616   1.170   2.888  16.500 -0.8586  0.5031  0.4748
 9401TIP3   OH249617   0.408   3.247  11.357  0.6554 -0.2538  0.0608
 9401TIP3    H149618   0.453   3.330  11.370  0.7035 -0.2507 -0.1243
 9401TIP3    H249619   0.462   3.200  11.293  0.9559 -0.6778  0.6122
 9402TIP3   OH249620   1.597   6.499  16.910 -0.4912  0.4468 -0.4437
 9402TIP3    H149621   1.551   6.580  16.887 -1.8220 -0.1334  0.1267
 9402TIP3    H249622   1.624   6.462  16.826 -1.0095  0.8303 -0.7855
 9403TIP3   OH249623   2.574   4.759   1.775  0.0141 -0.1848  0.1693
 9403TIP3    H149624   2.493   4.731   1.733 -0.1275  0.6603 -0.1344
 9403TIP3    H249625   2.547   4.807   1.852  0.2757 -1.7159  1.2712
 9404TIP3   OH249626   4.526   2.960  12.574  0.1591 -0.0257 -1.0676
 9404TIP3    H149627   4.587   2.969  12.501  1.0494  1.9335 -0.1678
 9404TIP3    H249628   4.450   3.013  12.547  0.6774  1.0765 -0.4282
 9405TIP3   OH249629   0.830   4.927  13.050  0.3990 -0.2549 -0.4788
 9405TIP3    H149630   0.753   4.915  13.106 -0.4125  0.7864 -1.3307
 9405TIP3    H249631   0.828   4.853  12.990 -0.8833  0.6061 -1.5426
 9406TIP3   OH249632   5.518   5.570  11.364 -0.0379 -0.0576  0.1824
 9406TIP3    H149633   5.553   5.602  11.281 -1.4082 -3.4907 -1.9285
 9406TIP3    H249634   5.424   5.560  11.348 -0.2888 -1.0913  2.0377
 9407TIP3   OH249635   4.383   6.348   5.059  0.2407 -0.0013  0.9347
 9407TIP3    H149636   4.289   6.353   5.042  0.4905 -0.8860 -0.9797
 9407TIP3    H249637   4.402   6.254   5.059  1.0927  0.1622  1.5697
 9408TIP3   OH249638   3.895   4.603   0.314 -0.0633  0.1888  0.2028
 9408TIP3    H149639   3.897   4.698   0.309 -0.5941  0.2939  1.4905
 9408TIP3    H249640   3.812   4.583   0.358 -0.1651 -0.8867 -0.4447
 9409TIP3   OH249641   1.788   2.964   3.601  0.3977  0.4915  0.7104
 9409TIP3    H149642   1.709   2.933   3.556  0.2358  2.0246 -0.1211
 9409TIP3    H249643   1.814   2.890   3.657 -1.3645 -0.2086  0.6814
 9410TIP3   OH249644   5.263   1.919  10.989  0.1461  0.1311 -0.1277
 9410TIP3    H149645   5.277   1.931  10.895 -0.7839  0.3966 -0.2405
 9410TIP3    H249646   5.351   1.915  11.026  0.5654  2.3467 -0.7361
 9411TIP3   OH249647   2.021   4.958  10.960 -0.1746 -0.6146  0.3320
 9411TIP3    H149648   2.000   4.867  10.938  2.1073 -1.2506  0.5545
 9411TIP3    H249649   2.088   4.952  11.028 -0.7930  1.2671  1.1874
 9412TIP3   OH249650   1.127   3.220   3.398 -0.0503 -0.2148  0.3557
 9412TIP3    H149651   1.135   3.306   3.358  2.1939  1.0340  3.1269
 9412TIP3    H249652   1.141   3.158   3.326  2.8302  1.8202 -1.0327
 9413TIP3   OH249653   6.136   3.132   1.095 -0.3180  0.0856  0.1308
 9413TIP3    H149654   6.158   3.064   1.032 -1.3382  0.2355 -0.4204
 9413TIP3    H249655   6.095   3.201   1.042 -0.6963  0.4520  0.8851
 9414TIP3   OH249656   4.037   3.745   5.834 -0.1877  0.2049 -0.7325
 9414TIP3    H149657   4.095   3.670   5.840  0.5501  0.8191  0.0779
 9414TIP3    H249658   3.985   3.729   5.755 -0.7989 -1.6533 -0.0125
 9415TIP3   OH249659   2.315   2.818   3.477 -0.1284  0.7464  0.4016
 9415TIP3    H149660   2.250   2.827   3.407  1.6125 -0.2929 -1.4348
 9415TIP3    H249661   2.351   2.906   3.489 -0.7746  1.0218  0.3564
 9416TIP3   OH249662   2.410   0.919   4.657 -0.5763  0.0325  1.0940
 9416TIP3    H149663   2.343   0.983   4.631  0.1098  1.0187  1.6697
 9416TIP3    H249664   2.458   0.900   4.576 -1.0604 -0.0836  0.8338
 9417TIP3   OH249665   0.423   6.191  12.845 -0.0286  0.8131  0.3565
 9417TIP3    H149666   0.479   6.126  12.886 -0.2577  0.0579 -0.5056
 9417TIP3    H249667   0.355   6.208  12.910 -0.7119 -0.7874  0.1052
 9418TIP3   OH249668   1.138   5.194   4.955  0.2239  0.1603  0.2938
 9418TIP3    H149669   1.066   5.209   4.894 -0.1403  0.3802  0.7717
 9418TIP3    H249670   1.214   5.232   4.912 -0.3502  1.8684  0.7255
 9419TIP3   OH249671   3.198   6.116   4.828  0.2003 -0.4252  0.4619
 9419TIP3    H149672   3.204   6.099   4.922 -1.2922 -1.7140  0.3575
 9419TIP3    H249673   3.231   6.205   4.818  1.7274 -0.7523  2.0034
 9420TIP3   OH249674   5.831   3.791  12.284 -0.1766 -0.3045 -0.1524
 9420TIP3    H149675   5.767   3.785  12.355 -0.3964  1.0717 -0.2174
 9420TIP3    H249676   5.877   3.707  12.287 -1.1740 -0.8482  0.6604
 9421TIP3   OH249677   0.760   6.517   2.844  0.5013  0.0278  0.1680
 9421TIP3    H149678   0.766   6.598   2.893  1.0410  1.2950 -1.8590
 9421TIP3    H249679   0.804   6.536   2.761 -1.4932 -1.5547 -1.3508
 9422TIP3   OH249680   6.553   4.525  14.430 -0.4862  0.2095 -0.1453
 9422TIP3    H149681   6.589   4.599  14.380 -2.1631  0.6150 -0.8577
 9422TIP3    H249682   6.613   4.513  14.503  2.3591 -0.6872 -2.4303
 9423TIP3   OH249683   1.909   1.276  12.177 -0.1632 -0.5497  0.0241
 9423TIP3    H149684   1.907   1.271  12.082  1.4047 -1.5978  0.0155
 9423TIP3    H249685   1.880   1.365  12.198 -0.8013 -0.4039 -1.3925
 9424TIP3   OH249686   1.382   0.524   2.516  0.2282  0.0019 -0.0148
 9424TIP3    H149687   1.444   0.596   2.502 -0.2986  0.6330  0.8170
 9424TIP3    H249688   1.371   0.485   2.430 -0.3646  1.6525 -0.7331
 9425TIP3   OH249689   5.216   2.209  15.323 -0.5509  0.4219  0.5247
 9425TIP3    H149690   5.276   2.144  15.288 -0.9580 -0.4809  1.4590
 9425TIP3    H249691   5.180   2.169  15.402 -1.9335  1.1725  0.3170
 9426TIP3   OH249692   3.187   0.359  12.926  0.2713 -0.0883 -0.8297
 9426TIP3    H149693   3.110   0.403  12.890  0.5929  0.7461 -0.5249
 9426TIP3    H249694   3.262   0.402  12.883  0.6450  0.6179  0.4485
 9427TIP3   OH249695   2.443   2.717  15.858  0.0887  0.2365  0.3454
 9427TIP3    H149696   2.418   2.632  15.823 -0.3489  0.7044 -0.4981
 9427TIP3    H249697   2.461   2.700  15.951 -0.0743 -0.7531  0.2047
 9428TIP3   OH249698   5.022   0.921  14.215  0.3330  0.5857 -0.1655
 9428TIP3    H149699   4.981   1.001  14.181 -0.2279  0.2776 -0.2402
 9428TIP3    H249700   4.986   0.911  14.303  0.1005  0.2134 -0.2979
 9429TIP3   OH249701   5.383   2.721   2.687  0.1790  0.0784 -0.4514
 9429TIP3    H149702   5.376   2.797   2.630  1.7862 -1.1644 -2.4656
 9429TIP3    H249703   5.476   2.698   2.685 -0.4896 -3.1253 -1.6947
 9430TIP3   OH249704   2.484   3.985  15.098  0.1739 -0.6944 -0.7494
 9430TIP3    H149705   2.393   4.015  15.091  0.3442 -0.3751 -1.6838
 9430TIP3    H249706   2.478   3.899  15.141 -0.1634  1.5346  4.3251
 9431TIP3   OH249707   4.658   6.465  14.526  0.4733 -0.3354  0.6908
 9431TIP3    H149708   4.639   6.536  14.586  0.0107 -0.1846  0.3672
 9431TIP3    H249709   4.591   6.471  14.458  1.2495 -0.2278 -0.0829
 9432TIP3   OH249710   0.157   6.682  11.434 -0.0027  0.1115  0.5172
 9432TIP3    H149711   0.120   6.764  11.402  0.2109 -0.3898 -1.0605
 9432TIP3    H249712   0.159   6.624  11.358  0.6412 -1.0901  1.4063
 9433TIP3   OH249713   2.387   0.204  14.209  0.1269 -0.2967 -0.0049
 9433TIP3    H149714   2.462   0.237  14.159  0.2937 -1.0328 -0.2446
 9433TIP3    H249715   2.330   0.281  14.219  0.3579 -0.0022 -0.8287
 9434TIP3   OH249716   2.839   6.690   0.300  0.2138 -0.2515  0.4296
 9434TIP3    H149717   2.827   6.761   0.236 -0.4866 -2.7655 -2.4643
 9434TIP3    H249718   2.912   6.639   0.265  0.2248 -1.4024  2.0312
 9435TIP3   OH249719   3.943   5.180  16.908 -0.3274 -0.6656 -0.1505
 9435TIP3    H149720   3.956   5.274  16.922 -0.3396 -0.3865 -1.7929
 9435TIP3    H249721   3.990   5.138  16.980 -1.6337  0.6074  1.5149
 9436TIP3   OH249722   2.236   2.295   3.553 -0.5428  0.1019  0.4741
 9436TIP3    H149723   2.312   2.330   3.599  1.0769 -2.0690 -0.3540
 9436TIP3    H249724   2.257   2.305   3.460 -0.8801 -1.2225  0.2297
 9437TIP3   OH249725   4.543   2.085  15.231 -0.2908 -0.1622  0.2338
 9437TIP3    H149726   4.522   1.999  15.195 -0.9503 -0.2801  0.8788
 9437TIP3    H249727   4.520   2.146  15.161 -1.5999 -0.3845  0.4398
 9438TIP3   OH249728   2.795   0.515   1.493 -0.0936  0.3845 -0.7222
 9438TIP3    H149729   2.876   0.467   1.508  0.5559  1.6665  0.0355
 9438TIP3    H249730   2.785   0.515   1.398  1.0540  0.6080 -0.8630
 9439TIP3   OH249731   1.769   2.219  14.248  0.2491 -0.3907 -0.2976
 9439TIP3    H149732   1.725   2.136  14.267 -1.0191  0.1869 -0.5766
 9439TIP3    H249733   1.701   2.273  14.206  1.1958  0.5973 -0.6095
 9440TIP3   OH249734   3.023   6.606   0.929 -0.4784  0.3410 -0.5206
 9440TIP3    H149735   3.042   6.683   0.982 -2.1951  0.4773 -0.0232
 9440TIP3    H249736   3.045   6.633   0.839  0.9441  0.6482 -0.1037
 9441TIP3   OH249737   3.110   5.737  11.284 -0.1955  0.4285  0.1092
 9441TIP3    H149738   3.081   5.652  11.317 -0.0170  1.1470  2.2820
 9441TIP3    H249739   3.124   5.790  11.363  0.4875  2.2238 -1.1477
 9442TIP3   OH249740   4.553   5.064  15.427 -0.4001 -0.1446  0.1969
 9442TIP3    H149741   4.579   4.976  15.402  1.3286  0.3899 -0.0753
 9442TIP3    H249742   4.632   5.102  15.465 -1.2296  1.1453  0.7066
 9443TIP3   OH249743   0.089   5.819  11.836 -0.1569 -0.0496 -0.2233
 9443TIP3    H149744   0.015   5.789  11.891 -0.2999  0.2167 -0.2702
 9443TIP3    H249745   0.122   5.896  11.882 -0.2656  0.1633 -0.5058
 9444TIP3   OH249746   1.180   5.589  12.329 -0.4322  0.1123  0.1008
 9444TIP3    H149747   1.176   5.583  12.234  3.2930  1.6776 -0.3347
 9444TIP3    H249748   1.270   5.565  12.351 -0.9231  0.6052  3.1512
 9445TIP3   OH249749   2.300   2.830  14.197 -0.1359  0.0644 -0.1099
 9445TIP3    H149750   2.292   2.735  14.184 -2.3924  0.2816 -0.6301
 9445TIP3    H249751   2.387   2.851  14.164 -0.2943 -1.5639 -1.7512
 9446TIP3   OH249752   1.963   3.739   3.235  0.2392 -0.5613  0.2605
 9446TIP3    H149753   1.920   3.757   3.151  1.5032  0.3295 -0.2299
 9446TIP3    H249754   2.055   3.761   3.219  0.4994 -0.3985  1.8772
 9447TIP3   OH249755   5.755   0.971  13.036 -0.0877 -0.7532  0.6895
 9447TIP3    H149756   5.734   1.044  12.978  0.3524 -0.6270  0.6789
 9447TIP3    H249757   5.712   0.895  12.997 -0.3776 -0.5351  0.5887
 9448TIP3   OH249758   4.249   6.696   3.432 -0.0129  0.0752 -0.1526
 9448TIP3    H149759   4.307   6.735   3.497  1.1877 -1.3887 -0.2952
 9448TIP3    H249760   4.287   6.721   3.348  1.3263 -2.0317 -0.2573
 9449TIP3   OH249761   2.839   0.750   3.645 -0.1998  0.0381  0.2589
 9449TIP3    H149762   2.916   0.698   3.622 -0.0432 -0.1178  1.0965
 9449TIP3    H249763   2.770   0.685   3.661 -0.1190  0.1001  0.8876
 9450TIP3   OH249764   3.729   5.721  12.832 -0.4670  0.1049  0.3546
 9450TIP3    H149765   3.657   5.657  12.839  0.2292 -0.6771  0.5620
 9450TIP3    H249766   3.806   5.674  12.865  0.2917  0.6872 -0.5398
 9451TIP3   OH249767   1.870   3.142   0.117  0.2916  0.5455 -0.0604
 9451TIP3    H149768   1.927   3.180   0.184 -0.1131  0.5370  0.2913
 9451TIP3    H249769   1.929   3.089   0.063  0.6303  0.6072  0.2455
 9452TIP3   OH249770   4.795   3.985  13.602 -0.5178  0.2818  0.1292
 9452TIP3    H149771   4.846   4.027  13.532  0.4168  0.7946  1.0824
 9452TIP3    H249772   4.860   3.960  13.667 -1.1332 -2.0022 -0.0433
 9453TIP3   OH249773   1.595   5.181   4.734  0.2159 -0.3264  0.0191
 9453TIP3    H149774   1.646   5.101   4.743  1.0751  0.2374  0.3421
 9453TIP3    H249775   1.627   5.237   4.805  0.1237  0.5607 -0.6317
 9454TIP3   OH249776   0.442   0.048   4.342 -0.2692 -0.1338  0.4864
 9454TIP3    H149777   0.363   0.102   4.333 -1.1965 -1.5343 -0.0902
 9454TIP3    H249778   0.417  -0.038   4.308  2.0024 -0.1772 -1.3429
 9455TIP3   OH249779   2.514   2.065   0.963  0.5080  0.4129 -0.2565
 9455TIP3    H149780   2.468   2.134   1.010  0.8492 -0.1971  1.0002
 9455TIP3    H249781   2.445   2.001   0.941  0.5162  0.1981  0.3377
 9456TIP3   OH249782   5.706   3.823   3.730  0.1746 -0.4474  0.2378
 9456TIP3    H149783   5.791   3.809   3.771  0.4963  1.6801  0.3997
 9456TIP3    H249784   5.716   3.785   3.642  1.0808 -0.7404  0.4542
 9457TIP3   OH249785   1.105   4.307  15.590 -0.0539 -0.4993 -0.3447
 9457TIP3    H149786   1.072   4.391  15.619  1.7614 -0.3208  1.4260
 9457TIP3    H249787   1.124   4.319  15.497  0.1577  1.0583 -0.1238
 9458TIP3   OH249788   4.654   4.283  15.191  0.5306 -0.3218  0.1580
 9458TIP3    H149789   4.702   4.358  15.154 -0.0795  0.6578  1.2799
 9458TIP3    H249790   4.715   4.245  15.254  0.8573 -0.8258 -0.4437
 9459TIP3   OH249791   1.484   6.173  11.477 -0.1502  0.2987 -0.1980
 9459TIP3    H149792   1.563   6.176  11.424 -0.9002  0.6268 -1.3360
 9459TIP3    H249793   1.457   6.081  11.474 -0.2163  0.3251 -0.4310
 9460TIP3   OH249794   1.918   4.159   0.318 -0.2755  0.3409 -0.1516
 9460TIP3    H149795   1.935   4.148   0.412 -1.6273 -1.1399 -0.0274
 9460TIP3    H249796   1.846   4.222   0.314 -2.0648 -1.5717  0.0411
 9461TIP3   OH249797   1.802   5.715  14.014 -0.4253  0.1263 -0.0664
 9461TIP3    H149798   1.712   5.696  13.989 -0.5164 -0.1848  0.5010
 9461TIP3    H249799   1.855   5.673  13.945 -0.7230  1.5710 -1.2409
 9462TIP3   OH249800   0.736   1.099   4.533  0.0064 -0.2562  0.1410
 9462TIP3    H149801   0.689   1.018   4.555 -0.2041  0.7832  4.5376
 9462TIP3    H249802   0.683   1.139   4.464 -1.9649 -2.1497  0.4249
 9463TIP3   OH249803   4.445   0.734  13.157 -0.3247  0.0004  0.3340
 9463TIP3    H149804   4.455   0.667  13.225  0.1366 -1.0207 -0.7021
 9463TIP3    H249805   4.358   0.717  13.119 -0.4748  0.4034  0.4943
 9464TIP3   OH249806   0.204   0.888   0.763  0.5771 -0.5031 -0.2627
 9464TIP3    H149807   0.299   0.881   0.775  0.2534 -0.7126  3.1195
 9464TIP3    H249808   0.167   0.833   0.832 -2.0175 -0.3216 -1.4154
 9465TIP3   OH249809   3.392   6.760  15.828  0.1560  0.1562  1.1039
 9465TIP3    H149810   3.396   6.806  15.745  1.4743  0.6054  1.3930
 9465TIP3    H249811   3.445   6.681  15.815 -0.8040 -0.5099  1.0962
 9466TIP3   OH249812   5.661   5.956   1.996 -0.3543  0.7526 -0.5616
 9466TIP3    H149813   5.681   6.044   2.029 -0.6473  0.9956 -1.0258
 9466TIP3    H249814   5.735   5.902   2.026  1.2651  1.7119 -2.6104
 9467TIP3   OH249815   2.770   3.881  13.466 -0.7043  0.4647 -0.3455
 9467TIP3    H149816   2.751   3.861  13.375 -0.1262 -3.4456  0.2328
 9467TIP3    H249817   2.700   3.837  13.516  0.4547  0.2559  1.1739
 9468TIP3   OH249818   5.155   5.724   6.027 -0.3552  0.0290 -0.2678
 9468TIP3    H149819   5.239   5.756   6.058 -0.5650  0.7324 -0.4051
 9468TIP3    H249820   5.135   5.650   6.084 -0.1443  0.5221  0.4690
 9469TIP3   OH249821   1.315   1.236   0.949 -0.0311 -0.1919  0.7647
 9469TIP3    H149822   1.227   1.200   0.948 -0.2910  0.3433  2.3000
 9469TIP3    H249823   1.346   1.225   0.859 -2.6126  1.9296 -0.5337
 9470TIP3   OH249824   5.778   3.014  11.583  0.6699  0.3357  0.6091
 9470TIP3    H149825   5.750   3.045  11.669  1.1655 -0.6450  1.1422
 9470TIP3    H249826   5.708   2.957  11.553  0.8994 -0.0279  0.7621
 9471TIP3   OH249827   5.760   1.696  14.290 -0.3526 -0.3274  0.2409
 9471TIP3    H149828   5.665   1.710  14.282 -0.5860 -2.5953 -1.7936
 9471TIP3    H249829   5.778   1.620  14.236  2.4759 -0.7696  1.6272
 9472TIP3   OH249830   6.303   0.431   1.325  0.0899  0.0625  0.1228
 9472TIP3    H149831   6.249   0.508   1.341  0.2487  0.5797 -1.6598
 9472TIP3    H249832   6.393   0.460   1.341 -0.0063 -0.5133  2.0353
 9473TIP3   OH249833   5.710   4.839  16.917 -0.0457  0.7006 -0.1158
 9473TIP3    H149834   5.622   4.838  16.879  0.7588  0.4977 -2.0874
 9473TIP3    H249835   5.726   4.930  16.940 -0.1746  1.0205 -1.2629
 9474TIP3   OH249836   2.396   1.036  14.099  0.4312  0.0244 -0.3517
 9474TIP3    H149837   2.403   1.114  14.153  1.0555  0.0498 -0.4671
 9474TIP3    H249838   2.455   0.973  14.140 -0.6742 -0.6711  0.2184
 9475TIP3   OH249839   1.611   3.929   4.282  0.9310 -0.5429 -0.0395
 9475TIP3    H149840   1.582   3.863   4.219  3.0768 -0.8249 -0.8281
 9475TIP3    H249841   1.581   3.897   4.367 -2.5488  0.1408 -0.8801
 9476TIP3   OH249842   6.225   5.120   0.053 -0.3227  0.1628  0.4855
 9476TIP3    H149843   6.162   5.049   0.042 -0.2872  0.0040  1.2942
 9476TIP3    H249844   6.296   5.083   0.105 -0.2928  0.7836  0.9012
 9477TIP3   OH249845   2.845   1.740  15.908  0.0270  0.0046 -0.6710
 9477TIP3    H149846   2.892   1.727  15.826 -0.8359 -1.1024 -1.0190
 9477TIP3    H249847   2.753   1.744  15.883 -0.3356 -1.3442  0.3136
 9478TIP3   OH249848   0.819   4.711   3.875 -0.1708 -0.3824  0.1284
 9478TIP3    H149849   0.738   4.762   3.876  0.6793  1.0330  0.5104
 9478TIP3    H249850   0.862   4.734   3.958  1.3116  0.0863 -0.7315
 9479TIP3   OH249851   5.657   3.920   1.530  0.2437 -0.2120 -0.5265
 9479TIP3    H149852   5.653   3.984   1.459 -0.8565 -0.9522 -1.1680
 9479TIP3    H249853   5.746   3.885   1.526  0.6120  0.7098 -0.6589
 9480TIP3   OH249854   4.251   4.112  11.653  0.2480 -0.5183  0.4262
 9480TIP3    H149855   4.277   4.163  11.729 -0.4011  2.4875 -1.2003
 9480TIP3    H249856   4.258   4.173  11.579 -0.1405 -2.9621 -1.7878
 9481TIP3   OH249857   4.053   4.013   5.038 -0.7771  0.5592 -0.5517
 9481TIP3    H149858   4.144   3.994   5.015 -0.5042  0.1692  0.7313
 9481TIP3    H249859   4.029   3.945   5.101 -1.5183  1.4081  0.1293
 9482TIP3   OH249860   5.770   5.723  15.580 -0.1286 -0.5735  0.4697
 9482TIP3    H149861   5.756   5.628  15.580 -2.1338 -0.3404  2.1129
 9482TIP3    H249862   5.721   5.754  15.504  0.9942 -0.8603 -0.4061
 9483TIP3   OH249863   5.215   2.313   4.718  0.3877 -0.3358 -0.1105
 9483TIP3    H149864   5.302   2.282   4.695  0.5902 -0.4210  0.7684
 9483TIP3    H249865   5.193   2.267   4.799 -0.7960 -0.9117 -0.7336
 9484TIP3   OH249866   4.034   2.993   0.354 -0.2499  0.0116  0.1569
 9484TIP3    H149867   3.993   3.028   0.433 -0.6342  0.9749 -0.4556
 9484TIP3    H249868   3.980   2.917   0.331 -0.6096  0.2069  0.3599
 9485TIP3   OH249869   0.561   5.202  12.753  0.0063 -0.3638  0.1307
 9485TIP3    H149870   0.571   5.144  12.678  1.1237 -0.1517  0.0990
 9485TIP3    H249871   0.645   5.196  12.799 -0.6931 -0.5819  1.4375
 9486TIP3   OH249872   3.480   2.019   2.476 -0.2056 -0.3401 -0.0674
 9486TIP3    H149873   3.438   1.941   2.440 -0.1551 -0.4452  0.0972
 9486TIP3    H249874   3.570   1.990   2.495 -0.0489 -0.1094 -0.4503
 9487TIP3   OH249875   6.105   6.358   4.864  0.0671 -0.1262  0.0955
 9487TIP3    H149876   6.164   6.285   4.851  1.0540  0.5046  0.8625
 9487TIP3    H249877   6.089   6.359   4.959  1.5639  1.7385  0.3813
 9488TIP3   OH249878   6.514   1.860  11.392 -0.0553  0.4749 -0.2771
 9488TIP3    H149879   6.516   1.804  11.314  0.3071  0.6132 -0.3704
 9488TIP3    H249880   6.557   1.941  11.365  1.5496 -0.0541  0.4964
 9489TIP3   OH249881   0.885   0.819   9.755 -0.4943  0.7806  0.3310
 9489TIP3    H149882   0.813   0.867   9.795  0.6187  0.7749  2.5232
 9489TIP3    H249883   0.962   0.846   9.805  0.7523 -0.5053 -0.8081
 9490TIP3   OH249884   6.098   4.343  12.792  0.4507 -0.4173  0.1884
 9490TIP3    H149885   6.016   4.323  12.747  0.0809 -2.0161  1.4818
 9490TIP3    H249886   6.163   4.350  12.722 -0.3907 -1.3417 -0.7093
 9491TIP3   OH249887   5.337   3.767  13.287 -0.1345  0.2470 -0.1934
 9491TIP3    H149888   5.418   3.756  13.337 -0.4706 -0.7275  0.1604
 9491TIP3    H249889   5.278   3.700  13.322 -1.7610  2.1499  0.8826
 9492TIP3   OH249890   3.110   6.305  14.730  0.1269  0.4355  0.7900
 9492TIP3    H149891   3.099   6.263  14.645  0.4176  1.1034  0.4097
 9492TIP3    H249892   3.060   6.251  14.791  0.3858 -0.3713  0.2980
 9493TIP3   OH249893   4.730   2.885   1.402 -0.1789  0.3188 -0.1527
 9493TIP3    H149894   4.815   2.925   1.422 -0.1208  1.0852 -1.7882
 9493TIP3    H249895   4.682   2.889   1.485  0.8482  1.1959  0.4336
 9494TIP3   OH249896   5.114   6.565  14.654 -0.1839  0.0642 -0.3073
 9494TIP3    H149897   5.060   6.623  14.708  0.4561  1.0055 -0.6559
 9494TIP3    H249898   5.203   6.577  14.686 -0.0320 -0.7296 -0.3950
 9495TIP3   OH249899   0.656   0.390   2.860  0.1189  0.3568  0.2352
 9495TIP3    H149900   0.703   0.430   2.787 -0.4045 -0.3427 -0.5041
 9495TIP3    H249901   0.564   0.390   2.832  0.0454 -0.8731  0.4351
 9496TIP3   OH249902   1.848   1.687   5.307 -0.9858  0.3792  0.8068
 9496TIP3    H149903   1.861   1.655   5.396 -0.3395  2.1652  1.4034
 9496TIP3    H249904   1.934   1.720   5.281 -1.0335 -0.5872 -0.7051
 9497TIP3   OH249905   5.273   4.866   1.638  0.6383  0.1847 -0.2098
 9497TIP3    H149906   5.219   4.900   1.566 -0.3146  0.7809  0.7681
 9497TIP3    H249907   5.347   4.927   1.644 -0.0546  0.9921  0.2703
 9498TIP3   OH249908   2.945   4.618   3.656 -0.0597 -0.1665 -0.2913
 9498TIP3    H149909   2.970   4.711   3.657  2.3723 -0.7220 -1.4901
 9498TIP3    H249910   3.023   4.572   3.686 -1.6406 -1.8232  1.5092
 9499TIP3   OH249911   5.367   3.166  16.829  0.4555  0.4487  0.6602
 9499TIP3    H149912   5.429   3.220  16.879 -0.6069  2.9962 -0.6015
 9499TIP3    H249913   5.325   3.227  16.768 -1.9307 -1.5389  0.1381
 9500TIP3   OH249914   3.842   3.866  13.087 -0.5244  0.3001 -0.2142
 9500TIP3    H149915   3.794   3.921  13.148  0.6985  1.0793  0.0727
 9500TIP3    H249916   3.825   3.776  13.117 -2.0761  0.5110 -0.3551
 9501TIP3   OH249917   4.927   6.305  15.492 -0.0519 -0.1960  0.1526
 9501TIP3    H149918   4.997   6.344  15.440  1.4515 -0.6914  1.7157
 9501TIP3    H249919   4.915   6.366  15.565  0.2376 -1.1289  1.0042
 9502TIP3   OH249920   4.697   4.225   3.483 -0.1821 -0.2741  0.1557
 9502TIP3    H149921   4.732   4.289   3.545 -2.1710  0.9755  0.0931
 9502TIP3    H249922   4.711   4.265   3.397 -0.1876 -0.5659  0.0172
 9503TIP3   OH249923   1.962   5.115   5.260 -0.0678  0.0244 -0.2884
 9503TIP3    H149924   2.034   5.162   5.302  0.0261 -1.6802  1.6083
 9503TIP3    H249925   1.885   5.171   5.274  0.2461  0.1842  0.8613
 9504TIP3   OH249926   5.160   4.366  16.398  0.1914 -0.8161  0.0586
 9504TIP3    H149927   5.107   4.301  16.444  0.5807 -0.7419  0.6190
 9504TIP3    H249928   5.230   4.388  16.459 -0.2913  0.6188  0.1396
 9505TIP3   OH249929   4.328   2.424  13.907 -0.5933  0.4024  0.1273
 9505TIP3    H149930   4.244   2.466  13.924 -0.8370  0.2361 -0.6214
 9505TIP3    H249931   4.325   2.401  13.814  0.0848 -0.0431  0.2070
 9506TIP3   OH249932   4.254   6.592   5.660 -0.1920 -0.3002  0.1773
 9506TIP3    H149933   4.270   6.667   5.603 -0.3552  0.9984  1.7565
 9506TIP3    H249934   4.242   6.518   5.600 -1.0892  1.1210 -1.4932
 9507TIP3   OH249935   2.819   1.137   2.543 -0.1620  0.3742  0.0178
 9507TIP3    H149936   2.876   1.214   2.540  0.0925  0.2310  0.9860
 9507TIP3    H249937   2.730   1.174   2.547 -0.0295  0.6269  0.7328
 9508TIP3   OH249938   0.198   0.088   0.087 -0.3215  0.1249  0.1811
 9508TIP3    H149939   0.158   0.158   0.139  0.4501  3.3362 -3.1591
 9508TIP3    H249940   0.127   0.056   0.032 -0.6333 -1.7948  1.5881
 9509TIP3   OH249941   6.698   3.767   3.730 -0.3437  0.0493 -0.7839
 9509TIP3    H149942   6.683   3.733   3.818 -1.1048 -0.2091 -1.0033
 9509TIP3    H249943   6.610   3.777   3.693 -0.0823  1.1456 -1.1462
 9510TIP3   OH249944   5.906   6.046  10.925  0.3531 -0.2102 -0.5191
 9510TIP3    H149945   5.924   6.088  11.009  2.6650 -1.7424 -0.1784
 9510TIP3    H249946   5.907   6.118  10.862  0.9085  0.6610  0.4415
 9511TIP3   OH249947   2.471   2.347  10.426  0.1987  0.0661  0.4820
 9511TIP3    H149948   2.551   2.393  10.404 -0.7083  1.4927  0.0544
 9511TIP3    H249949   2.496   2.254  10.426  1.1599  0.1790 -2.8713
 9512TIP3   OH249950   3.112   1.247   4.909 -0.4097  0.3455 -0.1941
 9512TIP3    H149951   3.107   1.336   4.943  1.9353  0.1896  0.7186
 9512TIP3    H249952   3.052   1.196   4.964  0.6237  0.7848  1.3960
 9513TIP3   OH249953   1.056   5.511   5.257 -0.3693  0.1342 -0.2394
 9513TIP3    H149954   0.961   5.504   5.244 -0.1302  0.2250 -2.2684
 9513TIP3    H249955   1.066   5.573   5.330 -1.8647 -0.3770  0.4373
 9514TIP3   OH249956   0.009   6.607  16.348 -1.0198 -0.5196 -0.7942
 9514TIP3    H149957   0.048   6.622  16.262  0.0645 -1.3342 -0.4693
 9514TIP3    H249958  -0.086   6.611  16.332 -0.8455  1.3385 -1.6286
 9515TIP3   OH249959   5.809   3.396   4.108 -0.0942  0.1594 -0.5391
 9515TIP3    H149960   5.827   3.446   4.027 -0.8388  0.6689 -0.3993
 9515TIP3    H249961   5.717   3.372   4.101 -0.9429  2.4380  1.3113
 9516TIP3   OH249962   3.192   4.521   3.990  0.0574 -0.1354  0.5376
 9516TIP3    H149963   3.267   4.571   3.956 -0.0280 -1.2589 -1.4911
 9516TIP3    H249964   3.197   4.437   3.945 -1.0096 -1.1922  2.2778
 9517TIP3   OH249965   5.323   3.624  14.315  0.1205 -0.2707 -0.4526
 9517TIP3    H149966   5.262   3.620  14.389 -0.1738 -0.2160 -0.6894
 9517TIP3    H249967   5.343   3.717  14.305 -0.6033 -0.1637 -1.0495
 9518TIP3   OH249968   2.578   6.361   2.313  0.4501 -0.2102  0.1572
 9518TIP3    H149969   2.526   6.293   2.357 -1.0675  0.7595 -0.0570
 9518TIP3    H249970   2.598   6.424   2.383  0.4988 -0.0821  0.0271
 9519TIP3   OH249971   1.071   4.205  16.253 -0.1340  0.2740 -0.6191
 9519TIP3    H149972   1.073   4.283  16.308 -1.2371  0.7514 -1.2104
 9519TIP3    H249973   1.153   4.207  16.204  1.5373 -0.9104  1.9494
 9520TIP3   OH249974   2.278   3.086  14.255 -0.0013  0.0649  0.5167
 9520TIP3    H149975   2.253   3.134  14.176  0.4866  0.7019  0.7349
 9520TIP3    H249976   2.289   2.996  14.226 -1.5145 -0.0574  0.2083
 9521TIP3   OH249977   5.517   3.514   6.092 -0.8651  0.0179 -0.2200
 9521TIP3    H149978   5.531   3.515   5.998 -0.4882 -0.3727 -0.1754
 9521TIP3    H249979   5.435   3.560   6.106 -0.0187  1.7257 -0.5838
 9522TIP3   OH249980   5.983   6.590   1.567  0.0540 -0.0954 -0.2975
 9522TIP3    H149981   6.036   6.591   1.647 -1.8993  0.2691  1.0739
 9522TIP3    H249982   5.950   6.500   1.561 -0.9917  0.2316  0.1921
 9523TIP3   OH249983   3.021   3.501  13.373  0.1962  0.6249  0.1491
 9523TIP3    H149984   3.044   3.593  13.380 -0.5186  0.8272  0.0044
 9523TIP3    H249985   2.956   3.487  13.442 -0.9083  0.6504 -0.8428
 9524TIP3   OH249986   1.703   3.443  13.872 -1.0130 -0.4819 -0.3070
 9524TIP3    H149987   1.704   3.387  13.950 -2.2182 -0.6561 -0.3924
 9524TIP3    H249988   1.654   3.392  13.807  1.3426 -1.0516 -1.7710
 9525TIP3   OH249989   1.009   5.803   0.943 -0.7010 -0.0500  0.2109
 9525TIP3    H149990   0.977   5.783   0.855 -0.1608 -0.9051  0.2017
 9525TIP3    H249991   1.101   5.825   0.931 -1.0462  1.5861  0.3473
 9526TIP3   OH249992   2.940   6.703  13.690 -0.0188 -0.0321  0.5084
 9526TIP3    H149993   2.944   6.753  13.771  0.3563 -1.3012  1.2939
 9526TIP3    H249994   3.024   6.721  13.647  0.7132 -1.0682  1.4628
 9527TIP3   OH249995   6.826   6.086  12.155 -0.0285 -0.0687 -0.3292
 9527TIP3    H149996   6.879   6.119  12.227  0.0949  1.7226 -1.1859
 9527TIP3    H249997   6.883   6.092  12.078 -0.3302 -1.4560 -0.6990
 9528TIP3   OH249998   2.055   6.618   5.729 -0.0592 -0.4478  0.7758
 9528TIP3    H149999   2.077   6.633   5.821 -0.4072  0.0613  0.7793
 9528TIP3    H250000   1.997   6.542   5.729  1.3658 -1.5780  0.8037
 9529TIP3   OH250001   0.211   3.401  12.397  0.1703  0.3943  0.0236
 9529TIP3    H150002   0.119   3.425  12.403 -0.5135 -1.1877 -2.6341
 9529TIP3    H250003   0.254   3.479  12.361 -0.6711  0.2239 -1.4053
 9530TIP3   OH250004   5.805   4.688   2.458  0.1807 -0.2908 -0.4183
 9530TIP3    H150005   5.845   4.605   2.433 -0.0734 -0.7484  0.6240
 9530TIP3    H250006   5.712   4.678   2.438  0.3039  0.1193 -1.2169
 9531TIP3   OH250007   6.801   4.969   4.579  0.0573  0.6856 -0.1661
 9531TIP3    H150008   6.844   4.891   4.613  1.0065  2.0391  1.9073
 9531TIP3    H250009   6.735   4.992   4.645  1.1451  2.7199  0.2882
 9532TIP3   OH250010   6.309   6.243  10.797 -0.3322 -0.3678  0.1534
 9532TIP3    H150011   6.239   6.213  10.739 -0.1659  0.0701 -0.2754
 9532TIP3    H250012   6.288   6.335  10.814 -0.4248 -0.5139  0.8556
 9533TIP3   OH250013   2.454   4.533  17.021 -0.1905 -0.1833 -0.7315
 9533TIP3    H150014   2.492   4.552  17.107  0.4937 -1.0011 -0.8330
 9533TIP3    H250015   2.502   4.590  16.961 -1.5987  1.3877 -0.4299
 9534TIP3   OH250016   3.500   6.098  12.252 -0.0093  0.5174 -0.3188
 9534TIP3    H150017   3.574   6.100  12.313 -1.7207  3.4901  1.9542
 9534TIP3    H250018   3.457   6.183  12.264 -3.4641 -0.8091 -1.9330
 9535TIP3   OH250019   4.747   2.712   0.865 -0.4854 -0.5047  0.5964
 9535TIP3    H150020   4.684   2.735   0.933 -0.0867  1.1281  0.4400
 9535TIP3    H250021   4.795   2.637   0.901 -0.6530 -0.0218  1.8640
 9536TIP3   OH250022   3.783   2.904   4.936 -0.4426 -0.1162 -0.3531
 9536TIP3    H150023   3.815   2.815   4.951  0.4575 -0.1756 -2.3312
 9536TIP3    H250024   3.777   2.942   5.024  4.0009 -0.5269  0.3704
 9537TIP3   OH250025   1.739   4.524   0.523  0.0568 -0.2399  0.3431
 9537TIP3    H150026   1.691   4.591   0.475  1.4879  0.8777  0.3725
 9537TIP3    H250027   1.673   4.460   0.550 -1.1150  0.3300 -1.0600
 9538TIP3   OH250028   5.049   1.161   1.628  0.2637  0.1355  0.0749
 9538TIP3    H150029   4.979   1.152   1.563  0.7801 -0.7580 -0.3638
 9538TIP3    H250030   5.010   1.127   1.709  0.3875 -0.9938 -0.3191
 9539TIP3   OH250031   0.289   3.967  14.712 -0.0133 -0.1097 -0.3900
 9539TIP3    H150032   0.293   3.974  14.616 -1.9458  0.4011 -0.4666
 9539TIP3    H250033   0.218   3.905  14.729 -0.4269  0.6371  0.7153
 9540TIP3   OH250034   1.420   2.292   1.150  0.0309  0.1693  0.2798
 9540TIP3    H150035   1.505   2.305   1.192  0.6362 -1.1503 -0.4659
 9540TIP3    H250036   1.370   2.239   1.212  0.7569 -1.3826 -0.4170
 9541TIP3   OH250037   5.759   5.957  15.020 -0.5337 -0.0371  0.0225
 9541TIP3    H150038   5.709   5.986  14.944 -1.6892  1.2279  1.1987
 9541TIP3    H250039   5.721   6.005  15.093  1.3054 -0.3358  1.2421
 9542TIP3   OH250040   5.811   5.696  14.997  0.2066 -0.4669 -0.4117
 9542TIP3    H150041   5.826   5.697  14.903 -0.1731 -1.3972 -0.4968
 9542TIP3    H250042   5.763   5.776  15.016 -0.6116 -0.7607 -1.1731
 9543TIP3   OH250043   4.027   1.185   3.841 -0.7863 -0.1229 -0.3967
 9543TIP3    H150044   3.996   1.273   3.821  1.4831  0.8468 -0.0276
 9543TIP3    H250045   3.984   1.129   3.777  0.4532  1.8072 -3.1339
 9544TIP3   OH250046   2.129   5.149  14.470 -0.0704 -0.1300  0.3571
 9544TIP3    H150047   2.065   5.090  14.512 -0.3993 -1.3871 -1.7758
 9544TIP3    H250048   2.213   5.125  14.510 -0.4892 -0.6322  0.9684
 9545TIP3   OH250049   3.042   6.832  12.611 -0.4213  0.2484  0.1937
 9545TIP3    H150050   2.960   6.783  12.603 -0.1236 -0.2321 -0.0092
 9545TIP3    H250051   3.087   6.816  12.527 -0.3336  0.8962  0.1140
 9546TIP3   OH250052   4.078   5.462   2.576  0.2078 -0.5030 -0.5053
 9546TIP3    H150053   3.999   5.515   2.571  0.5758 -0.0212 -1.9302
 9546TIP3    H250054   4.054   5.379   2.535 -0.6616 -1.9279  2.6126
 9547TIP3   OH250055   6.406   2.511   5.560 -0.0395 -0.1666  0.2566
 9547TIP3    H150056   6.476   2.513   5.625 -0.4194 -0.0196  0.6650
 9547TIP3    H250057   6.362   2.428   5.576 -0.3310  0.0147  0.3985
 9548TIP3   OH250058   4.074   1.469  11.623  0.5339  0.3263  0.0615
 9548TIP3    H150059   4.143   1.482  11.557  0.2453 -0.3770 -0.3953
 9548TIP3    H250060   3.993   1.494  11.578  0.5167  1.5042  0.7151
 9549TIP3   OH250061   0.277   5.308  13.287  0.4517 -0.4964  0.3727
 9549TIP3    H150062   0.253   5.363  13.213 -0.4866  0.2778  1.2254
 9549TIP3    H250063   0.195   5.270  13.317  0.8999 -1.2733  0.6630
 9550TIP3   OH250064   3.098   5.142   5.838  0.2513  0.2525 -0.0077
 9550TIP3    H150065   3.177   5.088   5.838 -0.6547 -1.1479  1.1629
 9550TIP3    H250066   3.027   5.081   5.820 -0.6953  1.2330  0.3156
 9551TIP3   OH250067   4.184   4.895   5.515 -0.1780 -0.1781 -0.0146
 9551TIP3    H150068   4.153   4.942   5.438 -0.2130 -0.1993 -0.0130
 9551TIP3    H250069   4.252   4.837   5.481 -0.9799 -1.0210 -0.2243
 9552TIP3   OH250070   5.317   4.192   1.922 -0.3739  0.1805 -0.7189
 9552TIP3    H150071   5.364   4.262   1.877 -0.4506  0.9560  0.3713
 9552TIP3    H250072   5.225   4.207   1.900 -0.3221 -0.0634 -1.1217
 9553TIP3   OH250073   5.054   0.361   4.988 -0.0547  0.1448  0.0764
 9553TIP3    H150074   5.026   0.321   4.906  0.5723 -0.9313  0.3572
 9553TIP3    H250075   5.137   0.404   4.967  0.6806 -1.0676  0.3471
 9554TIP3   OH250076   5.928   5.630  13.653  0.4233 -0.1752 -0.1697
 9554TIP3    H150077   5.901   5.701  13.712  1.8456  0.8278 -0.6854
 9554TIP3    H250078   5.848   5.579  13.639 -0.0615 -0.1583  2.2101
 9555TIP3   OH250079   3.322   4.166   0.680 -0.1002 -0.2929  0.2906
 9555TIP3    H150080   3.405   4.151   0.633 -0.0745  0.7746 -0.0395
 9555TIP3    H250081   3.339   4.134   0.768  0.2101 -1.3394 -0.1185
 9556TIP3   OH250082   6.269   3.098  12.867 -0.5837  0.3958  0.1024
 9556TIP3    H150083   6.234   3.022  12.821  0.3453 -1.1823  1.8401
 9556TIP3    H250084   6.207   3.112  12.939  0.1382  0.1921  0.7763
 9557TIP3   OH250085   1.510   2.093  13.460  0.1772 -0.1791  0.2224
 9557TIP3    H150086   1.458   2.080  13.539 -1.4985 -0.8222 -0.9288
 9557TIP3    H250087   1.553   2.009  13.445 -1.1740 -0.7423 -0.6636
 9558TIP3   OH250088   1.635   2.413   2.038 -0.3245  0.2250  0.2352
 9558TIP3    H150089   1.627   2.492   1.985  0.4395  0.5491  0.5861
 9558TIP3    H250090   1.670   2.347   1.978  0.4695  0.5723  0.2998
 9559TIP3   OH250091   1.862   6.737  16.283  0.3046 -0.0190  0.4375
 9559TIP3    H150092   1.780   6.688  16.293 -0.1150  0.6433  0.3342
 9559TIP3    H250093   1.889   6.759  16.373  0.2284 -0.0200  0.4608
 9560TIP3   OH250094   2.207   3.241  14.471  0.1581  0.2038  0.1068
 9560TIP3    H150095   2.136   3.179  14.489  0.7556 -0.4828  0.1750
 9560TIP3    H250096   2.242   3.214  14.387 -0.2271  1.0989 -0.3530
 9561TIP3   OH250097   2.627   5.998   4.378 -0.3945  0.1740  0.0978
 9561TIP3    H150098   2.682   6.055   4.431  2.1181 -1.2988 -0.7642
 9561TIP3    H250099   2.649   6.020   4.288  1.3603 -2.5893 -0.2888
 9562TIP3   OH250100   2.117   3.766  12.616  0.0048 -0.2638  0.2703
 9562TIP3    H150101   2.125   3.670  12.618 -0.0879 -0.2758  0.1088
 9562TIP3    H250102   2.104   3.787  12.524  0.8353 -0.0235  0.2001
 9563TIP3   OH250103   6.082   3.943  12.270 -0.3627  0.0100 -0.6749
 9563TIP3    H150104   6.078   4.002  12.195  0.5922 -0.5304 -1.1689
 9563TIP3    H250105   5.999   3.895  12.268 -1.6478  2.0813  0.3912
 9564TIP3   OH250106   2.036   0.401  17.010  0.1954 -0.0356  0.0891
 9564TIP3    H150107   1.986   0.476  17.039  0.1079  0.2326 -0.7377
 9564TIP3    H250108   2.054   0.351  17.090 -0.9256  0.1363  0.4618
 9565TIP3   OH250109   1.163   3.845  15.287  0.8352  0.0871 -0.0119
 9565TIP3    H150110   1.094   3.890  15.335 -0.4284  0.6852 -2.2667
 9565TIP3    H250111   1.244   3.871  15.331 -0.2007  0.9709  1.4564
 9566TIP3   OH250112   4.991   3.594   5.152  0.2573 -0.0095 -0.2093
 9566TIP3    H150113   4.898   3.576   5.141  0.0467 -0.4373  1.9004
 9566TIP3    H250114   5.016   3.641   5.072 -1.9595  0.8923 -0.4468
 9567TIP3   OH250115   6.191   0.928  13.693 -0.6710  0.8513 -0.2381
 9567TIP3    H150116   6.178   0.985  13.769 -1.8051  1.8761 -1.1693
 9567TIP3    H250117   6.159   0.843  13.722  0.1043  0.9016  0.8425
 9568TIP3   OH250118   3.014   1.560  14.637  0.1738  0.2399 -0.0450
 9568TIP3    H150119   3.006   1.646  14.596  1.0903  1.1407  1.5645
 9568TIP3    H250120   3.093   1.522  14.598  0.3836  0.5910  0.0347
 9569TIP3   OH250121   0.374   0.878  12.706 -0.2769 -0.1038 -0.1874
 9569TIP3    H150122   0.334   0.917  12.628 -1.5193 -1.3562 -0.2153
 9569TIP3    H250123   0.436   0.814  12.672 -1.4241 -1.2542 -0.1973
 9570TIP3   OH250124   3.188   5.369   4.073  0.5513  0.4888 -0.2463
 9570TIP3    H150125   3.207   5.441   4.133  2.5262 -0.8018  0.7932
 9570TIP3    H250126   3.270   5.356   4.025 -0.0585 -0.4652 -1.0619
 9571TIP3   OH250127   6.535   2.727  11.144 -0.4166  0.4099  0.4011
 9571TIP3    H150128   6.625   2.756  11.158 -0.5959  0.7635  0.8879
 9571TIP3    H250129   6.542   2.639  11.107  0.1288  0.5800  0.0958
 9572TIP3   OH250130   5.489   0.752  12.112  0.2233  0.6739  0.1820
 9572TIP3    H150131   5.431   0.697  12.164  0.1414  0.3678 -0.2291
 9572TIP3    H250132   5.432   0.788  12.044  0.4853  0.4881 -0.1363
 9573TIP3   OH250133   6.538   4.718   2.845  0.1680  0.2293 -0.1820
 9573TIP3    H150134   6.587   4.787   2.889  0.1976  1.2236 -1.7214
 9573TIP3    H250135   6.454   4.758   2.822 -1.4264 -1.3939  2.2489
 9574TIP3   OH250136   5.414   1.572   3.297  0.7606 -0.2248  0.0072
 9574TIP3    H150137   5.461   1.633   3.240  2.3210 -0.6813  0.7543
 9574TIP3    H250138   5.398   1.621   3.377  1.2200 -0.5079  0.2751
 9575TIP3   OH250139   4.116   2.945   2.966 -0.5035 -0.0008  0.2796
 9575TIP3    H150140   4.209   2.922   2.962 -1.0301 -2.7017  1.5467
 9575TIP3    H250141   4.094   2.969   2.876  1.0269 -1.1118 -0.4428
 9576TIP3   OH250142   5.805   6.381  14.680 -0.0990 -0.4430 -0.2730
 9576TIP3    H150143   5.799   6.337  14.765  0.2075 -1.3463 -0.7037
 9576TIP3    H250144   5.827   6.311  14.619 -2.0081 -0.1465 -1.3982
 9577TIP3   OH250145   3.458   4.434  11.662 -0.2253  0.2678 -0.9266
 9577TIP3    H150146   3.437   4.423  11.569 -0.7907  0.2744 -0.8074
 9577TIP3    H250147   3.398   4.503  11.691  0.7287  1.0609 -0.8148
 9578TIP3   OH250148   1.049   0.365   1.298  0.4688 -0.8065 -0.5147
 9578TIP3    H150149   1.037   0.409   1.383 -0.6031 -0.0103 -1.0547
 9578TIP3    H250150   1.039   0.272   1.318  1.0846 -0.6961  0.3740
 9579TIP3   OH250151   5.634   2.996  14.665 -0.0167 -0.0492 -0.4399
 9579TIP3    H150152   5.678   3.078  14.687 -0.2479 -0.2464  0.8513
 9579TIP3    H250153   5.664   2.976  14.576  0.4997  1.1207 -0.5559
 9580TIP3   OH250154   6.090   2.143   1.135 -0.1552  0.7585  0.0784
 9580TIP3    H150155   6.168   2.191   1.165  1.4492 -1.8294  0.4160
 9580TIP3    H250156   6.122   2.055   1.119 -3.0465 -0.3912  0.1083
 9581TIP3   OH250157   6.522   0.594  15.360 -0.3262 -0.0831 -0.0501
 9581TIP3    H150158   6.490   0.556  15.278 -0.0329 -1.0521  0.2606
 9581TIP3    H250159   6.571   0.523  15.401 -0.6879  0.3015  1.0877
 9582TIP3   OH250160   0.367   6.598   4.029  0.1230  0.1577  0.3598
 9582TIP3    H150161   0.430   6.667   4.011  1.4800 -0.8650  1.0225
 9582TIP3    H250162   0.406   6.519   3.992 -2.1875 -0.0498 -1.9610
 9583TIP3   OH250163   5.238   2.909   0.037 -0.7106  0.3472 -0.5051
 9583TIP3    H150164   5.182   2.883  -0.037  0.1212 -2.1679 -0.3310
 9583TIP3    H250165   5.194   2.874   0.114  0.1116  0.0517 -0.1617
 9584TIP3   OH250166   6.281   3.331   4.221  0.1038 -0.2384  0.1272
 9584TIP3    H150167   6.230   3.382   4.158  0.6357 -1.4063 -1.2990
 9584TIP3    H250168   6.264   3.240   4.199  0.5988 -0.6833  1.4628
 9585TIP3   OH250169   0.547   6.083   4.361 -0.0253 -0.3241  0.6629
 9585TIP3    H150170   0.533   6.171   4.395 -0.5910 -0.6895  1.4225
 9585TIP3    H250171   0.642   6.072   4.362  0.0574  0.3126  0.4508
 9586TIP3   OH250172   3.723   6.531   3.156  0.6765 -0.0108  0.4107
 9586TIP3    H150173   3.734   6.459   3.093 -0.2926  0.2229 -0.0439
 9586TIP3    H250174   3.764   6.499   3.236  0.1107 -1.1436  0.2685
 9587TIP3   OH250175   5.152   0.874  14.836 -0.2710  0.1024 -0.9222
 9587TIP3    H150176   5.074   0.854  14.889  0.1083  1.2957  0.1419
 9587TIP3    H250177   5.131   0.956  14.792  0.1977  0.1647 -1.0322
 9588TIP3   OH250178   1.119   5.470  16.484  0.2548 -0.2574  0.4633
 9588TIP3    H150179   1.177   5.438  16.415  0.7547 -0.3608  0.9196
 9588TIP3    H250180   1.154   5.556  16.507 -0.5470  0.2449 -0.1381
 9589TIP3   OH250181   6.200   2.589  15.530 -0.6316 -0.2324 -0.2782
 9589TIP3    H150182   6.291   2.595  15.558 -0.6988  1.0731 -0.2625
 9589TIP3    H250183   6.150   2.629  15.601 -1.1632 -0.4757 -0.5105
 9590TIP3   OH250184   1.212   6.753   2.124  0.1788  0.0286 -0.0689
 9590TIP3    H150185   1.217   6.750   2.029 -2.1261  0.8031 -0.2953
 9590TIP3    H250186   1.130   6.707   2.145  1.6118 -1.9122  1.7403
 9591TIP3   OH250187   6.072   1.613   2.796 -0.1523  0.3518 -0.4556
 9591TIP3    H150188   6.131   1.642   2.866  0.1570  0.4549 -0.7584
 9591TIP3    H250189   6.107   1.528   2.769 -0.4827  0.1450 -0.2431
 9592TIP3   OH250190   2.345   2.786  14.981 -0.0677  0.1974  0.0529
 9592TIP3    H150191   2.271   2.776  14.921 -0.3884 -1.8675  0.7356
 9592TIP3    H250192   2.306   2.783  15.068  0.6464  0.8911  0.4148
 9593TIP3   OH250193   5.886   3.584   3.897  0.2665 -0.0916 -0.0902
 9593TIP3    H150194   5.958   3.644   3.877  0.1747  0.1397  0.2647
 9593TIP3    H250195   5.913   3.501   3.857  0.3045  0.2335 -0.7418
 9594TIP3   OH250196   3.209   2.703  10.574  0.7370 -0.0444 -0.9518
 9594TIP3    H150197   3.214   2.776  10.636 -1.3600 -1.1039  0.5947
 9594TIP3    H250198   3.142   2.730  10.511  0.6529 -0.2171 -0.9373
 9595TIP3   OH250199   5.576   6.229   5.764 -0.2967  0.3077  0.4383
 9595TIP3    H150200   5.514   6.161   5.741 -0.4851 -0.3607  2.6716
 9595TIP3    H250201   5.537   6.272   5.841  1.6186  0.3596  1.4384
 9596TIP3   OH250202   6.542   6.070  14.873 -0.2794  0.0316  0.5788
 9596TIP3    H150203   6.495   6.003  14.922  0.5776 -0.2943  0.9798
 9596TIP3    H250204   6.631   6.068  14.909  0.2926  0.0094 -0.7737
 9597TIP3   OH250205   1.931   0.185   3.789 -0.1422  0.2600 -0.5604
 9597TIP3    H150206   1.890   0.272   3.790 -1.6276 -0.4219  0.7194
 9597TIP3    H250207   1.863   0.127   3.757 -0.0210 -0.8124  1.0394
 9598TIP3   OH250208   1.642   0.193   2.571 -0.6772  0.0626  0.3421
 9598TIP3    H150209   1.651   0.289   2.576 -0.4512  0.0011  4.3450
 9598TIP3    H250210   1.724   0.164   2.529  0.8317  1.5113  2.1104
 9599TIP3   OH250211   4.429   0.508  12.202  0.5481  0.1881 -0.1065
 9599TIP3    H150212   4.501   0.446  12.188 -0.1857 -0.7533  0.1532
 9599TIP3    H250213   4.472   0.591  12.223  1.5600 -0.1596 -0.7348
 9600TIP3   OH250214   0.728   1.927   3.185  0.0885 -0.3241 -0.6657
 9600TIP3    H150215   0.688   2.006   3.221  0.5193 -0.3829 -0.0445
 9600TIP3    H250216   0.730   1.866   3.259  0.1401 -0.7720 -1.0339
 9601TIP3   OH250217   4.357   4.066   3.072  0.6798  0.4373  0.0912
 9601TIP3    H150218   4.324   4.151   3.042 -0.3070  0.0867  0.1251
 9601TIP3    H250219   4.384   4.021   2.992 -0.3240  0.1667 -0.1058
 9602TIP3   OH250220   1.720   3.275  12.962  0.8082  0.4440  0.3908
 9602TIP3    H150221   1.640   3.302  13.007  1.7166  2.1538  1.1039
 9602TIP3    H250222   1.690   3.237  12.880 -0.7319  1.3666  0.4776
 9603TIP3   OH250223   3.376   3.375  12.339  0.4788 -0.1740 -0.2788
 9603TIP3    H150224   3.424   3.374  12.256  0.2391 -1.5977 -0.4136
 9603TIP3    H250225   3.318   3.450  12.332  0.8221  0.0171 -1.1848
 9604TIP3   OH250226   4.721   1.925   2.353  0.1513  0.5769 -0.3487
 9604TIP3    H150227   4.738   2.011   2.392  1.6949  1.2708 -2.3784
 9604TIP3    H250228   4.645   1.939   2.297  0.1836  0.5228 -0.4052
 9605TIP3   OH250229   2.050   6.748  10.036  0.3257  0.2760 -0.4747
 9605TIP3    H150230   1.971   6.717   9.992  0.5008 -0.6458 -0.1557
 9605TIP3    H250231   2.090   6.809   9.973 -0.0750 -0.0693 -1.0759
 9606TIP3   OH250232   2.886   2.420  15.038  0.6080  0.2369  0.7023
 9606TIP3    H150233   2.905   2.487  14.973  0.0461  0.3757  0.6798
 9606TIP3    H250234   2.791   2.423  15.049  0.7118  0.3034  1.6193
 9607TIP3   OH250235   1.312   5.581  16.209 -0.3026 -0.3179  0.2481
 9607TIP3    H150236   1.395   5.626  16.195 -0.8053  0.2963 -0.9623
 9607TIP3    H250237   1.261   5.639  16.265 -0.6536  0.2648 -0.6596
 9608TIP3   OH250238   6.174   0.704   9.959  0.5124  0.0692 -0.1047
 9608TIP3    H150239   6.253   0.653   9.939 -0.9268 -1.6472 -1.9203
 9608TIP3    H250240   6.203   0.795   9.962  2.6696 -0.5833  0.0602
 9609TIP3   OH250241   4.217   2.344  10.889 -0.3403  0.0516  0.3172
 9609TIP3    H150242   4.282   2.391  10.942 -0.7492  0.9029  0.0913
 9609TIP3    H250243   4.268   2.293  10.827  0.1369 -0.5087  1.1589
 9610TIP3   OH250244   6.657   4.219  15.542 -0.2951  0.1792  0.3255
 9610TIP3    H150245   6.730   4.185  15.594 -1.3201 -1.3079  0.8495
 9610TIP3    H250246   6.623   4.292  15.594  0.6074  0.6880  0.2245
 9611TIP3   OH250247   5.191   3.409   0.986  0.2645 -0.5591 -0.1522
 9611TIP3    H150248   5.158   3.374   1.069 -0.9679  2.7817  0.9567
 9611TIP3    H250249   5.122   3.390   0.923 -1.6181  1.8020  0.9962
 9612TIP3   OH250250   1.702   3.410  16.572  0.8758 -0.0696 -0.2123
 9612TIP3    H150251   1.679   3.409  16.480 -0.2740 -0.7159  0.0612
 9612TIP3    H250252   1.796   3.389  16.574  0.4557 -2.3622 -1.1417
 9613TIP3   OH250253   0.491   6.163   2.974 -0.1642 -0.1157 -0.0512
 9613TIP3    H150254   0.526   6.081   3.008  1.6511  1.3456  1.9626
 9613TIP3    H250255   0.537   6.178   2.892  0.6150 -0.4157  0.3255
 9614TIP3   OH250256   4.851   0.933  11.635  0.7383 -0.0175 -0.3836
 9614TIP3    H150257   4.835   0.936  11.730  0.4221 -1.6690 -0.3550
 9614TIP3    H250258   4.907   0.857  11.623 -2.2492 -2.1856 -1.8705
 9615TIP3   OH250259   3.628   3.521   3.546  0.1588 -0.1314 -0.4081
 9615TIP3    H150260   3.673   3.437   3.558 -0.5518 -0.4490  0.0912
 9615TIP3    H250261   3.541   3.507   3.584  0.6464  1.3922  1.3848
 9616TIP3   OH250262   4.845   1.796  13.912  0.5665  0.1007 -0.3421
 9616TIP3    H150263   4.751   1.791  13.896  0.3051  1.8688  0.4200
 9616TIP3    H250264   4.853   1.784  14.007  0.9972  1.0062 -0.2551
 9617TIP3   OH250265   4.041   5.137  15.562  0.0078  0.1087  0.3038
 9617TIP3    H150266   4.047   5.125  15.657  1.3549 -1.2760  0.0747
 9617TIP3    H250267   3.951   5.169  15.548 -0.8290 -1.3916  1.8862
 9618TIP3   OH250268   6.633   2.478   1.005 -0.1824  0.2392 -0.5918
 9618TIP3    H150269   6.685   2.471   0.925  0.2299 -1.5663 -0.1971
 9618TIP3    H250270   6.597   2.567   1.003 -0.3415  0.1646 -2.8750
 9619TIP3   OH250271   0.691   1.474  11.233  0.5573  0.2835  0.0024
 9619TIP3    H150272   0.629   1.547  11.236 -1.1386 -1.0990 -0.4895
 9619TIP3    H250273   0.638   1.397  11.215  2.2280 -1.1927  1.0334
 9620TIP3   OH250274   1.070   5.257   4.007  0.2389 -0.4097  0.2451
 9620TIP3    H150275   1.132   5.329   4.021  0.1410  0.0932 -1.6806
 9620TIP3    H250276   1.005   5.293   3.947 -0.8347 -1.5555  0.6927
 9621TIP3   OH250277   2.809   1.983  16.020  0.3295 -0.4637  0.4536
 9621TIP3    H150278   2.779   2.031  15.943 -2.6780 -0.6242  1.3845
 9621TIP3    H250279   2.822   1.893  15.988  1.3025 -0.0810 -0.2862
 9622TIP3   OH250280   3.858   4.517  12.709 -0.2902 -0.5887  0.2629
 9622TIP3    H150281   3.867   4.529  12.614  0.4076 -2.5183  0.0512
 9622TIP3    H250282   3.948   4.519  12.742 -0.2724 -2.6339  0.4757
 9623TIP3   OH250283   2.655   0.662  10.849 -0.2271  0.3315  0.1719
 9623TIP3    H150284   2.666   0.615  10.767  0.9574 -0.2704  0.6445
 9623TIP3    H250285   2.570   0.634  10.882  0.1818 -1.0066  0.1304
 9624TIP3   OH250286   2.771   1.919   5.582  0.2572  0.5663 -0.5411
 9624TIP3    H150287   2.849   1.865   5.598  0.8454  0.6347 -2.8693
 9624TIP3    H250288   2.717   1.866   5.523 -0.7636  1.1549 -0.1670
 9625TIP3   OH250289   3.165   6.710  17.023  0.2098  0.5902  0.2640
 9625TIP3    H150290   3.247   6.667  17.047  0.4175 -0.3824 -1.9161
 9625TIP3    H250291   3.098   6.644  17.039  0.1535  0.5335 -0.1978
 9626TIP3   OH250292   5.834   4.127   6.444 -0.6658  0.3602 -0.4343
 9626TIP3    H150293   5.852   4.155   6.354  0.0746  1.9609  0.1880
 9626TIP3    H250294   5.743   4.154   6.459 -0.4886  0.9427 -0.3931
 9627TIP3   OH250295   0.456   4.102   3.330  0.4128  0.1539  0.3252
 9627TIP3    H150296   0.455   4.147   3.246  3.1185  1.2946  0.7979
 9627TIP3    H250297   0.470   4.010   3.308  1.3070  0.4763 -0.4995
 9628TIP3   OH250298   6.418   6.747   2.781 -0.0756 -0.4863 -0.2555
 9628TIP3    H150299   6.344   6.686   2.775 -0.3038 -0.5017  1.9222
 9628TIP3    H250300   6.438   6.752   2.875  1.8267  0.5652 -0.6549
 9629TIP3   OH250301   6.429   6.482  11.545  0.6054 -0.2283 -0.1646
 9629TIP3    H150302   6.407   6.562  11.497  2.4450  0.7829  0.5731
 9629TIP3    H250303   6.359   6.473  11.610 -0.3954 -0.0585 -1.1894
 9630TIP3   OH250304   6.618   0.074  12.056  0.7200  0.0830 -0.0122
 9630TIP3    H150305   6.704   0.116  12.069  1.7982 -1.9347 -0.2482
 9630TIP3    H250306   6.639  -0.013  12.023 -1.5021  0.1113 -1.6735
 9631TIP3   OH250307   0.529   1.909  16.640 -0.7817  0.4119 -0.6545
 9631TIP3    H150308   0.511   1.835  16.582  0.4026 -1.6679  1.4552
 9631TIP3    H250309   0.582   1.872  16.710 -1.0577  3.0654  1.0963
 9632TIP3   OH250310   1.745   2.396  15.114  0.1588  0.1810  0.3291
 9632TIP3    H150311   1.805   2.386  15.187 -0.4334  0.3160  0.8421
 9632TIP3    H250312   1.726   2.490  15.110  1.3271  0.3845 -0.9312
 9633TIP3   OH250313   4.905   5.242  12.145 -0.7692 -0.5848 -0.2617
 9633TIP3    H150314   4.812   5.261  12.148 -0.6759 -0.2175  0.8778
 9633TIP3    H250315   4.920   5.182  12.217 -0.1807 -0.9375 -0.6631
 9634TIP3   OH250316   2.820   0.031  16.474  0.2553 -0.1489  0.0938
 9634TIP3    H150317   2.868   0.052  16.394  0.0698  0.1706  0.0655
 9634TIP3    H250318   2.828  -0.064  16.483 -0.3630 -0.2865 -0.7109
 9635TIP3   OH250319   0.908   3.661   0.485  0.3716 -0.0402 -0.5125
 9635TIP3    H150320   0.857   3.586   0.454  0.2216  1.0430 -3.1595
 9635TIP3    H250321   0.998   3.630   0.488  0.3521 -0.3054 -1.8870
 9636TIP3   OH250322   3.016   4.677   1.095  0.1521  0.0138  0.1327
 9636TIP3    H150323   2.976   4.674   1.009 -0.0388 -0.8621  0.2376
 9636TIP3    H250324   3.099   4.629   1.085 -0.0230 -0.3767  0.4998
 9637TIP3   OH250325   6.361   3.156  11.603  0.3902 -0.3474  0.7445
 9637TIP3    H150326   6.342   3.113  11.687  1.0095  0.6074  1.3947
 9637TIP3    H250327   6.293   3.222  11.594  0.3246 -0.4495  0.4956
 9638TIP3   OH250328   4.275   1.929  12.517 -0.0264  0.5339  0.1490
 9638TIP3    H150329   4.308   1.933  12.428  1.2496 -0.7042  0.5291
 9638TIP3    H250330   4.278   2.020  12.548  2.5016  0.5886 -0.0637
 9639TIP3   OH250331   6.610   5.014  12.478 -0.0305 -0.2847  0.1795
 9639TIP3    H150332   6.597   4.993  12.570 -0.2831 -0.7675  0.0370
 9639TIP3    H250333   6.548   4.958  12.432  0.6907 -0.6689 -0.3461
 9640TIP3   OH250334   1.232   4.780   3.833 -0.9049 -0.1555 -0.3479
 9640TIP3    H150335   1.157   4.810   3.780  0.4219  0.7290 -1.8114
 9640TIP3    H250336   1.225   4.830   3.914 -0.5323  1.8329 -1.4776
 9641TIP3   OH250337   2.154   1.131  11.007  0.2844 -0.3524  0.4585
 9641TIP3    H150338   2.240   1.129  11.051  0.1411 -1.0248  0.7329
 9641TIP3    H250339   2.176   1.135  10.914  0.6676 -1.9966  0.4395
 9642TIP3   OH250340   0.483   0.525   1.496 -0.0067 -0.2131 -0.0621
 9642TIP3    H150341   0.563   0.486   1.459 -0.3246 -0.0314 -0.9879
 9642TIP3    H250342   0.514   0.599   1.548  0.4286 -0.0226 -0.5798
 9643TIP3   OH250343   3.430   1.269   2.664  0.0925 -0.4700  0.8915
 9643TIP3    H150344   3.488   1.336   2.702 -0.4170 -0.2370  1.2747
 9643TIP3    H250345   3.427   1.289   2.571  2.2732 -1.7295  0.4777
 9644TIP3   OH250346   0.531   6.253  13.999 -0.3358 -0.7236 -0.2238
 9644TIP3    H150347   0.481   6.189  13.949  1.5796 -1.8956 -0.7522
 9644TIP3    H250348   0.578   6.201  14.065  1.4382  0.0564 -0.8056
 9645TIP3   OH250349   5.044   0.134   5.218 -0.0713 -0.7037 -0.4327
 9645TIP3    H150350   5.085   0.184   5.147 -0.3787 -2.2026 -1.7050
 9645TIP3    H250351   4.951   0.152   5.209 -0.1131 -0.9158 -0.4269
 9646TIP3   OH250352   3.731   1.028  15.515 -0.3870  0.3692 -0.3497
 9646TIP3    H150353   3.696   0.939  15.518 -1.0812  0.4151 -3.5247
 9646TIP3    H250354   3.735   1.055  15.607 -1.1469 -2.5246  0.6541
 9647TIP3   OH250355   2.447   6.535   4.801 -0.6889 -0.3054  0.4900
 9647TIP3    H150356   2.463   6.443   4.821  2.2169 -0.0006 -0.0327
 9647TIP3    H250357   2.442   6.539   4.706  0.1292  0.1538  0.4513
 9648TIP3   OH250358   6.042   5.430   0.836 -0.1988 -0.8127  0.6338
 9648TIP3    H150359   5.991   5.465   0.909 -0.2307 -0.8455  0.6274
 9648TIP3    H250360   5.976   5.407   0.771 -0.2433 -1.6734  0.9728
 9649TIP3   OH250361   0.353   6.478   0.736  0.3235  0.2257  0.3035
 9649TIP3    H150362   0.280   6.511   0.788  0.8282 -0.4996  1.4899
 9649TIP3    H250363   0.345   6.526   0.653 -2.2684 -0.7671 -0.1306
 9650TIP3   OH250364   5.048   4.373   5.199 -0.0609 -0.3867  0.3481
 9650TIP3    H150365   5.138   4.407   5.203 -0.5218  0.7815  1.5500
 9650TIP3    H250366   5.019   4.370   5.290 -0.8224 -1.9858  0.0822
 9651TIP3   OH250367   2.941   4.042  16.074 -0.1063 -0.0225 -0.1447
 9651TIP3    H150368   2.894   4.120  16.045  1.0985  0.7436 -0.1183
 9651TIP3    H250369   2.986   4.010  15.996  0.9982  0.4923  0.2608
 9652TIP3   OH250370   2.930   0.210   2.462  0.3082  0.2118  0.0912
 9652TIP3    H150371   2.917   0.115   2.457 -1.2234  0.4552 -1.4084
 9652TIP3    H250372   3.020   0.220   2.493  0.2062 -1.7097  1.2094
 9653TIP3   OH250373   4.226   3.749   2.419 -0.5680  0.1455  0.1789
 9653TIP3    H150374   4.272   3.781   2.342 -0.3507 -0.0512  0.2252
 9653TIP3    H250375   4.285   3.770   2.492  0.3041 -1.6864  0.0753
 9654TIP3   OH250376   5.549   0.350  16.796 -0.2393 -0.0121 -0.1601
 9654TIP3    H150377   5.618   0.346  16.861  0.8497  0.9579 -1.2045
 9654TIP3    H250378   5.593   0.330  16.713 -0.7766  2.3916 -1.1136
 9655TIP3   OH250379   3.997   3.113   5.416  0.6227  0.0252 -0.3732
 9655TIP3    H150380   3.969   3.153   5.498 -1.3358 -0.3442 -0.7957
 9655TIP3    H250381   4.065   3.051   5.441 -1.3152 -1.5947  1.3464
 9656TIP3   OH250382   2.655   4.724   2.670  0.3055  0.2170 -0.1823
 9656TIP3    H150383   2.655   4.816   2.645 -0.5277  0.8852  2.0342
 9656TIP3    H250384   2.745   4.694   2.652  0.5712  1.4302 -0.9854
 9657TIP3   OH250385   6.233   4.087  14.425  0.1359  0.8804 -0.0274
 9657TIP3    H150386   6.327   4.101  14.439  0.5759 -1.5361 -0.2209
 9657TIP3    H250387   6.210   4.017  14.486 -1.2149  0.4032 -1.0420
 9658TIP3   OH250388   5.229   3.851  15.013 -0.6179 -0.2755  0.5864
 9658TIP3    H150389   5.219   3.780  14.949  0.7572 -1.7510  1.9261
 9658TIP3    H250390   5.198   3.929  14.966  0.0364 -1.3301 -1.7730
 9659TIP3   OH250391   2.703   3.801  10.857  0.1752  0.4867 -0.1513
 9659TIP3    H150392   2.695   3.893  10.882 -1.6857  0.7387 -1.4381
 9659TIP3    H250393   2.729   3.803  10.765 -2.2071 -0.1504 -0.9157
 9660TIP3   OH250394   1.811   2.278  14.559  0.1359  0.1424 -0.2763
 9660TIP3    H150395   1.818   2.373  14.569 -2.6161  0.5149 -1.0366
 9660TIP3    H250396   1.770   2.266  14.474 -0.8523 -1.6438  0.4005
 9661TIP3   OH250397   6.788   0.792   2.701  0.2117  0.0834 -0.1239
 9661TIP3    H150398   6.772   0.873   2.653  0.4307 -0.0055 -0.3473
 9661TIP3    H250399   6.880   0.796   2.726  0.0548  0.2092  0.4417
 9662TIP3   OH250400   6.072   0.349   3.396  0.2247 -0.3008 -0.2791
 9662TIP3    H150401   6.155   0.381   3.431 -0.3406  0.9386 -0.0141
 9662TIP3    H250402   6.028   0.310   3.471  0.8290 -1.5452 -0.5583
 9663TIP3   OH250403   4.281   6.308   1.620 -0.4650  0.5286 -0.1961
 9663TIP3    H150404   4.259   6.378   1.558  0.5621  1.3181  0.3069
 9663TIP3    H250405   4.311   6.353   1.699  2.2672 -0.4221 -0.5753
 9664TIP3   OH250406   3.931   5.272  11.874 -0.2343  0.1433 -0.3976
 9664TIP3    H150407   4.016   5.274  11.830  0.2603 -2.1147  0.3219
 9664TIP3    H250408   3.943   5.327  11.951  0.4770  0.1299 -0.4881
 9665TIP3   OH250409   2.868   4.893   5.120  0.6187 -0.0798 -0.1470
 9665TIP3    H150410   2.897   4.819   5.174  0.7077 -1.0744 -1.5246
 9665TIP3    H250411   2.796   4.931   5.170 -0.8886 -2.4264 -0.3668
 9666TIP3   OH250412   4.134   6.628   2.288  0.1424  0.5917  0.1051
 9666TIP3    H150413   4.212   6.573   2.281 -0.8336 -0.7386 -0.9194
 9666TIP3    H250414   4.141   6.670   2.373  0.1410 -2.4056  1.7084
 9667TIP3   OH250415   0.628   1.751   3.392 -0.1693 -0.0455 -0.8634
 9667TIP3    H150416   0.560   1.744   3.325 -1.2679 -1.5081  0.3206
 9667TIP3    H250417   0.589   1.806   3.461 -0.5788 -1.6336  0.2323
 9668TIP3   OH250418   4.333   2.446  12.752 -0.1068  0.1667  0.8282
 9668TIP3    H150419   4.291   2.492  12.825 -0.1608  0.0400  0.8794
 9668TIP3    H250420   4.316   2.353  12.770 -1.0732  0.1890  0.0686
 9669TIP3   OH250421   5.411   6.128  10.050  0.4407  0.4542 -0.1702
 9669TIP3    H150422   5.448   6.094   9.968  0.3598  1.3541 -0.5941
 9669TIP3    H250423   5.433   6.062  10.115  0.6192 -0.2173 -0.8965
 9670TIP3   OH250424   0.344   5.118   3.382  0.1070 -0.1337  0.0951
 9670TIP3    H150425   0.275   5.053   3.373 -0.9277  0.8906  0.2771
 9670TIP3    H250426   0.331   5.177   3.308  0.5897  0.2537  0.3094
 9671TIP3   OH250427   0.551   2.906   3.061 -0.5162  0.4040 -0.1576
 9671TIP3    H150428   0.493   2.979   3.085 -2.1231 -1.0828  0.7311
 9671TIP3    H250429   0.528   2.887   2.971 -3.7505 -2.0406  0.9708
 9672TIP3   OH250430   3.906   2.241  15.453 -0.1984 -0.2265 -0.0876
 9672TIP3    H150431   3.840   2.286  15.400 -0.3574 -1.2351 -0.7807
 9672TIP3    H250432   3.959   2.193  15.389  0.1381 -0.7968  0.6072
 9673TIP3   OH250433   4.310   5.683  12.383  0.5436  0.0531  0.5202
 9673TIP3    H150434   4.245   5.752  12.395  1.3869  0.8943  0.3096
 9673TIP3    H250435   4.393   5.722  12.412  1.4552 -0.0673 -1.6858
 9674TIP3   OH250436   6.809   2.534  14.061  0.0027 -0.0297 -0.0908
 9674TIP3    H150437   6.744   2.521  14.129  0.7908  0.8204  0.8647
 9674TIP3    H250438   6.859   2.453  14.059  1.3150  0.6650  1.8587
 9675TIP3   OH250439   3.213   5.338  13.060  0.2799  0.4643  0.5642
 9675TIP3    H150440   3.147   5.268  13.066  1.6423 -1.0301 -0.9052
 9675TIP3    H250441   3.242   5.351  13.150  0.6989 -1.6401  0.7939
 9676TIP3   OH250442   6.400   2.058  10.133 -0.3815 -0.0811 -0.6442
 9676TIP3    H150443   6.379   1.967  10.112 -2.3056 -0.3070  1.8939
 9676TIP3    H250444   6.478   2.052  10.188 -1.5887 -0.4334  1.1076
 9677TIP3   OH250445   0.780   5.071   1.107  0.4435  0.0506  0.1579
 9677TIP3    H150446   0.875   5.068   1.117  0.8152  0.9905 -2.2708
 9677TIP3    H250447   0.753   5.146   1.159  1.2447  0.5773 -0.1576
 9678TIP3   OH250448   1.235   2.208   6.032 -0.0948  0.6968  0.1531
 9678TIP3    H150449   1.166   2.259   6.072  0.1418  1.7068 -0.6669
 9678TIP3    H250450   1.196   2.174   5.951  0.3102  1.1730 -0.2524
 9679TIP3   OH250451   6.488   4.064   1.540 -0.3610 -0.2865  0.4125
 9679TIP3    H150452   6.520   4.100   1.457 -2.5479 -0.7406 -0.6876
 9679TIP3    H250453   6.443   4.137   1.583  1.0305  0.0348  1.4052
 9680TIP3   OH250454   4.178   1.389   3.023  0.2738 -0.4927  0.0945
 9680TIP3    H150455   4.115   1.447   3.065  0.0178 -0.7334  0.0464
 9680TIP3    H250456   4.262   1.413   3.061  0.2103  0.1031 -0.1412
 9681TIP3   OH250457   4.560   5.681  14.330 -0.1351  0.2916  0.8693
 9681TIP3    H150458   4.648   5.644  14.341 -1.0538 -1.8167  1.5522
 9681TIP3    H250459   4.506   5.607  14.304 -1.6559  1.6510 -0.0263
 9682TIP3   OH250460   2.056   4.876   0.728  0.2336  0.4447 -0.3932
 9682TIP3    H150461   2.106   4.873   0.810  0.2773  0.8033 -0.4030
 9682TIP3    H250462   2.069   4.965   0.696 -1.2947  0.9097  0.1700
 9683TIP3   OH250463   4.721   3.987   3.328  0.1316  0.1073  0.7717
 9683TIP3    H150464   4.809   4.009   3.360 -0.0161  1.3785  0.3613
 9683TIP3    H250465   4.667   4.062   3.352 -0.1701  0.7291 -1.5936
 9684TIP3   OH250466   2.410   5.898   4.010  0.1276 -0.4910 -0.3324
 9684TIP3    H150467   2.399   5.966   3.943  1.5659  0.0207 -0.1057
 9684TIP3    H250468   2.411   5.947   4.093 -0.6528 -1.0062 -0.0150
 9685TIP3   OH250469   2.554   6.440  15.170 -0.1524 -0.1184  0.5971
 9685TIP3    H150470   2.462   6.446  15.146 -0.0965  0.5758  0.5263
 9685TIP3    H250471   2.601   6.479  15.096  0.8181 -6.4266 -2.8116
 9686TIP3   OH250472   3.774   3.872  14.523  0.0511 -0.1476  0.5471
 9686TIP3    H150473   3.814   3.852  14.438 -2.1015  1.3423 -0.9185
 9686TIP3    H250474   3.848   3.894  14.580  1.4735  0.0190 -1.2904
 9687TIP3   OH250475   6.492   6.079  14.368  0.9501  0.3913  0.3956
 9687TIP3    H150476   6.487   5.993  14.408  1.5612 -0.2904 -0.9392
 9687TIP3    H250477   6.516   6.138  14.440  0.2144 -0.4716  1.3847
 9688TIP3   OH250478   4.066   6.787  12.718  0.5341 -0.2069 -0.3129
 9688TIP3    H150479   4.055   6.692  12.722 -1.9491  0.0763  1.3492
 9688TIP3    H250480   4.019   6.820  12.794  1.0460  2.4060 -1.0382
 9689TIP3   OH250481   6.815   0.137   5.086  0.4647  0.1405 -0.4386
 9689TIP3    H150482   6.815   0.229   5.112 -0.8155  0.1170 -0.3144
 9689TIP3    H250483   6.905   0.108   5.102  0.5188  0.9758  0.9589
 9690TIP3   OH250484   5.392   0.606   1.543 -0.4445  0.0890  0.2716
 9690TIP3    H150485   5.317   0.561   1.505 -1.3285  2.8296 -1.6162
 9690TIP3    H250486   5.460   0.602   1.475  0.0221  0.2444  0.7178
 9691TIP3   OH250487   1.883   4.131  12.321  0.2242  0.4848 -0.0556
 9691TIP3    H150488   1.803   4.131  12.270  1.4943 -0.5437 -2.1761
 9691TIP3    H250489   1.885   4.045  12.363  1.0311 -0.2259 -1.4684
 9692TIP3   OH250490   5.170   2.375  14.918  0.1061 -0.1443 -0.5844
 9692TIP3    H150491   5.107   2.327  14.972  1.6059 -1.8290 -0.2333
 9692TIP3    H250492   5.136   2.464  14.914 -1.7239 -0.7495  0.4592
 9693TIP3   OH250493   4.823   5.650  10.835  0.0222 -0.4021 -0.2545
 9693TIP3    H150494   4.822   5.657  10.931  0.9324 -1.6007 -0.1391
 9693TIP3    H250495   4.804   5.558  10.817 -0.9873 -0.0178 -1.2766
 9694TIP3   OH250496   4.017   4.542   6.426 -0.3313 -0.2036 -0.0922
 9694TIP3    H150497   3.927   4.572   6.431 -0.5127 -0.8053  0.3986
 9694TIP3    H250498   4.013   4.449   6.449  0.5171 -0.0380  0.7927
 9695TIP3   OH250499   3.595   4.805   4.779 -0.0181  0.0678  0.6210
 9695TIP3    H150500   3.653   4.729   4.774 -1.3008 -0.8625 -1.7520
 9695TIP3    H250501   3.540   4.789   4.856 -0.4957 -1.6167 -0.0426
 9696TIP3   OH250502   1.431   2.625   2.309 -0.4341 -0.7487  0.7848
 9696TIP3    H150503   1.513   2.656   2.347  1.3313 -1.3805 -2.1971
 9696TIP3    H250504   1.434   2.530   2.320  3.1395 -1.9492 -5.4429
 9697TIP3   OH250505   4.731   5.243  13.236  0.2954 -0.1568 -0.0456
 9697TIP3    H150506   4.677   5.198  13.171  0.3478  0.9278 -0.8575
 9697TIP3    H250507   4.668   5.278  13.299  0.1983 -0.5220  0.0682
 9698TIP3   OH250508   1.383   4.876  12.760  0.0357 -0.0902  0.1718
 9698TIP3    H150509   1.439   4.889  12.837  1.0897  2.6106 -0.9432
 9698TIP3    H250510   1.296   4.901  12.790  0.1712 -0.3768  0.8310
 9699TIP3   OH250511   4.917   1.778  15.328  0.0064  0.4214  0.4775
 9699TIP3    H150512   5.007   1.807  15.338  0.0365 -0.0321  1.6411
 9699TIP3    H250513   4.917   1.687  15.357 -1.0044  0.6943  1.4064
 9700TIP3   OH250514   1.933   3.642  15.194 -0.0844 -0.5883  0.0793
 9700TIP3    H150515   1.871   3.699  15.238  0.5479 -1.0072  1.5840
 9700TIP3    H250516   1.880   3.569  15.162 -0.6754  0.1259 -0.5979
 9701TIP3   OH250517   1.444   0.538   1.276  0.6518  0.3952 -0.0870
 9701TIP3    H150518   1.383   0.536   1.350  0.3142 -0.9848 -0.3603
 9701TIP3    H250519   1.393   0.575   1.204  0.1782 -0.5423 -0.2554
 9702TIP3   OH250520   5.982   2.890   3.333  0.5236  0.2704 -0.3682
 9702TIP3    H150521   5.940   2.844   3.406 -1.1458  0.7604 -0.9779
 9702TIP3    H250522   6.071   2.907   3.364  0.2223 -0.5734  1.0882
 9703TIP3   OH250523   0.678   0.801   2.105 -0.1471 -0.8157  0.0289
 9703TIP3    H150524   0.587   0.785   2.079 -0.5572 -0.6588  1.2761
 9703TIP3    H250525   0.674   0.809   2.201  1.0612 -0.0243  0.0349
 9704TIP3   OH250526   3.736   5.369   4.545  0.1162  0.0334  0.2598
 9704TIP3    H150527   3.807   5.417   4.589 -0.4219  0.3430  0.8043
 9704TIP3    H250528   3.772   5.348   4.459  0.7316  0.5325  0.3818
 9705TIP3   OH250529   6.111   5.658  12.197 -0.6524  0.2499  0.2435
 9705TIP3    H150530   6.118   5.666  12.293 -0.1031  0.3384  0.2025
 9705TIP3    H250531   6.043   5.593  12.183 -0.8519  0.3563  0.6956
 9706TIP3   OH250532   2.113   1.991  13.600  0.2258  0.3815  0.4706
 9706TIP3    H150533   2.114   2.082  13.570  1.5296 -0.2127 -1.4673
 9706TIP3    H250534   2.030   1.956  13.566  0.4154  0.4464 -0.0590
 9707TIP3   OH250535   6.799   4.784  12.421  0.1974  0.1807  0.6316
 9707TIP3    H150536   6.783   4.874  12.449 -1.6139 -0.0251  0.3921
 9707TIP3    H250537   6.815   4.791  12.327  1.6215  0.3873  0.8686
 9708TIP3   OH250538   4.839   4.459  12.267 -0.2197  0.1666 -0.1898
 9708TIP3    H150539   4.896   4.532  12.289  0.6976 -0.2425 -1.1017
 9708TIP3    H250540   4.751   4.489  12.288  0.3509  0.6410  1.7331
 9709TIP3   OH250541   5.360   4.473   2.544  0.0060 -0.2525  0.3443
 9709TIP3    H150542   5.345   4.384   2.576  0.0982  0.5716  2.8791
 9709TIP3    H250543   5.325   4.530   2.612 -1.4182  1.7168 -1.8851
 9710TIP3   OH250544   4.112   0.054   1.775 -0.3774 -0.0538  0.2697
 9710TIP3    H150545   4.196   0.099   1.785 -0.2465 -0.4182  0.9077
 9710TIP3    H250546   4.047   0.116   1.807 -0.4342  0.4973 -0.8782
 9711TIP3   OH250547   2.607   4.490  10.691 -0.5204 -0.0294 -0.0092
 9711TIP3    H150548   2.593   4.396  10.680 -0.7630 -0.1421  1.1583
 9711TIP3    H250549   2.557   4.513  10.769  0.6619  0.8034  0.5295
 9712TIP3   OH250550   5.615   4.603  13.209  1.0021 -0.2787  0.0929
 9712TIP3    H150551   5.599   4.522  13.161  0.8079 -0.7840  0.9842
 9712TIP3    H250552   5.572   4.590  13.294  2.8287 -0.1408  1.0935
 9713TIP3   OH250553   0.869   5.119  13.928  0.0261 -0.0070 -0.4392
 9713TIP3    H150554   0.783   5.154  13.906  0.6319  1.2075 -1.0065
 9713TIP3    H250555   0.930   5.173  13.878  1.1315 -0.7357  0.0781
 9714TIP3   OH250556   3.452   6.286   0.024  0.4620  0.3096 -0.1178
 9714TIP3    H150557   3.438   6.365   0.078  4.0976  0.1604  1.3621
 9714TIP3    H250558   3.423   6.311  -0.063 -1.4331  2.1673  0.9556
 9715TIP3   OH250559   5.723   4.104  16.981  0.2272  0.0534 -0.4107
 9715TIP3    H150560   5.752   4.142  16.898 -1.0551 -0.1049 -0.9578
 9715TIP3    H250561   5.657   4.165  17.014  1.7797  0.9015  1.2891
 9716TIP3   OH250562   5.433   2.510   3.313  0.1323 -0.3015  0.2178
 9716TIP3    H150563   5.358   2.451   3.306 -0.5628  0.6495 -0.5964
 9716TIP3    H250564   5.508   2.452   3.325 -0.7791 -1.2563  1.5968
 9717TIP3   OH250565   4.002   4.191  13.407  0.0077 -0.6419 -0.0618
 9717TIP3    H150566   4.066   4.138  13.455  1.5814  0.4258 -0.8791
 9717TIP3    H250567   4.021   4.172  13.315  0.3178  0.9620 -0.3571
 9718TIP3   OH250568   0.988   5.277  11.922 -0.3435  0.1840  0.1890
 9718TIP3    H150569   0.914   5.296  11.980 -0.6226  0.7977 -0.3595
 9718TIP3    H250570   0.967   5.192  11.884 -1.4016  0.9161 -0.9253
 9719TIP3   OH250571   1.580   1.492   4.861  0.6196 -0.3482 -0.4171
 9719TIP3    H150572   1.626   1.571   4.890  1.3015 -0.8813  0.0137
 9719TIP3    H250573   1.498   1.492   4.910  0.1596  0.5955 -1.1559
 9720TIP3   OH250574   3.602   1.447  11.348  0.0612  0.8539 -0.2539
 9720TIP3    H150575   3.656   1.514  11.306  2.5755 -0.5347  0.5110
 9720TIP3    H250576   3.573   1.390  11.277 -0.6286  1.7367 -0.7011
 9721TIP3   OH250577   6.102   5.020   2.638 -0.2900 -0.0144  0.5006
 9721TIP3    H150578   6.105   5.073   2.558  0.2087 -1.8866 -0.8002
 9721TIP3    H250579   6.048   5.070   2.699 -0.4766  1.5893 -0.9211
 9722TIP3   OH250580   6.133   4.969   0.925 -0.8804  0.9726  0.3024
 9722TIP3    H150581   6.069   4.898   0.930  1.3081 -1.0619  1.9090
 9722TIP3    H250582   6.156   4.987   1.017  0.8426  1.5793 -0.2027
 9723TIP3   OH250583   3.961   3.907  14.719  0.0789 -0.5171  0.4128
 9723TIP3    H150584   3.972   3.832  14.778  1.2403  0.6040  1.6738
 9723TIP3    H250585   4.040   3.960  14.733  0.7330 -0.5005 -2.6178
 9724TIP3   OH250586   5.876   3.992   4.847 -0.3788  0.1433  0.2746
 9724TIP3    H150587   5.927   3.965   4.770 -3.4063 -0.7510 -1.5893
 9724TIP3    H250588   5.786   3.971   4.824 -2.0032  3.9510  2.3096
 9725TIP3   OH250589   4.978   5.561  12.021  0.0896 -0.4936 -0.2425
 9725TIP3    H150590   5.032   5.482  12.023  1.0302  0.1408  1.0742
 9725TIP3    H250591   5.033   5.626  11.978  0.1628 -0.0061  0.5635
 9726TIP3   OH250592   1.945   1.215   3.962 -0.3108 -0.1626 -0.6889
 9726TIP3    H150593   2.039   1.221   3.945  0.1568  0.2306  1.5836
 9726TIP3    H250594   1.933   1.264   4.044 -2.1776 -1.8606  0.1382
 9727TIP3   OH250595   5.301   2.015   5.825 -0.0724 -0.3761  0.4563
 9727TIP3    H150596   5.391   2.034   5.853  0.5899 -1.7609 -0.5470
 9727TIP3    H250597   5.246   2.057   5.890  1.1895  3.0843 -0.4828
 9728TIP3   OH250598   2.619   0.319   4.051 -0.2913  0.0916  0.0454
 9728TIP3    H150599   2.707   0.354   4.066 -0.0577 -0.4899  0.0696
 9728TIP3    H250600   2.577   0.322   4.136 -0.7004  1.4317 -0.1806
 9729TIP3   OH250601   5.934   1.574   0.467 -0.1169  0.3743 -0.5844
 9729TIP3    H150602   5.848   1.562   0.507 -0.5023  0.3119 -1.4123
 9729TIP3    H250603   5.990   1.510   0.511 -0.4200  0.5989  0.1509
 9730TIP3   OH250604   6.136   0.700   3.883  0.2605 -0.2119  0.3745
 9730TIP3    H150605   6.134   0.648   3.964 -0.2238 -1.1774 -0.2343
 9730TIP3    H250606   6.209   0.664   3.834  0.2961  0.0953  0.2053
 9731TIP3   OH250607   6.128   5.613  11.862 -0.0436 -0.3665 -0.3858
 9731TIP3    H150608   6.155   5.619  11.771 -1.7164  0.5651 -0.8630
 9731TIP3    H250609   6.119   5.703  11.891 -1.4653 -0.6092  0.0545
 9732TIP3   OH250610   4.133   1.024  16.630  0.1928  0.3861  0.1470
 9732TIP3    H150611   4.180   0.992  16.707 -0.2833 -0.0290  0.2684
 9732TIP3    H250612   4.072   0.954  16.608  1.2862 -0.1233 -1.4738
 9733TIP3   OH250613   4.061   3.172   1.892  0.2947  0.2664  0.0480
 9733TIP3    H150614   3.973   3.144   1.918  0.8239 -1.4836  0.0266
 9733TIP3    H250615   4.053   3.267   1.882 -0.9597  0.5013  2.5290
 9734TIP3   OH250616   4.564   5.170   2.337  0.1600  0.1218  0.1572
 9734TIP3    H150617   4.518   5.160   2.421 -0.6329  2.2597  0.0381
 9734TIP3    H250618   4.599   5.259   2.340  0.0126  0.2826 -1.8315
 9735TIP3   OH250619   3.960   3.737  13.499 -0.6188  1.0641  0.6328
 9735TIP3    H150620   3.993   3.796  13.568 -0.4091  1.7428 -0.0330
 9735TIP3    H250621   4.017   3.660  13.505  0.5607  1.8588  0.0661
 9736TIP3   OH250622   4.051   3.768   1.773 -0.1063  0.1121 -0.1450
 9736TIP3    H150623   4.036   3.711   1.697  1.2830  0.6031 -0.8235
 9736TIP3    H250624   3.964   3.788   1.806 -0.7155 -0.4787 -1.3430
 9737TIP3   OH250625   4.453   0.572   1.529  0.1427 -0.4211  0.1577
 9737TIP3    H150626   4.487   0.603   1.613  0.2081  0.1679 -0.0813
 9737TIP3    H250627   4.407   0.490   1.550 -4.7336  2.3289  1.8223
 9738TIP3   OH250628   6.146   1.527   0.171 -0.3163  0.1299 -0.1529
 9738TIP3    H150629   6.185   1.521   0.084  2.4284  0.2551  0.9798
 9738TIP3    H250630   6.162   1.617   0.200 -0.7597 -0.0390  0.6698
 9739TIP3   OH250631   3.800   2.773   5.973  0.4246 -0.0697 -0.2416
 9739TIP3    H150632   3.882   2.821   5.984  1.3027 -1.5491 -0.0903
 9739TIP3    H250633   3.738   2.839   5.943  1.4859  1.2234  0.3012
 9740TIP3   OH250634   5.955   5.346   2.655 -0.4145 -0.2453  0.1698
 9740TIP3    H150635   5.947   5.278   2.722 -0.6167 -0.7032 -0.3156
 9740TIP3    H250636   6.033   5.322   2.606 -0.6594 -0.3008 -0.1951
 9741TIP3   OH250637   6.453   3.713   1.836  0.3743 -0.0734 -0.1430
 9741TIP3    H150638   6.396   3.729   1.911 -0.6736 -1.7812 -0.5337
 9741TIP3    H250639   6.500   3.796   1.824 -0.0374  0.4993  1.8534
 9742TIP3   OH250640   6.085   6.637  11.269 -0.5046  0.1857  0.4367
 9742TIP3    H150641   6.134   6.686  11.203  1.4752  0.8941  2.2960
 9742TIP3    H250642   6.034   6.704  11.315  0.0919  0.1191  1.2187
 9743TIP3   OH250643   4.554   3.525   6.247  0.7750  0.2345 -0.3923
 9743TIP3    H150644   4.513   3.487   6.324  0.3102 -0.6259 -1.0525
 9743TIP3    H250645   4.642   3.488   6.246  0.7973  0.2835 -0.2459
 9744TIP3   OH250646   2.031   3.014  14.391  0.6524  0.0340  0.2684
 9744TIP3    H150647   2.092   3.045  14.324  0.7640 -1.2588 -0.2718
 9744TIP3    H250648   2.013   2.923  14.365 -3.9329  1.1661 -1.4158
 9745TIP3   OH250649   6.469   4.565  16.839  0.1851  0.3597 -0.2605
 9745TIP3    H150650   6.396   4.613  16.800 -0.5449  1.3633  2.1694
 9745TIP3    H250651   6.545   4.592  16.787 -0.5673  2.4343 -0.3675
 9746TIP3   OH250652   5.628   1.243  11.416 -0.4578 -0.5900  0.6125
 9746TIP3    H150653   5.683   1.212  11.343 -0.1922  1.1611  0.0164
 9746TIP3    H250654   5.544   1.199  11.403 -0.5478 -0.0012 -1.0212
 9747TIP3   OH250655   5.928   3.728   5.669 -0.3227  0.1201 -0.6934
 9747TIP3    H150656   5.875   3.798   5.706  0.0343 -0.4210  0.9620
 9747TIP3    H250657   6.004   3.722   5.727 -1.1830 -2.7595  0.3276
 9748TIP3   OH250658   0.342   0.717  11.233 -0.2365 -0.2023  0.2859
 9748TIP3    H150659   0.286   0.642  11.213  0.8742 -0.9905  0.0798
 9748TIP3    H250660   0.406   0.684  11.296  1.5603 -0.0268 -1.3638
 9749TIP3   OH250661   0.346   1.672  15.749 -0.3364 -0.1685  0.0464
 9749TIP3    H150662   0.326   1.649  15.840 -1.1377 -0.3848 -0.1790
 9749TIP3    H250663   0.374   1.763  15.753  0.7829 -0.5230  0.6656
 9750TIP3   OH250664   5.436   1.475  12.219  0.1976  0.0077  0.0163
 9750TIP3    H150665   5.420   1.563  12.254  2.5635  0.6782 -0.3855
 9750TIP3    H250666   5.499   1.489  12.148 -0.2017 -1.9286 -0.7746
 9751TIP3   OH250667   1.215   5.202  14.939  0.0336 -0.0015 -0.3037
 9751TIP3    H150668   1.291   5.210  14.880  0.4783  3.0296  0.5254
 9751TIP3    H250669   1.167   5.127  14.905  0.8743  0.8617 -3.8293
 9752TIP3   OH250670   5.915   0.118   0.695  0.2773  0.1245 -1.0438
 9752TIP3    H150671   5.876   0.056   0.757  0.7814  1.5675  0.8222
 9752TIP3    H250672   6.009   0.097   0.697  0.3055  0.2289 -1.2684
 9753TIP3   OH250673   6.669   5.023   0.569  0.4533  0.3687 -0.0905
 9753TIP3    H150674   6.662   5.119   0.572  0.5974  0.3577  0.6405
 9753TIP3    H250675   6.708   4.999   0.653  1.3091 -0.2530 -0.6486
 9754TIP3   OH250676   1.143   0.346  13.480  0.0332 -0.3477 -0.4782
 9754TIP3    H150677   1.194   0.393  13.546  0.2875 -0.0077 -0.9113
 9754TIP3    H250678   1.058   0.332  13.521 -0.0535  0.5126 -0.3563
 9755TIP3   OH250679   5.156   6.370   3.935  1.0606 -0.1007 -0.0579
 9755TIP3    H150680   5.225   6.432   3.913  1.0828 -0.6934 -1.7628
 9755TIP3    H250681   5.147   6.315   3.858  0.3585 -1.6095  1.0395
 9756TIP3   OH250682   1.054   5.929  15.534  0.1023 -0.0689  0.6699
 9756TIP3    H150683   1.140   5.892  15.515 -0.3012 -1.0428  0.7192
 9756TIP3    H250684   1.068   6.024  15.531  0.6070 -0.1676 -1.8928
 9757TIP3   OH250685   1.876   6.283   1.520  0.2728 -0.1873  0.0859
 9757TIP3    H150686   1.847   6.337   1.594 -0.6351 -1.0259  0.3612
 9757TIP3    H250687   1.796   6.267   1.470  1.0133  1.0640 -1.5631
 9758TIP3   OH250688   4.340   5.955   3.676  0.4649  0.0324  0.0505
 9758TIP3    H150689   4.426   5.996   3.690  1.0724 -1.6537  1.6861
 9758TIP3    H250690   4.347   5.915   3.589  1.2042  0.2716 -0.0130
 9759TIP3   OH250691   4.564   6.509   0.420 -0.4396 -0.6324  0.2880
 9759TIP3    H150692   4.637   6.467   0.375 -0.5527  0.4716 -0.9616
 9759TIP3    H250693   4.603   6.582   0.468 -0.4385 -1.3073  1.3487
 9760TIP3   OH250694   5.467   3.696   3.767  0.1286 -0.9995  0.2033
 9760TIP3    H150695   5.522   3.618   3.781  1.1043 -0.2026  0.9448
 9760TIP3    H250696   5.529   3.766   3.747 -0.8330 -0.6826 -1.8485
 9761TIP3   OH250697   3.016   1.092   0.593  0.2357 -0.1692  0.3637
 9761TIP3    H150698   2.937   1.146   0.597  0.5645  0.3192  0.4280
 9761TIP3    H250699   3.076   1.134   0.654  0.2380 -1.0540  0.9711
 9762TIP3   OH250700   2.498   0.415  15.285  0.3948 -0.3422  0.4233
 9762TIP3    H150701   2.423   0.389  15.338  0.4025  0.5654  0.8994
 9762TIP3    H250702   2.571   0.362  15.320  0.5177  0.6282  1.7107
 9763TIP3   OH250703   3.238   2.823  14.358 -0.1080 -0.0395 -0.1245
 9763TIP3    H150704   3.229   2.894  14.295  1.9249 -0.6392 -1.2021
 9763TIP3    H250705   3.201   2.857  14.439 -1.5443  1.2637 -1.2753
 9764TIP3   OH250706   3.837   1.006  16.951 -0.1740  0.2880 -0.2178
 9764TIP3    H150707   3.763   0.996  16.891 -2.3138 -0.1222  2.2673
 9764TIP3    H250708   3.878   1.088  16.925 -2.3454  1.2309 -0.9396
 9765TIP3   OH250709   0.064   0.389  16.084  0.2962  0.0817  0.0533
 9765TIP3    H150710   0.040   0.458  16.022  0.9925  0.1953 -0.1035
 9765TIP3    H250711   0.135   0.427  16.136  0.2634 -0.2983  0.3863
 9766TIP3   OH250712   5.596   1.230   4.456  0.3865 -0.0217 -0.1440
 9766TIP3    H150713   5.540   1.156   4.433 -1.9018  1.1482  1.3079
 9766TIP3    H250714   5.573   1.298   4.392  2.1271 -0.3398 -1.1774
 9767TIP3   OH250715   6.495   4.449  12.957  0.2642  0.9575  0.2520
 9767TIP3    H150716   6.478   4.447  12.862  1.6844  0.8698 -0.0263
 9767TIP3    H250717   6.466   4.364  12.989  3.3295 -0.6634 -0.8193
 9768TIP3   OH250718   6.797   2.229   0.157  0.1991  0.5970 -0.0766
 9768TIP3    H150719   6.851   2.281   0.097 -0.3807  0.5550 -0.6421
 9768TIP3    H250720   6.846   2.147   0.168  0.6167  0.8559  0.0168
 9769TIP3   OH250721   5.233   6.558  12.488 -0.4067  0.2168  0.3855
 9769TIP3    H150722   5.313   6.535  12.536  0.1182  1.5098  0.1768
 9769TIP3    H250723   5.260   6.629  12.429 -1.1341 -1.0375 -1.5377
 9770TIP3   OH250724   6.788   2.938  13.440  0.0423 -0.4870 -0.0005
 9770TIP3    H150725   6.747   2.966  13.358  0.9189 -0.6139 -0.4947
 9770TIP3    H250726   6.731   2.974  13.508 -0.8361 -0.5861 -0.6568
 9771TIP3   OH250727   6.170   6.395  15.596 -0.2796 -0.4133 -0.6639
 9771TIP3    H150728   6.131   6.365  15.678  0.2867 -3.2247 -1.3042
 9771TIP3    H250729   6.107   6.369  15.528  0.3238 -0.3114 -1.2779
 9772TIP3   OH250730   4.899   5.292  14.982  0.0111  0.1146  0.0555
 9772TIP3    H150731   4.821   5.286  14.927  0.0220 -0.6997  0.1212
 9772TIP3    H250732   4.865   5.308  15.070 -0.1456 -1.1596  0.2471
 9773TIP3   OH250733   6.367   2.208  11.807  0.4230 -0.0862  0.7037
 9773TIP3    H150734   6.398   2.296  11.782 -0.7034  0.3446  0.7728
 9773TIP3    H250735   6.363   2.160  11.724 -0.6880  0.4989  0.3992
 9774TIP3   OH250736   5.789   2.118   1.177 -0.4290  0.7941  0.1549
 9774TIP3    H150737   5.881   2.140   1.160 -0.1384 -0.4514  0.0574
 9774TIP3    H250738   5.757   2.190   1.231  0.5260  1.3850 -0.0458
 9775TIP3   OH250739   4.723   1.275   0.602  0.4814  0.3273  0.0054
 9775TIP3    H150740   4.696   1.191   0.639  0.3299 -0.5103 -1.8814
 9775TIP3    H250741   4.650   1.334   0.620 -0.6013 -0.6727 -0.9663
 9776TIP3   OH250742   3.276   2.633   2.675 -0.8118 -0.2205  0.4646
 9776TIP3    H150743   3.361   2.590   2.682 -0.9274 -0.3779  1.0290
 9776TIP3    H250744   3.254   2.629   2.582 -2.0619 -3.8888  0.7285
 9777TIP3   OH250745   3.880   1.410   0.995 -0.4442  0.3209  0.3925
 9777TIP3    H150746   3.931   1.481   1.034  0.3055 -1.0057  1.9444
 9777TIP3    H250747   3.883   1.340   1.060 -1.2656 -1.1013 -1.0315
 9778TIP3   OH250748   4.461   2.574   2.949  0.2992 -0.5966  0.1504
 9778TIP3    H150749   4.531   2.639   2.934  0.2923 -0.8591 -1.0558
 9778TIP3    H250750   4.466   2.556   3.043 -1.0301  2.6712  0.9875
 9779TIP3   OH250751   0.572   3.796  12.374  0.2839 -0.5057 -0.2245
 9779TIP3    H150752   0.621   3.752  12.304  0.2652 -1.3853  0.3061
 9779TIP3    H250753   0.483   3.764  12.364 -0.9463  3.1555 -2.9381
 9780TIP3   OH250754   3.907   5.492  12.636 -0.3394  0.2751  0.3751
 9780TIP3    H150755   3.830   5.436  12.646 -2.7437  3.3976  0.8279
 9780TIP3    H250756   3.955   5.482  12.719 -1.8455  0.4554  1.2912
 9781TIP3   OH250757   4.535   2.752  10.289  0.4166  0.3321  0.4451
 9781TIP3    H150758   4.533   2.669  10.338 -0.5310 -0.0981 -0.2875
 9781TIP3    H250759   4.464   2.744  10.225 -0.3244  2.1083  0.9837
 9782TIP3   OH250760   4.955   1.295  16.706 -0.6099  0.0156 -0.8676
 9782TIP3    H150761   5.047   1.320  16.704 -1.0324  1.7825 -0.0726
 9782TIP3    H250762   4.951   1.211  16.658  1.4933 -0.4645 -0.2743
 9783TIP3   OH250763   1.118   2.769   4.559 -0.2041  0.0261  0.4853
 9783TIP3    H150764   1.149   2.754   4.470  1.0535  0.1291  0.8869
 9783TIP3    H250765   1.149   2.694   4.609  2.1298  1.5609  1.5349
 9784TIP3   OH250766   5.356   4.794   0.904 -0.5012 -0.3594  0.0547
 9784TIP3    H150767   5.273   4.834   0.878 -1.2928 -1.3710  0.9445
 9784TIP3    H250768   5.370   4.823   0.994  0.2500 -0.0026 -0.1628
 9785TIP3   OH250769   5.224   6.104  13.601 -0.1681 -0.2661  0.5195
 9785TIP3    H150770   5.263   6.166  13.662 -0.6088 -0.1276  0.6664
 9785TIP3    H250771   5.294   6.082  13.541 -0.1138  0.6944  0.2148
 9786TIP3   OH250772   0.097   6.326  11.441 -0.0403  0.3285  0.2124
 9786TIP3    H150773   0.092   6.270  11.364 -0.1647  0.7415 -0.0770
 9786TIP3    H250774   0.105   6.264  11.514  2.7816 -0.0775 -0.3066
 9787TIP3   OH250775   6.619   0.972   1.321 -0.5184  0.2275  0.0866
 9787TIP3    H150776   6.537   1.006   1.287  0.2526  0.0790 -2.1227
 9787TIP3    H250777   6.600   0.881   1.344 -1.1809  0.4655  0.4931
 9788TIP3   OH250778   5.228   2.864   3.553 -0.2642 -0.5507  0.4650
 9788TIP3    H150779   5.215   2.792   3.491  1.3388 -0.0746 -0.4965
 9788TIP3    H250780   5.186   2.939   3.511  0.7203 -0.2557 -0.0428
 9789TIP3   OH250781   1.296   3.895  15.901  0.0639 -0.0735  0.4084
 9789TIP3    H150782   1.387   3.894  15.929 -0.0075  0.6994  0.6813
 9789TIP3    H250783   1.284   3.980  15.859  0.2382 -1.2522 -2.2464
 9790TIP3   OH250784   6.326   4.236   1.991  0.4386 -0.2240  0.2525
 9790TIP3    H150785   6.329   4.332   1.996  0.0781 -0.2717  1.9385
 9790TIP3    H250786   6.232   4.215   1.994  0.3943 -0.5998 -1.9514
 9791TIP3   OH250787   0.123   1.349  13.403 -0.2509 -0.2687 -0.2572
 9791TIP3    H150788   0.210   1.387  13.390 -0.1143 -0.6894 -0.6094
 9791TIP3    H250789   0.062   1.414  13.367 -0.1672  0.4937  0.9137
 9792TIP3   OH250790   5.991   6.742  13.204  0.9900 -0.0468 -0.3253
 9792TIP3    H150791   5.995   6.809  13.272  2.0402 -1.1390  0.7346
 9792TIP3    H250792   6.075   6.697  13.209  0.5408 -1.0738 -1.4102
 9793TIP3   OH250793   0.293   0.497  12.969 -0.1459  0.1291 -0.1822
 9793TIP3    H150794   0.379   0.519  12.933 -1.1051  3.5712 -0.7142
 9793TIP3    H250795   0.244   0.464  12.893 -0.4772  2.0946 -0.8735
 9794TIP3   OH250796   2.821   5.048  13.829  0.1055 -0.3382  0.3124
 9794TIP3    H150797   2.792   5.068  13.740 -0.3457  1.7398  0.8630
 9794TIP3    H250798   2.742   5.022  13.875  0.3695 -1.5925  0.0881
 9795TIP3   OH250799   1.746   4.761   3.236  0.1641  0.1220 -0.7240
 9795TIP3    H150800   1.674   4.818   3.263 -1.7656 -1.1730 -2.7102
 9795TIP3    H250801   1.803   4.756   3.312 -0.6432  3.0063  0.1939
 9796TIP3   OH250802   0.395   2.416   4.886  0.7470  0.0170 -0.6977
 9796TIP3    H150803   0.384   2.425   4.791 -2.6404  0.3719 -0.4109
 9796TIP3    H250804   0.387   2.322   4.902 -1.3361  0.1470 -0.6402
 9797TIP3   OH250805   5.884   4.786  12.338  0.5309  0.0770  0.3122
 9797TIP3    H150806   5.923   4.833  12.411  0.9328  0.3137 -0.0482
 9797TIP3    H250807   5.949   4.720  12.314  0.1050 -0.4637  0.6092
 9798TIP3   OH250808   6.709   6.384  13.724  0.5813 -0.6088  0.2198
 9798TIP3    H150809   6.723   6.298  13.763  1.2477 -0.1151  1.1310
 9798TIP3    H250810   6.770   6.441  13.771 -0.1118  0.4294 -0.1063
 9799TIP3   OH250811   3.996   4.612   0.695 -0.0766  0.2021  0.2913
 9799TIP3    H150812   3.948   4.689   0.727  0.6114 -0.4593  3.1533
 9799TIP3    H250813   4.084   4.644   0.678 -0.0369  0.2469  0.5750
 9800TIP3   OH250814   2.390   6.460   1.318  0.2350 -0.5159 -0.4313
 9800TIP3    H150815   2.462   6.478   1.257 -1.8722  1.4417 -2.5703
 9800TIP3    H250816   2.401   6.524   1.388  0.5242 -0.1552 -0.7984
 9801TIP3   OH250817   0.031   6.691   5.762  0.0747  0.9677 -0.6661
 9801TIP3    H150818  -0.019   6.620   5.803  1.1322 -0.2882 -1.4313
 9801TIP3    H250819   0.022   6.675   5.668  0.9102  1.4082 -0.8324
 9802TIP3   OH250820   2.085   2.459   1.258 -0.3265  0.3361 -0.5808
 9802TIP3    H150821   2.075   2.405   1.179  1.7518 -3.4241  1.4100
 9802TIP3    H250822   2.022   2.422   1.320  1.3375 -0.1265  0.9361
 9803TIP3   OH250823   6.584   2.715  12.842 -0.0292 -0.2385  0.0095
 9803TIP3    H150824   6.626   2.740  12.924  0.7934 -2.3396  0.2926
 9803TIP3    H250825   6.512   2.658  12.868  0.1985 -0.8734 -0.7175
 9804TIP3   OH250826   0.219   2.244   4.399  0.1652 -0.1775  0.2116
 9804TIP3    H150827   0.289   2.258   4.335  0.5275  0.3360  0.7080
 9804TIP3    H250828   0.157   2.186   4.355  0.1553  0.5719 -0.7890
 9805TIP3   OH250829   4.945   1.336   4.623  0.1741  0.8127  0.1391
 9805TIP3    H150830   5.011   1.302   4.683  1.1166 -2.3543 -2.3712
 9805TIP3    H250831   4.965   1.429   4.616  1.5876  0.7988  2.7230
 9806TIP3   OH250832   3.432   4.699  15.826  0.0365  0.2560  0.0371
 9806TIP3    H150833   3.342   4.677  15.803  0.5610 -0.8453 -1.0460
 9806TIP3    H250834   3.424   4.781  15.876 -1.5690  0.0640  0.1678
 9807TIP3   OH250835   5.793   2.341  14.039  0.1631  0.6331 -0.0732
 9807TIP3    H150836   5.709   2.334  14.083  0.0039 -0.6329 -0.5460
 9807TIP3    H250837   5.850   2.384  14.102 -0.3652 -0.1187  0.9395
 9808TIP3   OH250838   3.333   6.163   3.181  0.4192  0.2021  0.0604
 9808TIP3    H150839   3.324   6.257   3.163  0.3273  0.2119  0.1583
 9808TIP3    H250840   3.246   6.126   3.164 -0.5883  0.6884  3.3929
 9809TIP3   OH250841   4.384   0.692  13.529 -0.4265 -0.6081  0.0802
 9809TIP3    H150842   4.309   0.659  13.480 -0.6959 -1.5878  1.1123
 9809TIP3    H250843   4.413   0.618  13.582  0.1850  0.2546  0.9921
 9810TIP3   OH250844   5.507   1.609   5.040 -0.0493  0.4308  0.2257
 9810TIP3    H150845   5.578   1.588   5.100  0.5138 -0.0254 -0.5836
 9810TIP3    H250846   5.431   1.563   5.075  0.0775  0.8034  1.0119
 9811TIP3   OH250847   5.597   4.683  13.689  0.1256 -0.0385 -0.0859
 9811TIP3    H150848   5.507   4.666  13.662  0.2974 -0.5593 -0.3330
 9811TIP3    H250849   5.609   4.628  13.767  0.1198  0.3029  0.1612
 9812TIP3   OH250850   2.404   4.835  12.240 -0.0020  0.5966 -0.0768
 9812TIP3    H150851   2.413   4.816  12.334  1.2714  1.4739  0.0005
 9812TIP3    H250852   2.330   4.894  12.235  0.5131  1.3080  0.5029
 9813TIP3   OH250853   3.223   1.356   4.614  0.0630  0.5534  0.4332
 9813TIP3    H150854   3.225   1.376   4.520  0.9952 -0.9357  0.1144
 9813TIP3    H250855   3.131   1.336   4.632  0.3497 -2.5147 -0.9549
 9814TIP3   OH250856   3.692   3.955  14.041 -0.3465 -0.3710  0.3093
 9814TIP3    H150857   3.670   3.982  13.952 -0.9774  2.9273  1.3278
 9814TIP3    H250858   3.778   3.993  14.057 -0.0707 -1.2576  1.0032
 9815TIP3   OH250859   3.142   4.021   3.185  0.7568 -0.1108  0.0977
 9815TIP3    H150860   3.085   4.002   3.111 -0.0423 -2.2667  1.2049
 9815TIP3    H250861   3.225   3.981   3.162  0.7376 -0.1330  0.0672
 9816TIP3   OH250862   2.788   1.188  10.970 -0.3793  0.0848 -0.5910
 9816TIP3    H150863   2.871   1.156  10.932 -0.6718 -1.6919  0.1517
 9816TIP3    H250864   2.762   1.119  11.031 -0.7310  2.1258  1.6824
 9817TIP3   OH250865   3.140   4.186   4.241  0.4929  0.1605 -0.1154
 9817TIP3    H150866   3.097   4.226   4.165 -0.5290  0.5344  0.6318
 9817TIP3    H250867   3.070   4.179   4.306  1.8872  2.2223  1.7153
 9818TIP3   OH250868   3.252   3.156   1.539  0.0337  0.3390 -0.0214
 9818TIP3    H150869   3.256   3.105   1.458 -1.3999 -0.3028  0.2858
 9818TIP3    H250870   3.319   3.118   1.595 -1.2281 -1.5122  0.3322
 9819TIP3   OH250871   1.919   2.526   2.355  0.5283 -0.0071 -0.1650
 9819TIP3    H150872   1.932   2.573   2.273  1.2280 -1.0373 -0.6565
 9819TIP3    H250873   1.830   2.491   2.348  0.2785  0.6035 -0.1144
 9820TIP3   OH250874   5.161   0.822  16.428  0.3355 -0.3745 -0.1800
 9820TIP3    H150875   5.171   0.896  16.368 -1.5881 -1.1608 -1.5700
 9820TIP3    H250876   5.091   0.849  16.487  1.0348 -0.3084  0.6427
 9821TIP3   OH250877   0.766   5.143   4.305 -0.3451 -0.0676  0.2592
 9821TIP3    H150878   0.676   5.175   4.310  0.0261  0.9969  0.4263
 9821TIP3    H250879   0.760   5.050   4.329 -1.0874  0.5310  2.6798
 9822TIP3   OH250880   4.539   5.977   4.301 -0.0198 -0.2030  0.8249
 9822TIP3    H150881   4.565   6.033   4.228  0.5305 -1.5804 -0.0877
 9822TIP3    H250882   4.443   5.981   4.301 -0.1929 -1.8155 -1.4312
 9823TIP3   OH250883   4.781   2.841   1.891  0.6369  0.5615 -0.0569
 9823TIP3    H150884   4.806   2.880   1.975  0.0136  0.2171  0.2986
 9823TIP3    H250885   4.711   2.780   1.913  0.1037  0.8475 -0.9023
 9824TIP3   OH250886   2.450   6.644   1.503  0.0420 -0.2613 -0.3379
 9824TIP3    H150887   2.455   6.636   1.598  1.1811  0.3967 -0.3409
 9824TIP3    H250888   2.402   6.726   1.488 -0.5120 -0.5764 -0.3484
 9825TIP3   OH250889   4.027   1.039  15.499  0.2808  0.0389  0.4255
 9825TIP3    H150890   3.965   0.968  15.520  2.1748 -1.4803  1.1874
 9825TIP3    H250891   3.992   1.115  15.546 -0.3676 -1.0768  1.8351
 9826TIP3   OH250892   2.271   3.608   1.325 -0.4372  0.4334  0.4397
 9826TIP3    H150893   2.204   3.579   1.386 -2.9024 -0.4709 -2.4331
 9826TIP3    H250894   2.341   3.543   1.334 -1.3756 -0.5014  1.2741
 9827TIP3   OH250895   3.904   3.673   2.831  0.3460  0.1208  0.2738
 9827TIP3    H150896   3.915   3.765   2.851 -0.5801  0.4362 -0.5914
 9827TIP3    H250897   3.956   3.659   2.751 -0.4519  0.1804 -0.2679
 9828TIP3   OH250898   4.280   3.622  13.151 -0.1458 -0.2128 -0.2533
 9828TIP3    H150899   4.287   3.643  13.058  1.2619  0.8443  0.0558
 9828TIP3    H250900   4.333   3.689  13.195 -2.1265  0.3534  1.4529
 9829TIP3   OH250901   6.040   6.400   2.681 -0.1165 -0.6510 -0.1851
 9829TIP3    H150902   5.947   6.387   2.661 -0.4771  0.3798  0.7194
 9829TIP3    H250903   6.044   6.395   2.777  1.4173 -4.6472 -0.2816
 9830TIP3   OH250904   4.937   5.330   5.043 -0.3263 -0.0480  0.0510
 9830TIP3    H150905   4.984   5.413   5.047  0.1260 -0.0432 -3.0853
 9830TIP3    H250906   4.848   5.353   5.017 -0.3209 -0.4977 -0.3872
 9831TIP3   OH250907   1.090   2.686   3.610 -0.1757  0.5467  0.5199
 9831TIP3    H150908   1.184   2.668   3.619  0.0716  1.1406 -0.6715
 9831TIP3    H250909   1.059   2.695   3.700  0.9788  0.6556  0.9244
 9832TIP3   OH250910   1.598   3.692   2.476  0.2543  0.4089  0.2676
 9832TIP3    H150911   1.546   3.612   2.477  0.6683  0.0723 -1.3044
 9832TIP3    H250912   1.539   3.761   2.507 -0.3356 -0.3681  0.9013
 9833TIP3   OH250913   0.500   2.289  16.242 -0.2077 -0.6731 -0.3848
 9833TIP3    H150914   0.406   2.296  16.258 -0.4025 -1.4256 -1.0948
 9833TIP3    H250915   0.536   2.253  16.323 -0.4919 -0.1628 -0.0252
 9834TIP3   OH250916   1.609   3.132   0.039  0.0390 -0.8606  0.0517
 9834TIP3    H150917   1.699   3.128   0.072 -0.3478 -0.9961  1.1027
 9834TIP3    H250918   1.602   3.220   0.001  0.6582 -0.9050 -0.1868
 9835TIP3   OH250919   2.872   3.953  12.862  0.0370 -0.5155 -0.2259
 9835TIP3    H150920   2.819   3.881  12.828  0.9041 -1.1277 -0.3091
 9835TIP3    H250921   2.878   4.016  12.790  0.9032 -1.2722 -0.8267
 9836TIP3   OH250922   2.780   4.519  16.876 -0.0740  0.0200  0.4258
 9836TIP3    H150923   2.724   4.583  16.831 -3.6781 -0.9890  3.0289
 9836TIP3    H250924   2.824   4.570  16.944  1.3975  0.6083 -0.9051
 9837TIP3   OH250925   0.573   5.584   1.429  0.0785  0.5218 -0.1406
 9837TIP3    H150926   0.667   5.571   1.444  0.0818 -0.7772 -1.1117
 9837TIP3    H250927   0.556   5.672   1.462  1.2491  0.0978  1.7683
 9838TIP3   OH250928   5.359   6.032  15.596 -0.0971  0.1940  0.2113
 9838TIP3    H150929   5.310   6.043  15.515  1.4870 -2.3497 -1.2106
 9838TIP3    H250930   5.360   5.937  15.611  1.8721  0.3908  1.7638
 9839TIP3   OH250931   3.705   5.858   3.445 -0.1232 -0.1805  0.3487
 9839TIP3    H150932   3.751   5.793   3.392  0.0673 -0.4041  0.7924
 9839TIP3    H250933   3.743   5.942   3.418 -0.3202 -0.2503 -0.1714
 9840TIP3   OH250934   4.111   0.529   3.070  0.2891 -0.6829  0.1384
 9840TIP3    H150935   4.156   0.446   3.082 -1.3648 -1.9517 -1.7718
 9840TIP3    H250936   4.091   0.559   3.159 -0.4585 -3.1432  0.8849
 9841TIP3   OH250937   0.408   2.321   0.430 -0.7286  0.5307  0.6606
 9841TIP3    H150938   0.477   2.387   0.422  0.6916 -1.0414 -1.0326
 9841TIP3    H250939   0.396   2.288   0.341 -3.7862  0.7944  0.8744
 9842TIP3   OH250940   4.647   6.214  14.293 -0.1933 -0.5828 -0.5170
 9842TIP3    H150941   4.689   6.143  14.243  0.8984  0.3282 -0.9529
 9842TIP3    H250942   4.714   6.242  14.355 -1.1716 -0.9702  0.7408
 9843TIP3   OH250943   1.961   3.444  16.721  0.9227 -0.3776 -0.2869
 9843TIP3    H150944   1.911   3.439  16.803  0.7331 -1.9824 -0.4686
 9843TIP3    H250945   2.040   3.393  16.738  0.4694 -1.4977 -1.3597
 9844TIP3   OH250946   1.883   2.087  13.877  0.0997 -0.2053 -0.4706
 9844TIP3    H150947   1.819   2.038  13.826 -0.1749  0.5301 -0.8537
 9844TIP3    H250948   1.922   2.022  13.936 -1.6457 -0.5030  0.4254
 9845TIP3   OH250949   4.131   5.860  13.248  0.3283  0.1044 -0.2499
 9845TIP3    H150950   4.134   5.814  13.164 -0.7773  0.0075 -0.2545
 9845TIP3    H250951   4.078   5.803  13.304 -1.4168  1.5046 -0.3721
 9846TIP3   OH250952   4.975   6.212  10.781 -0.1337 -0.0848 -0.1524
 9846TIP3    H150953   5.019   6.284  10.736 -0.4777 -0.4985 -1.1913
 9846TIP3    H250954   4.951   6.247  10.866  0.7136  0.6690 -0.2102
 9847TIP3   OH250955   2.385   1.477  11.715  0.3579 -0.4360  0.4428
 9847TIP3    H150956   2.428   1.406  11.763  1.8725 -1.0096 -1.6326
 9847TIP3    H250957   2.390   1.450  11.623 -0.7584  1.4770 -0.2254
 9848TIP3   OH250958   0.168   0.255  15.321 -0.4547  0.5014  0.3393
 9848TIP3    H150959   0.169   0.350  15.306 -0.3009  0.2824 -1.2006
 9848TIP3    H250960   0.245   0.239  15.375  1.6394  0.8623 -2.3410
 9849TIP3   OH250961   5.484   1.147  16.973 -0.5166 -0.5143 -0.3312
 9849TIP3    H150962   5.530   1.230  16.985 -3.3979  1.6104 -2.4155
 9849TIP3    H250963   5.547   1.091  16.927  1.5037  0.4787  1.1209
 9850TIP3   OH250964   1.593   0.476   3.426 -0.2958 -0.3445 -0.0870
 9850TIP3    H150965   1.544   0.417   3.484  1.1285 -0.9722  0.5356
 9850TIP3    H250966   1.674   0.428   3.406  0.2463  0.8131 -0.7518
 9851TIP3   OH250967   4.473   1.139  15.508  0.5064  0.0404  0.3172
 9851TIP3    H150968   4.553   1.187  15.530  1.0895 -1.4331  1.5676
 9851TIP3    H250969   4.472   1.066  15.569 -1.9396  0.1580  0.4845
 9852TIP3   OH250970   2.274   1.546   1.088 -0.1321  0.6809  0.1408
 9852TIP3    H150971   2.360   1.564   1.126  0.2172  0.8301 -0.6965
 9852TIP3    H250972   2.233   1.485   1.149  0.8884 -0.0271  0.1448
 9853TIP3   OH250973   1.954   6.827   2.545 -0.0019  0.1339 -0.0190
 9853TIP3    H150974   2.021   6.865   2.602 -0.3674  1.3383 -0.3591
 9853TIP3    H250975   1.966   6.871   2.461 -2.1285  1.5134  0.3173
 9854TIP3   OH250976   4.289   5.136  16.687 -0.3036  0.3193 -0.0636
 9854TIP3    H150977   4.284   5.230  16.705  0.1871  0.1473  1.0661
 9854TIP3    H250978   4.259   5.127  16.597 -1.6820  1.4018  0.2597
 9855TIP3   OH250979   0.509   3.229   4.875 -0.3180  0.6254  1.0167
 9855TIP3    H150980   0.576   3.297   4.877 -0.1941  0.5901 -0.6579
 9855TIP3    H250981   0.431   3.271   4.911 -0.2008  1.6222  0.1612
 9856TIP3   OH250982   2.736   5.064  11.813 -0.6623 -0.2034  0.4707
 9856TIP3    H150983   2.672   4.993  11.813 -0.5472 -0.3100 -0.3274
 9856TIP3    H250984   2.799   5.040  11.881 -1.8953  0.3115  1.8501
 9857TIP3   OH250985   3.531   3.914  14.993 -0.2164  0.2588  0.9003
 9857TIP3    H150986   3.527   3.986  15.055 -3.9982  0.8743  0.2205
 9857TIP3    H250987   3.473   3.847  15.030  0.0028 -0.7118 -0.4236
 9858TIP3   OH250988   0.650   1.901   5.197  0.3613  0.3890  0.9934
 9858TIP3    H150989   0.626   1.920   5.288  0.1142  1.1367  0.7745
 9858TIP3    H250990   0.595   1.958   5.144  2.1248  1.6763  0.4525
 9859TIP3   OH250991   3.759   1.849  13.319  0.0607 -0.0419 -0.5282
 9859TIP3    H150992   3.783   1.855  13.226  0.1969 -1.2932 -0.5892
 9859TIP3    H250993   3.707   1.769  13.325  1.2843 -0.7853  0.7176
 9860TIP3   OH250994   2.965   3.335  12.146 -0.1575  0.5862  0.5150
 9860TIP3    H150995   2.894   3.271  12.136  0.2624  0.3339 -1.2207
 9860TIP3    H250996   2.941   3.386  12.223 -0.8290 -1.2471  1.5845
 9861TIP3   OH250997   4.571   2.747   0.193  0.2887 -0.0396 -0.7926
 9861TIP3    H150998   4.577   2.842   0.182  0.8828  0.2621  1.5744
 9861TIP3    H250999   4.486   2.724   0.156 -1.9184  2.1421  2.3789
 9862TIP3   OH251000   5.693   0.828  11.884 -0.1058 -0.2830 -0.1582
 9862TIP3    H151001   5.746   0.898  11.923 -0.4773 -1.5963  2.9744
 9862TIP3    H251002   5.609   0.870  11.864  0.7242  0.8663 -1.3709
 9863TIP3   OH251003   4.425   6.069  12.716 -0.0982 -0.2627 -0.2903
 9863TIP3    H151004   4.483   6.007  12.673 -0.1900 -0.2572 -0.4234
 9863TIP3    H251005   4.437   6.052  12.809 -2.0174 -2.2958 -0.3151
 9864TIP3   OH251006   3.976   3.378  12.090 -0.0160 -0.0319 -0.0302
 9864TIP3    H151007   3.967   3.426  12.173  2.0516 -0.8246  0.7069
 9864TIP3    H251008   4.038   3.430  12.039 -1.2935  0.4635 -1.1409
 9865TIP3   OH251009   0.353   1.872  13.426 -0.0975 -0.0872  0.1000
 9865TIP3    H151010   0.326   1.946  13.371  0.1367 -0.3795 -0.4069
 9865TIP3    H251011   0.293   1.801  13.402  1.1980 -0.8012 -1.1723
 9866TIP3   OH251012   2.135   3.523  12.005  0.3004  0.4068  0.2177
 9866TIP3    H151013   2.074   3.527  11.932 -0.4242  0.4708  0.8125
 9866TIP3    H251014   2.080   3.502  12.081  1.1381 -0.3592  0.6259
 9867TIP3   OH251015   6.731   1.300  15.914 -0.0094 -0.3347 -0.1980
 9867TIP3    H151016   6.753   1.328  15.825 -0.6717  1.0749  0.0541
 9867TIP3    H251017   6.710   1.207  15.905  2.1659 -0.7931 -1.0905
 9868TIP3   OH251018   5.931   0.851   2.110 -0.5660  0.5084  0.1681
 9868TIP3    H151019   5.866   0.792   2.150 -0.5799 -0.1024 -0.7366
 9868TIP3    H251020   5.983   0.794   2.053  2.7007  0.3308  2.9841
 9869TIP3   OH251021   6.703   6.697  15.118 -0.2045  0.0174 -0.1036
 9869TIP3    H151022   6.739   6.758  15.181 -3.9204 -1.5764  4.0939
 9869TIP3    H251023   6.615   6.729  15.101 -0.7929 -1.9497 -1.0760
 9870TIP3   OH251024   0.628   0.695   3.600  0.7130 -0.6305  0.0244
 9870TIP3    H151025   0.711   0.742   3.610  1.2152 -1.0636 -1.6989
 9870TIP3    H251026   0.584   0.740   3.528 -1.7051  1.1091  2.4092
 9871TIP3   OH251027   2.453   6.482   5.966 -0.6771  0.0912  0.1002
 9871TIP3    H151028   2.433   6.469   5.873 -0.9417 -0.8337  0.2757
 9871TIP3    H251029   2.412   6.407   6.010  3.1269 -2.0103  0.5173
 9872TIP3   OH251030   0.421   5.421  12.856  0.1907  0.3064 -0.0350
 9872TIP3    H151031   0.497   5.368  12.832  0.8209  1.0266  0.3276
 9872TIP3    H251032   0.405   5.476  12.779  0.7566  0.9636  0.3101
 9873TIP3   OH251033   4.173   1.692  12.414  0.8038  0.5555 -0.0482
 9873TIP3    H151034   4.204   1.766  12.467  0.3625  1.2206 -0.6999
 9873TIP3    H251035   4.249   1.634  12.407  1.0395  0.7392  0.8130
 9874TIP3   OH251036   2.123   0.981   3.891 -0.5597 -0.2389 -0.1444
 9874TIP3    H151037   2.028   0.988   3.886 -0.5589 -0.8729 -1.7730
 9874TIP3    H251038   2.143   0.985   3.984 -2.3045 -1.5326  0.3365
 9875TIP3   OH251039   3.032   3.150  13.484 -0.0435  0.7711  0.1794
 9875TIP3    H151040   2.976   3.177  13.557 -0.3411  0.7035 -0.0218
 9875TIP3    H251041   2.983   3.177  13.405 -1.6434 -2.6217 -0.1600
 9876TIP3   OH251042   3.615   5.293  11.424  0.3684 -0.6217 -0.1262
 9876TIP3    H151043   3.634   5.200  11.410 -0.4630 -0.7230 -0.6629
 9876TIP3    H251044   3.614   5.331  11.336 -1.1216 -0.4881 -0.0823
 9877TIP3   OH251045   6.643   3.142  15.556  0.4046 -0.4583  0.0393
 9877TIP3    H151046   6.737   3.132  15.572  0.1908 -2.8593  0.1749
 9877TIP3    H251047   6.631   3.115  15.465 -0.0180  1.1242 -0.4052
 9878TIP3   OH251048   5.307   2.592  16.216 -0.4996 -0.5871 -0.4505
 9878TIP3    H151049   5.230   2.645  16.238 -1.0697 -1.4550 -0.2950
 9878TIP3    H251050   5.332   2.622  16.129 -0.1565  0.6719  0.0645
 9879TIP3   OH251051   1.629   4.594  15.375 -0.2684 -0.1352  0.3825
 9879TIP3    H151052   1.705   4.539  15.395 -0.4347 -0.9708 -1.2008
 9879TIP3    H251053   1.641   4.620  15.284 -1.4730  0.4153  0.3590
 9880TIP3   OH251054   1.393   5.964   0.378 -0.2408 -0.7185 -0.4100
 9880TIP3    H151055   1.363   5.904   0.310  0.6744 -1.7735  0.0709
 9880TIP3    H251056   1.352   5.932   0.458  0.7882 -1.1430 -0.0349
 9881TIP3   OH251057   2.579   4.590  13.762  0.1235  0.2849 -0.0855
 9881TIP3    H151058   2.591   4.501  13.796 -1.0668 -0.1642 -0.7563
 9881TIP3    H251059   2.638   4.595  13.686 -2.5257 -1.3801 -2.4789
 9882TIP3   OH251060   6.255   5.925   4.606 -0.4995 -0.1758 -0.2223
 9882TIP3    H151061   6.344   5.952   4.624 -0.7128  0.4815 -0.1492
 9882TIP3    H251062   6.265   5.843   4.557  0.1262 -0.3972  0.2633
 9883TIP3   OH251063   1.254   3.066   5.608  0.4303  0.0135  0.1657
 9883TIP3    H151064   1.167   3.076   5.569  1.2986 -1.0633 -2.2064
 9883TIP3    H251065   1.302   3.145   5.582  0.9219 -0.5662 -0.7204
 9884TIP3   OH251066   2.645   3.362   6.099  0.3551  0.3144  0.1969
 9884TIP3    H151067   2.559   3.320   6.097  0.5865 -0.1665  0.0490
 9884TIP3    H251068   2.629   3.449   6.134  0.0234 -0.2943  1.6463
 9885TIP3   OH251069   5.949   5.436  12.127 -0.2338  0.1730  0.5003
 9885TIP3    H151070   6.024   5.386  12.096 -0.9017  0.3011 -1.4923
 9885TIP3    H251071   5.878   5.371  12.133 -0.5860  0.4919 -0.1000
 9886TIP3   OH251072   4.403   0.964  11.846 -0.3374  0.2349 -0.2621
 9886TIP3    H151073   4.434   0.912  11.773 -0.6596  1.3953 -1.2540
 9886TIP3    H251074   4.369   0.900  11.908  1.5778 -0.8945 -0.2925
 9887TIP3   OH251075   4.075   1.742   5.578 -0.8873 -0.2930 -0.4369
 9887TIP3    H151076   4.053   1.785   5.661  2.4391  0.0544  0.3909
 9887TIP3    H251077   4.060   1.649   5.595  0.3410 -0.2894  0.8298
 9888TIP3   OH251078   6.782   1.799  15.763  0.4176  0.3466  0.5207
 9888TIP3    H151079   6.691   1.822  15.745  0.0707 -1.5613 -0.3982
 9888TIP3    H251080   6.825   1.801  15.678  1.4349  1.9181  1.0376
 9889TIP3   OH251081   4.716   4.365  12.617  1.0821  0.4094  0.2301
 9889TIP3    H151082   4.650   4.321  12.671  1.2716 -1.2287 -0.8171
 9889TIP3    H251083   4.704   4.458  12.636 -1.3838  0.1608  0.2365
 9890TIP3   OH251084   1.869   5.375   4.660  0.3595  0.0434  0.3830
 9890TIP3    H151085   1.833   5.414   4.580 -1.5722  0.6854  1.4861
 9890TIP3    H251086   1.871   5.281   4.642  1.0133  0.2639 -0.7936
 9891TIP3   OH251087   0.967   1.690   1.969 -0.4018  0.3746  0.0669
 9891TIP3    H151088   0.918   1.650   1.897  0.0810 -0.3295  0.1095
 9891TIP3    H251089   0.923   1.660   2.048  0.5570 -0.9581  0.1372
 9892TIP3   OH251090   0.391   6.722   0.019  0.1090 -0.1806  0.4454
 9892TIP3    H151091   0.327   6.773   0.068  0.8700 -0.0597  1.3431
 9892TIP3    H251092   0.467   6.717   0.077  0.6460 -0.9374 -0.3016
 9893TIP3   OH251093   0.014   3.418  16.486 -0.1251  0.2537  0.5523
 9893TIP3    H151094   0.054   3.504  16.502  0.2308  0.2536 -0.3122
 9893TIP3    H251095   0.011   3.378  16.573 -0.9097  1.3891  1.0818
 9894TIP3   OH251096   3.223   4.425   0.745 -0.1453 -0.4870 -0.3188
 9894TIP3    H151097   3.132   4.411   0.719 -0.9165  0.5373  1.6715
 9894TIP3    H251098   3.247   4.345   0.792 -0.1909 -0.5405 -0.3859
 9895TIP3   OH251099   4.951   6.446   0.229 -0.2339  0.8758 -0.1429
 9895TIP3    H151100   5.028   6.495   0.258 -0.9583  1.6030  0.5784
 9895TIP3    H251101   4.906   6.422   0.310  1.1640 -2.8624 -0.2682
 9896TIP3   OH251102   4.994   2.439  13.161 -0.2556 -0.3025 -0.1708
 9896TIP3    H151103   4.938   2.379  13.113  0.5546 -1.3763  0.1918
 9896TIP3    H251104   5.081   2.427  13.123  0.0142  0.3007  0.2321
 9897TIP3   OH251105   3.636   0.138  15.736  0.6613 -0.2971 -0.7150
 9897TIP3    H151106   3.557   0.095  15.701 -0.3482  0.6945  0.2652
 9897TIP3    H251107   3.616   0.231  15.733  0.4104 -0.1073  2.5289
 9898TIP3   OH251108   6.406   0.728   0.734  0.6816  0.0172 -0.5258
 9898TIP3    H151109   6.481   0.786   0.716  0.4733  0.3274 -0.4023
 9898TIP3    H251110   6.436   0.673   0.806  0.2491  1.1901  0.5763
 9899TIP3   OH251111   1.128   4.530   2.865 -0.3217 -0.1474  0.0142
 9899TIP3    H151112   1.075   4.474   2.922  0.2043  0.4055  1.0650
 9899TIP3    H251113   1.199   4.561   2.921  1.2366 -0.9957 -1.3891
 9900TIP3   OH251114   5.834   0.320  14.009  0.2182 -0.4952 -0.1188
 9900TIP3    H151115   5.845   0.341  14.101  0.3205  0.2396 -0.2974
 9900TIP3    H251116   5.920   0.332  13.970 -0.2162  1.1032 -0.6781
 9901TIP3   OH251117   6.564   6.755  16.818 -0.5585 -0.2024 -0.2954
 9901TIP3    H151118   6.589   6.704  16.741 -2.1698 -0.8344 -0.4376
 9901TIP3    H251119   6.564   6.846  16.789  1.8611 -0.0881 -0.1781
 9902TIP3   OH251120   3.942   6.209  16.712 -0.4565  0.1783  0.0128
 9902TIP3    H151121   3.952   6.302  16.733  1.8065  0.0887 -0.4141
 9902TIP3    H251122   3.874   6.208  16.644  0.1788  1.6522 -0.7112
 9903TIP3   OH251123   3.591   3.580   0.621 -0.0904 -0.1516  0.3489
 9903TIP3    H151124   3.646   3.508   0.653  0.5030 -0.4625 -1.2576
 9903TIP3    H251125   3.560   3.550   0.536 -0.3973  1.2212 -0.0397
 9904TIP3   OH251126   6.216   4.570  14.591  0.5828  0.3823 -0.4436
 9904TIP3    H151127   6.187   4.629  14.661 -0.3573 -1.3527  0.7120
 9904TIP3    H251128   6.148   4.577  14.524  0.8615  1.1609 -0.6480
 9905TIP3   OH251129   1.785   2.133  11.937 -0.4933  0.5234  0.6288
 9905TIP3    H151130   1.721   2.062  11.945 -1.8487  1.7843  1.2428
 9905TIP3    H251131   1.869   2.091  11.957 -1.0896 -1.1558 -0.1629
 9906TIP3   OH251132   2.096   4.411   3.259 -0.0326  0.6115 -0.0238
 9906TIP3    H151133   2.005   4.409   3.231 -0.3357  2.5813  0.6744
 9906TIP3    H251134   2.129   4.496   3.228  0.8931  0.9086  1.6514
 9907TIP3   OH251135   5.541   2.945  16.774  0.2806  0.0009  0.3449
 9907TIP3    H151136   5.475   3.004  16.810 -0.9002 -1.2379  0.2870
 9907TIP3    H251137   5.617   2.955  16.831  0.2609  1.8462  0.1056
 9908TIP3   OH251138   5.158   2.472   3.689  0.5178 -0.1324 -0.1481
 9908TIP3    H151139   5.238   2.422   3.673 -0.4877 -2.0151  0.2711
 9908TIP3    H251140   5.097   2.440   3.622  0.0001  1.0057 -0.2453
 9909TIP3   OH251141   3.110   4.351   1.233  0.1278 -0.6411 -0.3166
 9909TIP3    H151142   3.028   4.361   1.282 -0.1443 -1.3438 -0.6070
 9909TIP3    H251143   3.161   4.429   1.254 -0.7181 -0.0731 -0.3251
 9910TIP3   OH251144   4.436   1.945   4.871 -0.4162  0.7563  0.2736
 9910TIP3    H151145   4.496   1.904   4.808 -2.6046  1.0459 -2.1880
 9910TIP3    H251146   4.365   1.881   4.881 -0.3263  0.9209  2.1456
 9911TIP3   OH251147   6.056   1.865  13.939 -0.1280 -0.4225 -0.0396
 9911TIP3    H151148   6.144   1.829  13.942 -0.5032 -1.4384 -0.5639
 9911TIP3    H251149   6.049   1.905  13.853 -1.0312 -2.7490 -1.1416
 9912TIP3   OH251150   4.718   1.671  15.047  0.2248 -0.0654 -0.1380
 9912TIP3    H151151   4.726   1.597  15.107  0.1810 -0.2187 -0.3210
 9912TIP3    H251152   4.626   1.672  15.022  0.4132 -0.5543 -0.9006
 9913TIP3   OH251153   1.670   4.659  13.836 -0.2508  0.1440  0.4386
 9913TIP3    H151154   1.689   4.575  13.877 -0.9063 -0.7711 -1.0329
 9913TIP3    H251155   1.577   4.674  13.854  0.2775  1.5657  2.3513
 9914TIP3   OH251156   2.930   6.717  11.904 -0.0803 -0.3159  0.0879
 9914TIP3    H151157   2.878   6.638  11.892 -1.3388  0.5752 -0.6075
 9914TIP3    H251158   3.004   6.707  11.844 -1.2082 -0.1865 -1.3883
 9915TIP3   OH251159   5.336   2.221   2.565 -0.2322  0.0367 -0.3159
 9915TIP3    H151160   5.288   2.296   2.600  0.6007  0.3289  0.2276
 9915TIP3    H251161   5.424   2.230   2.601 -0.2261 -1.4284  0.1116
 9916TIP3   OH251162   3.415   5.802   6.268  0.3801 -0.0569  0.0969
 9916TIP3    H151163   3.342   5.784   6.210  1.4649 -0.1957 -1.2719
 9916TIP3    H251164   3.458   5.717   6.280  1.1827  0.2784 -0.3377
 9917TIP3   OH251165   1.850   6.345  13.528  0.5042  0.2920 -0.0482
 9917TIP3    H151166   1.920   6.360  13.465  0.5744  0.0295 -0.0353
 9917TIP3    H251167   1.770   6.359  13.477  0.5585 -0.0325 -0.2326
 9918TIP3   OH251168   2.847   1.458  12.774  0.3233 -0.2307  0.2363
 9918TIP3    H151169   2.941   1.448  12.756  0.5042 -0.9809  1.4809
 9918TIP3    H251170   2.819   1.530  12.717  1.6867  0.1072 -0.0434
 9919TIP3   OH251171   4.327   1.697  11.546 -0.0709  0.8581  0.0384
 9919TIP3    H151172   4.402   1.722  11.493 -0.0990 -1.7603 -1.4265
 9919TIP3    H251173   4.364   1.638  11.613 -0.8315 -1.3718 -1.3812
 9920TIP3   OH251174   5.903   4.389  13.706  0.5547  0.6350 -1.1959
 9920TIP3    H151175   5.856   4.323  13.655 -0.3082  1.7264 -1.8806
 9920TIP3    H251176   5.894   4.361  13.797 -2.5583  1.4104 -1.1525
 9921TIP3   OH251177   5.344   4.286  13.335 -0.2860  0.2143 -0.1413
 9921TIP3    H151178   5.363   4.265  13.244  1.9828 -0.4442  0.4236
 9921TIP3    H251179   5.395   4.366  13.353  3.1448 -2.1112  1.6861
 9922TIP3   OH251180   6.187   4.735  16.996  0.7260  0.2208 -0.3325
 9922TIP3    H151181   6.137   4.712  16.917 -0.3107  0.1101  0.3369
 9922TIP3    H251182   6.260   4.787  16.963  1.5864 -1.6993 -1.6119
 9923TIP3   OH251183   2.481   4.530   4.072 -0.6772  0.1064 -0.1511
 9923TIP3    H151184   2.500   4.464   4.139 -1.4363  0.1513  0.1150
 9923TIP3    H251185   2.441   4.481   4.000  0.6199 -0.0225 -0.8056
 9924TIP3   OH251186   0.401   4.350   1.700 -0.5645  0.0586  0.3998
 9924TIP3    H151187   0.367   4.358   1.610  0.3557  1.4584  0.1285
 9924TIP3    H251188   0.392   4.258   1.721 -2.7608  0.0374 -0.3308
 9925TIP3   OH251189   6.434   0.814  15.619  0.8593 -0.1768 -0.6062
 9925TIP3    H151190   6.406   0.901  15.647  2.2838  0.0383  0.2485
 9925TIP3    H251191   6.361   0.781  15.566 -1.4574 -0.0280  2.2321
 9926TIP3   OH251192   0.344   3.541   2.537  0.4243 -0.9007  0.1526
 9926TIP3    H151193   0.386   3.531   2.452 -1.1086 -0.6287 -0.6777
 9926TIP3    H251194   0.330   3.452   2.568 -0.1595 -1.0404 -0.4885
 9927TIP3   OH251195   3.198   5.833   3.327  0.0984 -0.3660 -0.5959
 9927TIP3    H151196   3.104   5.830   3.314  0.1282  0.0939 -0.9436
 9927TIP3    H251197   3.214   5.775   3.402 -0.3383 -1.2712 -1.1777
 9928TIP3   OH251198   5.888   5.483  12.826  0.0648  0.0041  0.1464
 9928TIP3    H151199   5.943   5.556  12.797 -2.0179  2.0911  1.1021
 9928TIP3    H251200   5.946   5.407  12.826  3.2312  2.1864  1.9894
 9929TIP3   OH251201   0.537   1.426   2.715  0.3058 -0.4126  0.3194
 9929TIP3    H151202   0.623   1.441   2.677  0.4634  1.0063  1.1409
 9929TIP3    H251203   0.552   1.426   2.809 -0.7138  0.9769  0.5173
 9930TIP3   OH251204   2.074   4.948  13.909  0.0640  0.1780  1.0622
 9930TIP3    H151205   2.087   4.854  13.896 -1.2044  0.2782 -1.4444
 9930TIP3    H251206   2.044   4.955  13.999  1.4085 -1.6599  1.7227
 9931TIP3   OH251207   0.791   3.716   3.443  0.1233 -0.3254  0.4741
 9931TIP3    H151208   0.816   3.628   3.415 -0.3793 -0.4484  0.4082
 9931TIP3    H251209   0.840   3.774   3.385 -0.3459 -0.5703 -0.1815
 9932TIP3   OH251210   2.969   2.890   5.210  0.6227 -0.2757 -0.2273
 9932TIP3    H151211   2.960   2.807   5.163  0.8758  1.0295 -2.7520
 9932TIP3    H251212   3.063   2.907   5.210  0.5715  0.0103  0.3026
 9933TIP3   OH251213   1.269   4.222   0.473 -0.0013 -0.3535  0.3030
 9933TIP3    H151214   1.277   4.268   0.557 -0.2015 -2.4371  1.5374
 9933TIP3    H251215   1.181   4.246   0.442  0.3211  0.9563  0.3267
 9934TIP3   OH251216   2.069   6.342   2.377  0.2723  0.6504 -0.1598
 9934TIP3    H151217   2.162   6.322   2.389  0.3815  0.1211 -1.6627
 9934TIP3    H251218   2.030   6.258   2.353 -0.3691  1.0927 -0.6808
 9935TIP3   OH251219   1.547   0.371  12.739  0.4541 -0.0336  0.1912
 9935TIP3    H151220   1.641   0.392  12.733  0.7810 -1.3938  0.2254
 9935TIP3    H251221   1.509   0.412  12.661  1.6329 -2.0661 -1.5757
 9936TIP3   OH251222   1.976   5.195   2.678  0.6105  0.2736 -0.2605
 9936TIP3    H151223   1.941   5.283   2.688  0.8215  0.4392 -0.8772
 9936TIP3    H251224   1.927   5.158   2.604  0.2900 -0.2507  0.2065
 9937TIP3   OH251225   2.205   3.172  13.039  0.1678 -0.7941  0.2219
 9937TIP3    H151226   2.275   3.122  12.996  1.6319  0.5744  0.9079
 9937TIP3    H251227   2.134   3.109  13.049  0.7621 -1.8780 -1.7472
 9938TIP3   OH251228   6.581   4.262  11.798 -0.1368  0.2407 -0.3248
 9938TIP3    H151229   6.614   4.215  11.874 -0.6160  0.0828 -0.2103
 9938TIP3    H251230   6.659   4.297  11.755  0.0917  1.1496  0.7721
 9939TIP3   OH251231   1.965   0.588   5.193  0.0509 -0.0782  0.2400
 9939TIP3    H151232   1.878   0.576   5.231  0.3417 -1.9801  0.4303
 9939TIP3    H251233   1.998   0.499   5.181  3.2930  0.4777  3.2696
 9940TIP3   OH251234   2.757   4.051  14.703  0.0797 -0.5149 -0.3507
 9940TIP3    H151235   2.824   4.119  14.697 -0.9603  0.5831  0.0603
 9940TIP3    H251236   2.806   3.969  14.705  1.3289  0.1077 -2.3798
 9941TIP3   OH251237   0.214   0.412   5.524  0.2450  0.0749 -0.1883
 9941TIP3    H151238   0.284   0.436   5.585  0.1958  0.9355 -0.4569
 9941TIP3    H251239   0.173   0.336   5.564 -0.6898  1.4209  1.6103
 9942TIP3   OH251240   6.039   4.746   4.174 -0.8260 -0.1734  0.4659
 9942TIP3    H151241   5.999   4.758   4.260 -1.0763 -0.0468  0.3353
 9942TIP3    H251242   6.016   4.826   4.126  2.2030  1.3836  1.3709
 9943TIP3   OH251243   0.043   3.982  15.788 -0.4397 -0.1487  0.4619
 9943TIP3    H151244   0.104   3.997  15.860  0.0661 -0.5883  0.1327
 9943TIP3    H251245   0.065   4.050  15.724 -1.8085  1.1146  1.2921
 9944TIP3   OH251246   4.960   6.838  12.508 -0.3275  0.1871 -0.1779
 9944TIP3    H151247   4.975   6.907  12.572  1.8195  2.9751 -3.3306
 9944TIP3    H251248   4.875   6.857  12.470 -1.7806 -1.6939  1.8915
 9945TIP3   OH251249   6.010   5.357  13.541  0.5989  0.1655 -0.0081
 9945TIP3    H151250   5.947   5.429  13.547 -0.3595 -0.7535  1.6047
 9945TIP3    H251251   5.970   5.296  13.478  0.7931  0.4422 -0.4027
 9946TIP3   OH251252   1.479   1.307  14.050 -0.1117 -0.1463 -0.4497
 9946TIP3    H151253   1.433   1.390  14.066 -0.4174 -0.7113  2.0027
 9946TIP3    H251254   1.416   1.240  14.076  1.1470 -1.0414  0.3577
 9947TIP3   OH251255   6.406   6.567  14.775 -0.1384 -0.0839 -0.0142
 9947TIP3    H151256   6.426   6.499  14.839  0.8995  1.0274  0.8911
 9947TIP3    H251257   6.340   6.527  14.717 -0.2655 -1.5009  1.0538
 9948TIP3   OH251258   3.265   2.871   2.824 -0.7020  0.2013 -0.1766
 9948TIP3    H151259   3.232   2.785   2.799 -2.9326 -0.2129  3.4778
 9948TIP3    H251260   3.339   2.853   2.882  0.7177  0.9236 -1.6816
 9949TIP3   OH251261   2.796   0.780  14.779 -0.1965 -0.1501  0.1348
 9949TIP3    H151262   2.790   0.698  14.730  0.2024 -0.5353  0.7284
 9949TIP3    H251263   2.823   0.755  14.867  1.7349  0.7676 -0.1490
 9950TIP3   OH251264   6.677   5.759   2.190 -0.3532 -0.0951 -0.2638
 9950TIP3    H151265   6.649   5.831   2.135 -1.4421 -0.6709 -0.4794
 9950TIP3    H251266   6.616   5.688   2.171 -0.4541 -0.4725  1.3144
 9951TIP3   OH251267   4.265   5.023  16.439 -0.4287 -1.1816  0.1321
 9951TIP3    H151268   4.211   4.980  16.373  0.2244 -0.0446 -1.1977
 9951TIP3    H251269   4.305   5.097  16.393 -0.3125 -0.0618  1.9377
 9952TIP3   OH251270   6.401   4.361   3.776 -0.1713 -0.4317 -0.4015
 9952TIP3    H151271   6.313   4.329   3.757  0.1368 -1.0450 -0.8285
 9952TIP3    H251272   6.418   4.427   3.710 -0.6836  0.3970  0.2820
 9953TIP3   OH251273   4.907   0.350   0.131 -0.0136 -0.0374  0.2440
 9953TIP3    H151274   4.922   0.282   0.065 -0.5723  0.2759 -0.2092
 9953TIP3    H251275   4.812   0.358   0.136 -0.1823 -2.3790  3.4908
 9954TIP3   OH251276   5.354   5.931   5.939 -0.4658 -0.6006  0.7524
 9954TIP3    H151277   5.421   5.886   5.991  0.2287  0.5781  0.9343
 9954TIP3    H251278   5.366   5.898   5.850 -0.3214 -1.1508  0.9712
 9955TIP3   OH251279   0.237   0.453  13.451 -0.0997 -0.3021 -0.1376
 9955TIP3    H151280   0.324   0.476  13.483  0.4481 -1.1541 -0.9611
 9955TIP3    H251281   0.231   0.358  13.462 -0.7983 -0.2910 -0.3805
 9956TIP3   OH251282   2.112   0.981  15.967 -0.4600 -0.3211 -0.2180
 9956TIP3    H151283   2.193   0.954  15.924  0.2684  1.7726 -0.2231
 9956TIP3    H251284   2.043   0.948  15.908  0.3918 -1.0207 -0.8649
 9957TIP3   OH251285   0.727   5.469  12.566 -0.4463  0.2058  0.1022
 9957TIP3    H151286   0.786   5.481  12.641 -0.7316 -0.7890  0.5096
 9957TIP3    H251287   0.646   5.512  12.593 -0.2568  0.6305 -0.0067
 9958TIP3   OH251288   4.704   4.398   0.678  0.2980 -0.1190 -0.0728
 9958TIP3    H151289   4.635   4.457   0.647 -0.0264  0.2646  1.3021
 9958TIP3    H251290   4.658   4.318   0.704  0.4257 -0.0735  0.3108
 9959TIP3   OH251291   0.303   4.560  13.179 -0.1654  0.1717  0.1361
 9959TIP3    H151292   0.281   4.653  13.193  1.4679  0.7214 -0.6510
 9959TIP3    H251293   0.270   4.541  13.091 -1.4864 -0.3490  0.7174
 9960TIP3   OH251294   0.970   4.586   2.152 -0.1073  0.1739 -0.1103
 9960TIP3    H151295   0.948   4.510   2.205  1.1149 -0.3991 -0.3784
 9960TIP3    H251296   1.031   4.637   2.206 -1.4068  1.3261  0.3256
 9961TIP3   OH251297   5.954   2.034   4.526 -0.2608 -0.2089  0.3832
 9961TIP3    H151298   5.963   1.948   4.567  0.3585 -0.3948 -0.1144
 9961TIP3    H251299   6.044   2.066   4.518 -0.4749  0.4131  0.4153
 9962TIP3   OH251300   0.199   2.123  10.886 -0.0834 -0.4204 -0.2831
 9962TIP3    H151301   0.139   2.198  10.882 -0.2005 -0.5126 -0.2570
 9962TIP3    H251302   0.271   2.147  10.827 -0.4180 -0.5472 -0.7508
 9963TIP3   OH251303   5.155   5.239  11.149  0.7207 -0.1276  0.1744
 9963TIP3    H151304   5.073   5.267  11.109  0.1504 -0.1738  1.2546
 9963TIP3    H251305   5.163   5.146  11.127  1.5781  0.3507 -1.7001
 9964TIP3   OH251306   5.421   4.907  16.872 -0.4838  0.5712 -0.1245
 9964TIP3    H151307   5.421   4.972  16.802  0.6054  0.5370 -0.1803
 9964TIP3    H251308   5.346   4.930  16.927 -0.7919  1.1666 -0.7808
 9965TIP3   OH251309   0.418   4.514   2.480 -0.2181  0.2271 -0.3536
 9965TIP3    H151310   0.447   4.548   2.395  0.0606 -0.3336 -0.4832
 9965TIP3    H251311   0.426   4.589   2.539  2.2442 -0.0975 -0.2070
 9966TIP3   OH251312   2.926   2.257  15.868 -0.3899 -0.0381 -0.1739
 9966TIP3    H151313   2.985   2.328  15.843  0.6314 -0.9881 -0.5574
 9966TIP3    H251314   2.984   2.184  15.890 -1.3863 -0.5172  1.0002
 9967TIP3   OH251315   3.191   2.218  12.765  0.4276  0.1897  0.0528
 9967TIP3    H151316   3.182   2.279  12.692  1.7131 -1.5304 -1.6261
 9967TIP3    H251317   3.102   2.208  12.799  0.0170  2.0598 -0.3847
 9968TIP3   OH251318   0.401   5.406  12.433  0.3578 -0.2245  0.3963
 9968TIP3    H151319   0.427   5.407  12.341 -1.0521  0.3304 -0.0220
 9968TIP3    H251320   0.402   5.313  12.457  0.5983 -0.3864 -0.2240
 9969TIP3   OH251321   6.399   4.586  15.892  0.2319  0.3432  0.4182
 9969TIP3    H151322   6.452   4.666  15.899  0.9890 -0.2115  1.3172
 9969TIP3    H251323   6.417   4.539  15.974 -2.8582  0.8475  1.5107
 9970TIP3   OH251324   0.211   3.699  12.869 -0.3071 -0.3315 -0.4451
 9970TIP3    H151325   0.241   3.643  12.798  2.9782 -0.0760  0.5795
 9970TIP3    H251326   0.172   3.638  12.932 -1.9627 -0.7115 -1.7598
 9971TIP3   OH251327   3.973   6.357  10.267 -0.2361  0.4105  0.6987
 9971TIP3    H151328   4.039   6.413  10.226 -0.0854 -0.3466 -0.1339
 9971TIP3    H251329   3.924   6.415  10.325  0.3099  1.2626  0.3212
 9972TIP3   OH251330   2.943   4.981   1.243 -0.3394  0.3071  0.3467
 9972TIP3    H151331   2.920   4.969   1.151 -1.5520 -0.4499  0.7345
 9972TIP3    H251332   2.902   5.064   1.268 -0.3715  0.2976  0.3234
 9973TIP3   OH251333   3.799   3.224  13.914 -0.1685 -0.3890 -0.1676
 9973TIP3    H151334   3.894   3.227  13.901 -0.2983  0.2392 -1.0160
 9973TIP3    H251335   3.762   3.213  13.826 -0.8852 -0.5995  0.1493
 9974TIP3   OH251336   6.083   1.158  14.392 -0.5974  0.5794  0.0643
 9974TIP3    H151337   6.057   1.174  14.482  1.0495 -0.4382  0.7810
 9974TIP3    H251338   6.001   1.150  14.343 -1.5162  0.6681  1.5474
 9975TIP3   OH251339   1.561   0.849   4.818  0.1868 -0.6887 -0.0538
 9975TIP3    H151340   1.486   0.863   4.760  0.6347 -1.4653 -0.8390
 9975TIP3    H251341   1.522   0.834   4.904 -0.5122 -0.0955 -0.2546
 9976TIP3   OH251342   2.737   2.879  16.158 -0.5135  0.4625  0.0586
 9976TIP3    H151343   2.662   2.939  16.153 -0.1142  1.0483  0.9281
 9976TIP3    H251344   2.792   2.915  16.228  1.5877  1.1657 -1.8681
 9977TIP3   OH251345   6.308   4.829  14.256  0.0180  0.2622 -0.0526
 9977TIP3    H151346   6.232   4.858  14.205 -0.3312 -1.1460 -0.3787
 9977TIP3    H251347   6.383   4.854  14.202 -0.2714  0.4216 -0.3925
 9978TIP3   OH251348   1.736   1.074  15.042  0.7876 -0.2419  0.0316
 9978TIP3    H151349   1.711   1.092  15.133 -1.0966 -1.2837 -0.2325
 9978TIP3    H251350   1.777   0.987  15.046 -2.4348 -1.9233 -0.4987
 9979TIP3   OH251351   6.394   3.467  15.476 -0.3355 -0.2841 -0.0942
 9979TIP3    H151352   6.315   3.428  15.513 -0.3102 -0.6719 -0.4361
 9979TIP3    H251353   6.400   3.430  15.387 -0.5223  0.7998 -0.5695
 9980TIP3   OH251354   6.033   0.017  15.641 -0.0560  0.5724 -0.5032
 9980TIP3    H151355   5.978   0.002  15.718  0.9745  0.7503  0.2953
 9980TIP3    H251356   6.033   0.112  15.630  1.5083  0.7513  0.6241
 9981TIP3   OH251357   0.577   4.648  16.358 -0.2805  0.1718  0.2175
 9981TIP3    H151358   0.540   4.728  16.320  0.3542  0.2240 -0.3008
 9981TIP3    H251359   0.642   4.680  16.420 -1.5946  0.1023  1.7086
 9982TIP3   OH251360   0.780   3.905  16.281  0.8056  0.7710 -0.1348
 9982TIP3    H151361   0.774   3.999  16.301 -0.1576  0.4784  1.0945
 9982TIP3    H251362   0.807   3.865  16.363  0.2526 -0.1242 -0.3741
 9983TIP3   OH251363   4.765   3.756   1.929 -0.2817  0.9892 -0.2559
 9983TIP3    H151364   4.835   3.820   1.939  0.7843 -0.3016  1.0223
 9983TIP3    H251365   4.793   3.681   1.981 -1.4493 -0.5619 -1.7277
 9984TIP3   OH251366   5.777   4.614  13.466  0.0319 -0.3732 -0.2422
 9984TIP3    H151367   5.806   4.702  13.443 -1.4276  0.5139  1.1098
 9984TIP3    H251368   5.727   4.626  13.547  0.6200 -2.5902  0.5130
 9985TIP3   OH251369   4.386   1.052   4.533 -0.0385 -0.6190 -0.2040
 9985TIP3    H151370   4.294   1.047   4.557  0.0399  0.1600  0.2690
 9985TIP3    H251371   4.386   1.056   4.437 -0.5293 -0.0707 -0.1851
 9986TIP3   OH251372   4.436   6.710  11.487  0.0706  0.6617  0.3713
 9986TIP3    H151373   4.433   6.765  11.565  1.0390 -0.1360  0.9953
 9986TIP3    H251374   4.527   6.716  11.456 -0.3617  1.1999 -0.8820
 9987TIP3   OH251375   6.458   6.828  15.170  0.0340  0.5836 -0.0729
 9987TIP3    H151376   6.481   6.842  15.078  2.9838 -1.9517  0.0830
 9987TIP3    H251377   6.368   6.796  15.168 -0.1806  1.1933 -1.9910
 9988TIP3   OH251378   3.667   2.704  16.169  0.1664 -0.0889 -0.1384
 9988TIP3    H151379   3.715   2.733  16.246  0.1871 -1.4374  0.3815
 9988TIP3    H251380   3.664   2.781  16.112  2.0525  0.3284  0.2555
 9989TIP3   OH251381   3.638   6.128  14.007 -0.0281  0.9265 -0.0793
 9989TIP3    H151382   3.583   6.059  13.969  1.1323 -0.6491  0.9321
 9989TIP3    H251383   3.724   6.086  14.018  0.8023  2.6493  0.3248
 9990TIP3   OH251384   2.238   1.974  14.303  0.3160  0.1602 -0.6432
 9990TIP3    H151385   2.173   2.027  14.349 -0.4419 -1.0153 -0.3242
 9990TIP3    H251386   2.316   2.030  14.299 -0.3113  1.1157  0.0941
 9991TIP3   OH251387   5.852   6.387   0.027  0.0349 -0.2291 -0.2230
 9991TIP3    H151388   5.868   6.296   0.002 -1.2041 -0.5931  0.2506
 9991TIP3    H251389   5.790   6.419  -0.038  0.0458  0.1178 -0.0647
 9992TIP3   OH251390   0.109   3.867  16.871  0.3654  0.0128  0.3159
 9992TIP3    H151391   0.173   3.904  16.932  0.8271 -0.3809  0.0741
 9992TIP3    H251392   0.072   3.942  16.825 -0.8508  0.4431  1.8980
 9993TIP3   OH251393   4.435   2.117  13.610 -0.3414  0.3170  0.4869
 9993TIP3    H151394   4.524   2.108  13.575  0.0748 -2.4352  1.9761
 9993TIP3    H251395   4.393   2.179  13.551  1.2456 -1.5798 -2.9956
 9994TIP3   OH251396   3.693   0.097   2.701  0.4440  0.4870 -0.3078
 9994TIP3    H151397   3.685   0.172   2.761  0.1027  1.1303 -1.1353
 9994TIP3    H251398   3.602   0.078   2.676  0.3133 -1.4072  1.2965
 9995TIP3   OH251399   1.278   1.897  15.857  0.7680  0.6135 -0.5129
 9995TIP3    H151400   1.262   1.923  15.947 -0.0401 -0.0480 -0.4501
 9995TIP3    H251401   1.372   1.906  15.845  0.9729  0.0676  0.6023
 9996TIP3   OH251402   5.379   3.891  14.248  0.1909 -0.2436  0.4953
 9996TIP3    H151403   5.332   3.940  14.180  0.7058  0.1644  0.4273
 9996TIP3    H251404   5.404   3.957  14.313  0.5183 -0.4797  0.6150
 9997TIP3   OH251405   3.943   6.387   4.384  0.0948 -0.5993  0.0970
 9997TIP3    H151406   3.850   6.374   4.405 -0.1890 -1.7246 -1.6181
 9997TIP3    H251407   3.948   6.476   4.351 -0.7354 -1.0653 -1.3765
 9998TIP3   OH251408   1.864   1.028  15.451  0.1622  0.4950  0.4285
 9998TIP3    H151409   1.947   1.046  15.405 -1.6897  1.4438 -2.8644
 9998TIP3    H251410   1.809   0.987  15.384 -2.0297 -0.2397  2.5659
 9999TIP3   OH251411   6.535   2.719   1.083  0.3422  0.6558 -0.4817
 9999TIP3    H151412   6.445   2.714   1.116 -0.0190 -1.2017 -1.5875
 9999TIP3    H251413   6.588   2.740   1.159 -0.6950 -1.2796  0.8593
10000TIP3   OH251414   4.642   2.958   0.820  0.4045 -0.1382 -0.5463
10000TIP3    H151415   4.677   3.034   0.866 -0.5863 -0.5041  0.8604
10000TIP3    H251416   4.713   2.894   0.821  0.1018 -0.4973  1.3752
10001TIP3   OH251417   2.653   0.532   5.206  0.3703  0.0506 -0.2055
10001TIP3    H151418   2.708   0.592   5.255 -1.4659  0.5505  1.3794
10001TIP3    H251419   2.665   0.447   5.247  1.7988 -0.3996 -1.4676
10002TIP3   OH251420   2.204   3.943   2.335  0.3758  0.3754 -0.5789
10002TIP3    H151421   2.236   3.860   2.299  1.0265  0.0945  0.6053
10002TIP3    H251422   2.271   4.007   2.310  1.3948 -0.0225  1.0161
10003TIP3   OH251423   1.352   1.333  14.804  0.0128  0.1058 -0.0331
10003TIP3    H151424   1.335   1.397  14.874  0.0824 -1.5582  1.5954
10003TIP3    H251425   1.426   1.370  14.755 -0.9646  2.0084 -0.1476
10004TIP3   OH251426   6.797   3.891   4.045  0.1385 -0.5310  0.2885
10004TIP3    H151427   6.716   3.864   4.089 -0.4957 -1.3387 -1.3099
10004TIP3    H251428   6.768   3.952   3.977  1.2226  1.5859  1.6260
10005TIP3   OH251429   0.746   1.489  13.303 -0.1414 -0.5494 -0.4644
10005TIP3    H151430   0.706   1.483  13.217  1.5124 -0.7813 -1.2600
10005TIP3    H251431   0.826   1.540  13.289  0.9848 -1.9366  0.5946
10006TIP3   OH251432   2.972   4.276  14.261  0.1072 -0.1374  0.1486
10006TIP3    H151433   3.028   4.216  14.310 -0.5875 -0.5590  0.4491
10006TIP3    H251434   2.937   4.223  14.189  1.0034  0.4365 -0.7313
10007TIP3   OH251435   2.633   6.652  16.057 -0.5281 -0.1724  0.1274
10007TIP3    H151436   2.653   6.605  16.138  0.5510  1.9272  1.1570
10007TIP3    H251437   2.556   6.705  16.079 -2.0504 -1.7395 -1.1764
10008TIP3   OH251438   4.749   2.139   0.273 -0.2674  0.0090  0.3243
10008TIP3    H151439   4.717   2.149   0.362  1.7125  0.3840  1.0334
10008TIP3    H251440   4.790   2.053   0.271  3.4350  1.5707  1.1150
10009TIP3   OH251441   2.157   5.767  12.538  0.3960 -0.3364 -0.0822
10009TIP3    H151442   2.201   5.851  12.544  0.3193 -0.2886 -0.1851
10009TIP3    H251443   2.123   5.764  12.448 -0.2402 -0.1581  0.1453
10010TIP3   OH251444   5.965   6.511   4.156  0.0103  0.8922 -0.0991
10010TIP3    H151445   5.974   6.531   4.249  0.1670 -2.6098  0.8054
10010TIP3    H251446   5.871   6.496   4.143  0.1166  0.2014 -0.1553
10011TIP3   OH251447   1.625   4.442  14.149  0.4234  0.4409 -0.1740
10011TIP3    H151448   1.529   4.447  14.145 -0.0059 -2.1067  2.6470
10011TIP3    H251449   1.650   4.513  14.208  0.3348  1.3169 -1.1757
10012TIP3   OH251450   5.593   0.461  12.143 -0.0218 -0.3383  0.0895
10012TIP3    H151451   5.660   0.395  12.162 -1.1426 -1.2062  1.1969
10012TIP3    H251452   5.635   0.544  12.163  1.5768 -0.6229 -1.7733
10013TIP3   OH251453   2.921   4.105  11.745  0.2105  0.3237  0.5595
10013TIP3    H151454   2.844   4.052  11.724  1.3325 -1.2621  0.2964
10013TIP3    H251455   2.911   4.126  11.838 -0.8949  0.7833  0.3571
10014TIP3   OH251456   0.008   4.013  15.060  0.1585 -0.2959 -0.5721
10014TIP3    H151457   0.055   4.094  15.080 -0.0083 -0.3156 -0.0988
10014TIP3    H251458   0.077   3.948  15.044  0.4399 -1.0995  2.9887
10015TIP3   OH251459   1.536   4.058   2.154 -0.1434 -0.1499  0.1743
10015TIP3    H151460   1.575   4.033   2.237  0.2624  2.3843  0.8197
10015TIP3    H251461   1.457   4.105   2.178 -0.5428 -0.2301 -0.9364
10016TIP3   OH251462   1.571   0.093  13.469 -0.0596 -0.4980  0.0805
10016TIP3    H151463   1.555   0.137  13.385 -0.8930 -1.4846 -0.2986
10016TIP3    H251464   1.663   0.109  13.487  0.1778 -0.4091 -1.1139
10017TIP3   OH251465   1.069   4.106   2.353  0.4717 -0.0903  0.3144
10017TIP3    H151466   1.055   4.039   2.286  1.4931  0.2931 -0.3129
10017TIP3    H251467   1.059   4.060   2.436  1.8939 -1.2055 -0.0998
10018TIP3   OH251468   1.161   3.093  12.123 -0.1532  0.3491 -0.2148
10018TIP3    H151469   1.194   3.011  12.162  2.3463  1.0396 -0.6717
10018TIP3    H251470   1.101   3.064  12.055  2.0231 -1.2935 -1.5999
10019TIP3   OH251471   2.810   4.832   2.032  0.3942  0.1182  0.5107
10019TIP3    H151472   2.800   4.737   2.029  0.2428  0.0800  1.6530
10019TIP3    H251473   2.728   4.866   1.995  1.1497 -0.1614 -1.5416
10020TIP3   OH251474   5.696   4.273  15.987 -0.0195  0.3017 -0.7029
10020TIP3    H151475   5.651   4.211  15.929 -1.2597  0.5174 -0.0124
10020TIP3    H251476   5.702   4.354  15.936  0.4674 -0.0054 -1.1455
10021TIP3   OH251477   2.888   0.066   3.495  0.1633 -0.1235  0.3120
10021TIP3    H151478   2.832   0.135   3.459 -1.8144 -0.8183  1.8995
10021TIP3    H251479   2.884  -0.005   3.431 -0.1933  0.1114  0.0707
10022TIP3   OH251480   4.447   5.499  16.474 -0.0223  0.1314  0.2739
10022TIP3    H151481   4.444   5.540  16.560  0.6670 -1.0471  0.8743
10022TIP3    H251482   4.407   5.564  16.415  2.5271  2.4241  0.8628
10023TIP3   OH251483   1.792   2.989  15.596 -0.0420  0.1265 -0.0897
10023TIP3    H151484   1.709   2.980  15.549 -0.0331  0.0184 -0.0838
10023TIP3    H251485   1.783   3.071  15.645 -0.4726 -0.3055  0.5791
10024TIP3   OH251486   4.385   4.439  11.035 -0.0408  0.0235  0.0426
10024TIP3    H151487   4.290   4.447  11.042 -0.1017  1.6374 -1.8195
10024TIP3    H251488   4.400   4.346  11.016 -1.2940 -0.1423 -0.2161
10025TIP3   OH251489   2.164   2.482  12.578  0.6421  0.0509  0.3374
10025TIP3    H151490   2.188   2.434  12.657 -0.1797 -0.1664  0.4614
10025TIP3    H251491   2.075   2.514  12.594  0.6560  0.4405 -0.2946
10026TIP3   OH251492   5.718   4.435   3.644  0.3050  0.0051 -0.0639
10026TIP3    H151493   5.765   4.508   3.602 -0.2380  0.3399 -0.1010
10026TIP3    H251494   5.626   4.463   3.645  0.1325 -0.5553  0.1899
10027TIP3   OH251495   0.144   2.301   5.295 -0.3342 -0.0513 -0.3387
10027TIP3    H151496   0.119   2.224   5.347  0.4049 -0.0947 -0.0352
10027TIP3    H251497   0.239   2.293   5.284 -0.4615 -0.0160 -1.6586
10028TIP3   OH251498   2.442   0.670   5.772 -0.4498 -0.3481  0.3198
10028TIP3    H151499   2.385   0.690   5.846 -1.9465 -0.3835 -0.7858
10028TIP3    H251500   2.525   0.715   5.793 -1.8036  2.1928  0.6585
10029TIP3   OH251501   5.945   2.870   0.071  0.4989 -0.2926  0.1949
10029TIP3    H151502   5.970   2.954   0.111  0.0082  0.3438 -0.8004
10029TIP3    H251503   6.027   2.821   0.064  0.6503 -0.2887  1.6487
10030TIP3   OH251504   0.306   6.736   0.548  0.7400  0.1332  0.4148
10030TIP3    H151505   0.248   6.723   0.623 -0.9009  0.7099 -0.7110
10030TIP3    H251506   0.316   6.831   0.542  0.5117  0.1090 -0.3576
10031TIP3   OH251507   5.293   3.703   6.436  0.3888  0.5312  0.1065
10031TIP3    H151508   5.369   3.710   6.379 -0.1388 -0.9435 -0.8154
10031TIP3    H251509   5.259   3.615   6.421 -0.2377  0.3775  2.1119
10032TIP3   OH251510   3.583   4.696   4.437  0.3586  0.1584  0.3395
10032TIP3    H151511   3.586   4.635   4.363 -1.8133  0.2609  0.1020
10032TIP3    H251512   3.490   4.716   4.448  0.8341  1.9202  1.6668
10033TIP3   OH251513   1.889   2.733   4.362  0.1151 -0.1773 -0.8667
10033TIP3    H151514   1.840   2.675   4.421 -0.9004  1.2646 -0.2197
10033TIP3    H251515   1.857   2.820   4.384  1.1654  0.5742 -2.2261
10034TIP3   OH251516   6.277   3.417   1.068  1.0609 -0.5399 -0.2357
10034TIP3    H151517   6.204   3.397   1.127  0.2058  0.8292 -0.7683
10034TIP3    H251518   6.337   3.343   1.077 -0.1587 -1.4624  0.6008
10035TIP3   OH251519   5.216   0.067  15.543 -0.6212 -0.6491 -0.2762
10035TIP3    H151520   5.171   0.073  15.459  0.5573 -1.1009 -0.9599
10035TIP3    H251521   5.297   0.117  15.531 -0.9221  0.1747  0.9359
10036TIP3   OH251522   3.769   4.363   4.647  0.0999  0.0502 -0.3674
10036TIP3    H151523   3.835   4.384   4.581  0.1596 -0.6507 -0.5396
10036TIP3    H251524   3.785   4.271   4.669 -0.6896 -0.0707 -0.2563
10037TIP3   OH251525   0.398   1.763   1.548  0.3860 -0.6331 -0.7946
10037TIP3    H151526   0.325   1.809   1.508 -0.9867 -2.6117 -0.6722
10037TIP3    H251527   0.434   1.708   1.478  0.3364 -1.3136 -0.2986
10038TIP3   OH251528   4.096   5.874   3.559  0.0601 -0.4430  0.2322
10038TIP3    H151529   4.148   5.877   3.479  0.0104 -0.4654  0.1991
10038TIP3    H251530   4.161   5.872   3.630  0.1077 -0.9314  0.1766
10039TIP3   OH251531   6.469   5.518  14.806 -0.3890 -0.6908 -0.1979
10039TIP3    H151532   6.407   5.477  14.746 -0.4374 -0.3440 -0.3892
10039TIP3    H251533   6.555   5.500  14.767 -0.3865 -0.9092 -0.0937
10040TIP3   OH251534   6.670   1.124   5.597 -0.4128 -0.0456  0.3773
10040TIP3    H151535   6.765   1.112   5.595 -0.2985  0.0635  2.4983
10040TIP3    H251536   6.639   1.059   5.661 -1.3575  1.8594  1.9738
10041TIP3   OH251537   3.184   6.012  12.802 -0.0562  0.7267 -0.0296
10041TIP3    H151538   3.171   5.956  12.879 -1.5038 -1.1298 -1.5279
10041TIP3    H251539   3.095   6.031  12.771  0.4767  0.0891 -2.1251
10042TIP3   OH251540   5.283   1.055   4.916  0.1752  0.1335  0.5185
10042TIP3    H151541   5.356   1.114   4.901 -1.0273  2.3208  2.6951
10042TIP3    H251542   5.303   1.011   4.998 -0.0132 -0.8036  0.0768
10043TIP3   OH251543   2.752   5.277  11.337  0.0562 -0.0383  0.5527
10043TIP3    H151544   2.737   5.315  11.423 -0.8266  0.3705  0.2360
10043TIP3    H251545   2.677   5.221  11.322  0.6421 -0.7972  0.4086
10044TIP3   OH251546   4.310   3.769   4.071  0.2771 -0.2947 -0.9580
10044TIP3    H151547   4.404   3.754   4.078  0.2840 -1.4636 -2.6350
10044TIP3    H251548   4.300   3.822   3.991 -0.3642  2.0025  0.5615
10045TIP3   OH251549   3.771   2.833  14.536 -0.1029 -0.3730 -0.0256
10045TIP3    H151550   3.842   2.771  14.552 -1.1094 -1.5822 -0.1073
10045TIP3    H251551   3.713   2.822  14.611 -0.7164 -0.1496 -0.4604
10046TIP3   OH251552   0.100   3.013  11.314 -0.6952 -0.4185  0.0809
10046TIP3    H151553   0.111   2.919  11.327  1.0211 -0.0196  2.0163
10046TIP3    H251554   0.096   3.023  11.219  0.4788 -2.3186 -0.2309
10047TIP3   OH251555   0.035   3.476   5.518  0.1733 -0.4377 -0.3383
10047TIP3    H151556   0.028   3.381   5.524  0.0584 -0.4488 -0.6261
10047TIP3    H251557   0.052   3.493   5.425  0.5197 -0.1965 -0.2313
10048TIP3   OH251558   2.339   6.699  12.990  0.4750 -0.6867 -0.2548
10048TIP3    H151559   2.409   6.742  13.039 -1.8812  1.9281  1.1622
10048TIP3    H251560   2.262   6.706  13.047 -1.0707 -3.0823 -1.8583
10049TIP3   OH251561   5.732   5.082   0.415  0.4982  0.7109  0.5917
10049TIP3    H151562   5.737   5.036   0.499 -0.3332 -0.2940  0.1140
10049TIP3    H251563   5.728   5.013   0.350  2.2806  1.4645 -0.3954
10050TIP3   OH251564   0.243   2.866  16.359  0.0570 -0.7168 -0.2824
10050TIP3    H151565   0.315   2.930  16.359 -0.2401 -0.3673  0.9291
10050TIP3    H251566   0.261   2.810  16.434 -0.5590 -1.0675 -0.3955
10051TIP3   OH251567   5.313   5.225   4.210 -0.1726 -0.1255  0.5273
10051TIP3    H151568   5.272   5.145   4.179 -0.0867  0.7132 -2.0108
10051TIP3    H251569   5.246   5.269   4.262 -0.3822 -1.5700  1.5099
10052TIP3   OH251570   5.077   4.799   3.291 -0.0534  0.2475 -0.6645
10052TIP3    H151571   5.066   4.783   3.384 -0.8422  1.8300 -0.4480
10052TIP3    H251572   5.000   4.756   3.251  0.1123 -0.1492 -0.5652
10053TIP3   OH251573   5.594   3.591  15.301  0.4213  0.2580  0.1501
10053TIP3    H151574   5.648   3.636  15.366  1.1041 -1.2519  0.6734
10053TIP3    H251575   5.649   3.519  15.269 -0.7075 -0.3590 -0.4717
10054TIP3   OH251576   1.745   4.843   1.812 -0.4105 -0.5647 -0.7383
10054TIP3    H151577   1.695   4.923   1.833  0.8117 -0.1880  0.9148
10054TIP3    H251578   1.725   4.783   1.884 -0.6086 -1.4355 -1.5074
10055TIP3   OH251579   2.885   3.641   0.130  0.6426  0.7819 -0.2924
10055TIP3    H151580   2.870   3.670   0.220  0.0997  0.2458 -0.1986
10055TIP3    H251581   2.959   3.581   0.136 -0.5902 -0.7755  0.1378
10056TIP3   OH251582   4.193   4.401   5.928 -0.4114  0.0311 -0.2439
10056TIP3    H151583   4.182   4.392   6.023  0.6162 -1.7227 -0.2435
10056TIP3    H251584   4.115   4.362   5.890 -1.2879  1.6179 -0.1463
10057TIP3   OH251585   5.111   1.725  12.424  0.2302 -0.4634 -0.0679
10057TIP3    H151586   5.116   1.790  12.494 -0.1224 -0.3767 -0.1215
10057TIP3    H251587   5.196   1.730  12.381 -0.1578  0.7168 -0.7397
10058TIP3   OH251588   2.052   3.992  10.902  0.0774  0.0290  0.2969
10058TIP3    H151589   1.996   3.953  10.970  0.1325 -0.5282  0.0278
10058TIP3    H251590   2.029   4.085  10.903  0.3120  0.0913  1.3056
10059TIP3   OH251591   2.513   0.882   4.391 -0.5484 -0.2135  0.4579
10059TIP3    H151592   2.465   0.838   4.320  0.4740 -0.3927 -0.1349
10059TIP3    H251593   2.583   0.821   4.414 -0.0531  0.4365  0.7006
10060TIP3   OH251594   4.220   4.568   1.212  0.5022 -0.6961  0.2294
10060TIP3    H151595   4.160   4.493   1.221  0.7329 -0.7714  1.2757
10060TIP3    H251596   4.282   4.557   1.283  1.1617 -0.0562 -0.2359
10061TIP3   OH251597   5.829   1.809   5.070  0.6092 -0.0142  0.4742
10061TIP3    H151598   5.896   1.800   5.137  1.3999 -0.6433 -0.3556
10061TIP3    H251599   5.814   1.719   5.040  0.5728  0.2881 -0.4559
10062TIP3   OH251600   3.047   0.617  14.285 -0.4646 -0.5193  0.0661
10062TIP3    H151601   2.996   0.665  14.350  0.4618  3.6366 -1.8839
10062TIP3    H251602   2.984   0.597  14.216 -0.3853  0.6803 -0.3943
10063TIP3   OH251603   1.105   1.073   5.926  0.5863  0.3291  0.1713
10063TIP3    H151604   1.109   0.977   5.920  1.1468  0.4360 -2.5009
10063TIP3    H251605   1.012   1.093   5.936  0.3337 -0.4992 -0.3765
10064TIP3   OH251606   4.902   2.872  14.764  0.6216 -0.0535 -0.0776
10064TIP3    H151607   4.893   2.897  14.856  0.2288  1.4188 -0.4885
10064TIP3    H251608   4.852   2.790  14.756  1.0944 -0.4793  1.1086
10065TIP3   OH251609   0.173   1.095  15.710  0.7508 -0.4592  0.0339
10065TIP3    H151610   0.231   1.020  15.720  1.5925  0.3648  1.8770
10065TIP3    H251611   0.231   1.171  15.706 -0.0830  0.4550  2.7017
10066TIP3   OH251612   0.250   3.074  13.651  0.0756 -0.3625  0.1574
10066TIP3    H151613   0.340   3.102  13.634 -0.6915  0.0808 -3.9949
10066TIP3    H251614   0.256   2.979  13.661  0.9330 -0.4319 -0.8634
10067TIP3   OH251615   5.248   5.366  13.968  0.2813  0.4985 -0.0147
10067TIP3    H151616   5.331   5.322  13.986  0.3364  0.4336 -0.3990
10067TIP3    H251617   5.245   5.438  14.030  1.2915  1.3503 -0.9178
10068TIP3   OH251618   2.827   1.796   2.530 -0.1746  0.0222 -0.3716
10068TIP3    H151619   2.762   1.826   2.468  1.0858  2.3226 -0.6796
10068TIP3    H251620   2.888   1.744   2.478 -0.5359 -0.2555 -0.5196
10069TIP3   OH251621   4.658   3.432   2.807 -0.2580 -0.4724  0.2330
10069TIP3    H151622   4.660   3.524   2.834 -0.2019 -0.6117  0.6971
10069TIP3    H251623   4.583   3.395   2.852  0.1238 -0.8229  0.5885
10070TIP3   OH251624   1.491   2.547   6.046 -0.2268  0.3234 -0.0136
10070TIP3    H151625   1.437   2.617   6.010 -0.4670  0.8879  1.3751
10070TIP3    H251626   1.477   2.553   6.141  0.3077 -1.1485  0.1785
10071TIP3   OH251627   2.095   1.303  15.218  0.2596 -0.2271  0.2047
10071TIP3    H151628   2.117   1.286  15.126 -0.1978 -1.2394  0.2562
10071TIP3    H251629   2.024   1.367  15.214 -1.2446 -1.8111 -0.3043
10072TIP3   OH251630   3.494   3.326  10.676 -0.2176  0.0148 -0.3732
10072TIP3    H151631   3.503   3.363  10.764  0.3684 -0.7849 -0.0848
10072TIP3    H251632   3.402   3.299  10.672 -0.2986  0.2333 -0.0826
10073TIP3   OH251633   2.336   0.770  15.933  0.2931 -0.4345  0.4014
10073TIP3    H151634   2.414   0.718  15.948  0.2450 -0.9286 -0.8815
10073TIP3    H251635   2.364   0.861  15.944  1.6208 -0.4525 -2.0750
10074TIP3   OH251636   2.643   2.321   2.580  0.4888  0.2483  0.1634
10074TIP3    H151637   2.737   2.318   2.594  0.4230  0.0840  0.5945
10074TIP3    H251638   2.618   2.411   2.602  0.2974 -0.1662  1.7636
10075TIP3   OH251639   3.025   6.820   4.620 -0.5141  0.0213 -0.6906
10075TIP3    H151640   3.071   6.903   4.607  0.2988 -0.6585 -2.5317
10075TIP3    H251641   2.938   6.845   4.649  0.3730  1.4201  0.9092
10076TIP3   OH251642   5.544   2.776   0.051 -0.1365 -0.7024  0.0165
10076TIP3    H151643   5.531   2.726  -0.030 -2.6112  0.5751 -0.4823
10076TIP3    H251644   5.622   2.829   0.034  1.4711 -2.9381 -0.1086
10077TIP3   OH251645   3.103   3.055   2.464  0.1055  0.2819  0.7648
10077TIP3    H151646   3.041   3.006   2.518  1.6813 -1.7016  0.9067
10077TIP3    H251647   3.060   3.138   2.447 -0.9661  0.5532  4.1051
10078TIP3   OH251648   2.334   5.987  10.402 -0.3051  0.5776 -0.7285
10078TIP3    H151649   2.326   6.073  10.443  0.4862  0.2453  0.1727
10078TIP3    H251650   2.420   5.988  10.360 -0.5489  0.4320 -1.2418
10079TIP3   OH251651   6.767   0.398   0.594 -0.0436 -0.3263  0.2882
10079TIP3    H151652   6.680   0.376   0.628 -0.9887 -0.5844 -2.0673
10079TIP3    H251653   6.749   0.448   0.514  1.9819 -0.8722 -0.5697
10080TIP3   OH251654   4.601   0.173   0.694  0.1129  0.2492 -0.1696
10080TIP3    H151655   4.691   0.191   0.722 -0.2271  0.6484  0.6840
10080TIP3    H251656   4.562   0.259   0.680  0.3295  0.0710 -2.1221
10081TIP3   OH251657   5.195   5.140  12.342 -0.8424 -0.3339 -0.3458
10081TIP3    H151658   5.290   5.133  12.350 -0.7795 -0.1563 -0.9454
10081TIP3    H251659   5.162   5.113  12.428 -0.1986  0.8241  0.2940
10082TIP3   OH251660   3.813   0.692   1.080 -0.1899 -0.2611 -0.4031
10082TIP3    H151661   3.746   0.754   1.049 -0.7366 -0.0270  1.1530
10082TIP3    H251662   3.858   0.664   1.000 -0.9876  0.9199 -1.3116
10083TIP3   OH251663   4.575   2.657   1.918  0.0196 -0.0242 -0.1375
10083TIP3    H151664   4.496   2.695   1.881 -0.0948 -0.9079 -0.8249
10083TIP3    H251665   4.598   2.585   1.859  0.8748 -0.2975  0.4973
10084TIP3   OH251666   1.396   3.338   3.419 -0.5177 -0.7820 -0.4363
10084TIP3    H151667   1.331   3.285   3.467 -2.5569  2.0502  0.1852
10084TIP3    H251668   1.472   3.341   3.477 -0.7214 -2.1213 -0.0481
10085TIP3   OH251669   1.568   4.917  12.961 -0.0450  0.0795  0.2686
10085TIP3    H151670   1.646   4.973  12.965  0.7773 -1.0816  1.5789
10085TIP3    H251671   1.541   4.908  13.053 -1.1005 -0.4178 -0.0760
10086TIP3   OH251672   2.697   2.317  11.465  0.3250 -0.2183  0.0345
10086TIP3    H151673   2.744   2.267  11.532  1.7634  0.8728 -0.1274
10086TIP3    H251674   2.751   2.311  11.387  0.3289  1.2127 -0.1062
10087TIP3   OH251675   6.251   0.057   2.219 -0.0261 -0.1002 -0.0699
10087TIP3    H151676   6.308   0.073   2.294  1.3730 -1.5512 -0.7617
10087TIP3    H251677   6.257   0.136   2.166 -3.3215  2.2645  2.5916
10088TIP3   OH251678   1.614   3.936  12.789 -0.0290 -0.2365  0.1450
10088TIP3    H151679   1.692   3.950  12.736  0.1323 -0.2345  0.3818
10088TIP3    H251680   1.596   3.842  12.781  1.2759 -0.6781  1.8364
10089TIP3   OH251681   4.100   5.342  15.315 -0.3616 -0.1637  0.2640
10089TIP3    H151682   4.173   5.393  15.280 -1.7830  0.7268 -1.5782
10089TIP3    H251683   4.140   5.286  15.381  1.2843  3.3590  2.5310
10090TIP3   OH251684   3.461   6.074   5.525  0.1664 -0.2753  0.1444
10090TIP3    H151685   3.427   5.992   5.562  0.1163 -0.5380 -0.4575
10090TIP3    H251686   3.552   6.076   5.552  0.0124 -0.2323  0.6644
10091TIP3   OH251687   4.332   2.603  11.565 -0.2090  0.1057  0.1593
10091TIP3    H151688   4.312   2.645  11.649 -2.3471  0.8236 -0.6557
10091TIP3    H251689   4.304   2.512  11.578 -1.2715  0.3952  0.0112
10092TIP3   OH251690   4.077   2.341  15.940  0.3946 -0.1047 -0.4915
10092TIP3    H151691   4.058   2.396  16.016  1.7581 -0.9632  0.5255
10092TIP3    H251692   4.122   2.400  15.879  2.0714 -0.0805  0.6933
10093TIP3   OH251693   3.517   4.183  11.202 -0.2617  0.3094  0.3727
10093TIP3    H151694   3.574   4.173  11.125 -1.3678  2.8517 -0.8962
10093TIP3    H251695   3.559   4.252  11.253 -1.2882  1.0145  0.2809
10094TIP3   OH251696   4.620   4.630  15.159  0.3127  0.7300 -0.3419
10094TIP3    H151697   4.548   4.573  15.132  0.8644  0.1460 -0.6220
10094TIP3    H251698   4.699   4.578  15.143  1.0452  2.4423 -2.9571
10095TIP3   OH251699   0.475   1.739  16.999 -0.6377  0.9475 -0.7703
10095TIP3    H151700   0.531   1.804  16.957  1.1477  0.5269  0.8660
10095TIP3    H251701   0.533   1.690  17.056 -2.1674 -1.3102 -1.0157
10096TIP3   OH251702   3.891   5.157   4.294  0.1759 -0.0378  0.5913
10096TIP3    H151703   3.845   5.075   4.280  0.5953 -0.1305 -0.3823
10096TIP3    H251704   3.982   5.132   4.312  0.7982  0.1964 -1.7717
10097TIP3   OH251705   1.787   0.151  13.659 -0.4345 -0.5963 -0.0495
10097TIP3    H151706   1.733   0.094  13.714 -1.6839  0.1365 -0.4858
10097TIP3    H251707   1.821   0.217  13.720  0.5033 -1.4188  0.3408
10098TIP3   OH251708   4.513   6.213   5.474 -0.2482 -0.2655 -0.0292
10098TIP3    H151709   4.518   6.151   5.548 -0.3008 -1.0031 -0.6323
10098TIP3    H251710   4.524   6.158   5.397  1.5131  0.7273 -0.5229
10099TIP3   OH251711   1.008   6.483   4.345 -0.1378  0.3807  0.4271
10099TIP3    H151712   0.970   6.571   4.354  1.0595  1.2848 -2.2766
10099TIP3    H251713   1.091   6.488   4.391  0.6543  1.2325 -1.0269
10100TIP3   OH251714   1.217   4.005   0.626  0.3500  0.0031  0.4635
10100TIP3    H151715   1.279   3.934   0.644  0.3384 -0.9229 -2.5716
10100TIP3    H251716   1.269   4.072   0.582 -0.4344 -0.0955 -0.6767
10101TIP3   OH251717   0.441   6.222  12.535 -0.5185 -0.0387  0.2271
10101TIP3    H151718   0.424   6.207  12.628  1.2015 -0.4520  0.5160
10101TIP3    H251719   0.523   6.271  12.533 -0.1024 -0.7284 -1.0773
10102TIP3   OH251720   4.397   1.026   6.028  0.0347 -0.0630 -0.1582
10102TIP3    H151721   4.313   1.032   6.074  0.2149 -0.7302  0.2810
10102TIP3    H251722   4.391   0.945   5.977 -0.5800  1.2109 -2.2207
10103TIP3   OH251723   5.735   2.912   4.232  0.1934 -0.6701  0.0492
10103TIP3    H151724   5.658   2.957   4.198  0.0565 -0.8921  0.0626
10103TIP3    H251725   5.809   2.961   4.197  0.0772 -1.4989 -1.4597
10104TIP3   OH251726   4.384   1.799  16.769 -0.3994 -0.4303 -0.0566
10104TIP3    H151727   4.360   1.834  16.683  0.0707  2.2074  0.8049
10104TIP3    H251728   4.314   1.830  16.827 -0.0592 -1.1226  0.7275
10105TIP3   OH251729   5.084   1.622   2.249  0.5758 -0.2797 -0.1841
10105TIP3    H151730   5.164   1.636   2.198  1.1066  0.5129  0.8243
10105TIP3    H251731   5.015   1.661   2.195  0.9563 -0.4150 -0.7836
10106TIP3   OH251732   4.770   0.471  13.099  0.7881  0.6517  0.2125
10106TIP3    H151733   4.806   0.549  13.139 -0.0480  0.7387  0.8180
10106TIP3    H251734   4.769   0.406  13.169 -0.5430  0.7592  0.3328
10107TIP3   OH251735   5.230   0.291   1.392 -0.5025  0.1484  0.5457
10107TIP3    H151736   5.149   0.322   1.351  0.5088  1.1632 -0.7832
10107TIP3    H251737   5.219   0.312   1.485 -1.6336  0.5563  0.3379
10108TIP3   OH251738   2.536   0.183  17.013  0.5641 -0.0232 -0.0980
10108TIP3    H151739   2.488   0.170  16.932  0.0776  1.5703 -0.1029
10108TIP3    H251740   2.561   0.275  17.012  0.6976 -0.0027  1.4665
10109TIP3   OH251741   2.151   2.055   3.054 -0.2479 -0.2379  0.1336
10109TIP3    H151742   2.098   1.981   3.025  0.1522  0.2535 -2.0320
10109TIP3    H251743   2.198   2.082   2.976  1.2457  0.9681  1.3951
10110TIP3   OH251744   4.937   4.008   3.470 -0.7085  0.6319 -0.0080
10110TIP3    H151745   5.021   3.994   3.427 -1.1974  0.5060 -0.9545
10110TIP3    H251746   4.932   4.103   3.481 -1.1033  0.7982 -1.3859
10111TIP3   OH251747   0.831   0.004  10.784  0.3583  0.1058 -0.2506
10111TIP3    H151748   0.918  -0.031  10.804  0.4234 -0.2861 -1.1804
10111TIP3    H251749   0.803  -0.045  10.707  0.0013  1.3828 -0.9528
10112TIP3   OH251750   3.895   5.663   4.397 -0.0992  0.4917 -0.0744
10112TIP3    H151751   3.834   5.607   4.349 -1.4153  0.7395  1.2409
10112TIP3    H251752   3.877   5.752   4.365  0.6384  0.4023 -0.7628
10113TIP3   OH251753   3.795   5.945  14.978 -0.9062 -0.4903 -0.2615
10113TIP3    H151754   3.741   5.913  15.050 -1.5497  0.0182 -0.5030
10113TIP3    H251755   3.779   5.884  14.907 -0.4145 -0.8860 -0.0414
10114TIP3   OH251756   6.222   1.242   4.730 -0.0121 -0.7183  0.4368
10114TIP3    H151757   6.156   1.241   4.661  0.4013 -0.7372  0.0340
10114TIP3    H251758   6.220   1.154   4.768 -1.4147 -0.2243  1.5972
10115TIP3   OH251759   0.962   2.674  11.204 -0.1765  0.1417  0.1482
10115TIP3    H151760   0.953   2.719  11.288  1.2652 -2.4443  1.8181
10115TIP3    H251761   0.873   2.647  11.182 -0.6917  1.5908  0.3686
10116TIP3   OH251762   6.741   1.397   3.074 -0.1122 -0.4648 -0.1423
10116TIP3    H151763   6.646   1.396   3.078 -0.0734 -0.2763  1.8824
10116TIP3    H251764   6.765   1.489   3.085  0.3135 -0.4815 -0.8534
10117TIP3   OH251765   1.453   2.937   2.475  0.3023  0.6598 -0.2212
10117TIP3    H151766   1.518   2.868   2.465  0.2348  0.7349 -1.3193
10117TIP3    H251767   1.398   2.908   2.547  0.7716 -0.0350 -0.1323
10118TIP3   OH251768   1.308   3.552  16.732  0.2355 -0.2152 -0.0489
10118TIP3    H151769   1.272   3.536  16.819  1.2607  1.3251  0.7095
10118TIP3    H251770   1.403   3.543  16.743  0.3953  0.2319 -0.9417
10119TIP3   OH251771   1.232   4.297   0.130  0.1583  0.1765 -0.1210
10119TIP3    H151772   1.313   4.250   0.150 -0.3131 -0.7286 -0.2754
10119TIP3    H251773   1.226   4.295   0.035 -0.3272 -0.2745 -0.0895
10120TIP3   OH251774   5.473   0.475   0.933  0.1195  0.5120  0.1310
10120TIP3    H151775   5.473   0.555   0.984  0.2941  1.2888 -1.0370
10120TIP3    H251776   5.566   0.456   0.918  0.0877 -0.0916  0.6730
10121TIP3   OH251777   0.694   0.213   1.355  0.6912  0.5599 -0.1945
10121TIP3    H151778   0.768   0.157   1.379 -0.2106 -0.0891  1.2137
10121TIP3    H251779   0.677   0.192   1.264  0.6037 -1.2537  0.1948
10122TIP3   OH251780   1.248   0.100   4.589  0.1221 -0.1861 -0.0734
10122TIP3    H151781   1.188   0.155   4.639 -1.8130 -3.1899  1.1089
10122TIP3    H251782   1.335   0.125   4.621 -0.7135  1.5125  1.0308
10123TIP3   OH251783   1.828   4.704   0.256  0.0573 -0.1172 -0.2502
10123TIP3    H151784   1.740   4.733   0.282 -0.0169 -0.4905 -0.0819
10123TIP3    H251785   1.826   4.704   0.160 -0.9704 -2.5775 -0.3099
10124TIP3   OH251786   3.386   6.050  14.952 -0.1645  0.2270  0.3538
10124TIP3    H151787   3.329   6.117  14.991  1.4828  2.3058 -0.6021
10124TIP3    H251788   3.473   6.067  14.990  0.0703 -2.4175  1.2561
10125TIP3   OH251789   5.845   3.262  16.424  0.3564  0.0319  0.0591
10125TIP3    H151790   5.854   3.353  16.396  0.7589 -0.1100 -0.2800
10125TIP3    H251791   5.934   3.232  16.441  0.5805 -1.1273 -2.5259
10126TIP3   OH251792   1.765   3.313   1.576 -0.2309  0.2980  0.3205
10126TIP3    H151793   1.685   3.337   1.623 -2.0781 -1.5387 -1.6640
10126TIP3    H251794   1.765   3.368   1.498 -0.4450 -0.7707 -0.4609
10127TIP3   OH251795   0.971   4.071  14.576 -0.3219 -0.0357  0.0329
10127TIP3    H151796   1.056   4.049  14.614 -0.8239 -1.2873  0.4996
10127TIP3    H251797   0.987   4.078  14.482  0.8758  2.7627  0.3257
10128TIP3   OH251798   3.342   5.389   3.025 -0.2574  0.9194  0.3965
10128TIP3    H151799   3.413   5.391   3.088  0.8756 -2.9029 -0.4790
10128TIP3    H251800   3.265   5.417   3.075  1.0285  0.5389  2.7484
10129TIP3   OH251801   4.896   4.340  15.606 -0.5019  0.0248  0.1199
10129TIP3    H151802   4.953   4.328  15.682  0.2218 -0.5934 -0.5057
10129TIP3    H251803   4.808   4.330  15.641 -0.1801 -0.2441  0.8813
10130TIP3   OH251804   1.801   6.641   2.385  0.0343 -0.4215 -0.0710
10130TIP3    H151805   1.836   6.704   2.449 -0.0601 -0.4121 -0.0279
10130TIP3    H251806   1.708   6.636   2.405 -0.0436 -0.2219 -0.3788
10131TIP3   OH251807   4.933   6.152  13.341 -0.5979 -0.2876 -0.0571
10131TIP3    H151808   4.990   6.175  13.267  1.8641  0.4023  1.8983
10131TIP3    H251809   4.845   6.151  13.304  0.0495  3.5848 -2.3042
10132TIP3   OH251810   4.127   5.485   3.811  0.4239 -0.2239 -0.1405
10132TIP3    H151811   4.170   5.399   3.812 -0.9943 -0.9852 -1.5753
10132TIP3    H251812   4.151   5.523   3.727 -0.3859  0.0307 -0.2600
10133TIP3   OH251813   4.565   6.735   2.919  0.4745  0.8440  0.1868
10133TIP3    H151814   4.614   6.802   2.966 -2.0099  1.5490  1.9515
10133TIP3    H251815   4.536   6.674   2.986 -0.7652  0.2621 -0.8330
10134TIP3   OH251816   6.425   0.768  14.025  0.7326  0.5200 -0.3328
10134TIP3    H151817   6.477   0.825  13.968 -0.5532  0.7911 -1.2951
10134TIP3    H251818   6.432   0.681  13.986  1.5898  0.2768  0.3487
10135TIP3   OH251819   3.092   0.675   3.771 -1.0273 -0.1202 -0.7077
10135TIP3    H151820   3.025   0.717   3.825 -0.6333  1.1313 -1.1517
10135TIP3    H251821   3.125   0.604   3.826 -1.8055  0.0632  0.0269
10136TIP3   OH251822   3.554   2.365  16.924 -0.1918  0.2197  0.3512
10136TIP3    H151823   3.592   2.453  16.922  0.5380 -0.0835  0.4953
10136TIP3    H251824   3.491   2.365  16.853 -1.2090  1.3006  1.1979
10137TIP3   OH251825   0.704   3.690  13.779 -0.5054  0.3365  0.3661
10137TIP3    H151826   0.751   3.608  13.763  0.5826  0.7273  1.4384
10137TIP3    H251827   0.755   3.757  13.733 -0.3187  0.6857  1.0734
10138TIP3   OH251828   3.311   2.808  13.955 -0.3746 -0.5286 -0.0949
10138TIP3    H151829   3.400   2.777  13.971 -0.8816 -2.1529 -0.2881
10138TIP3    H251830   3.300   2.880  14.017  1.2074 -0.0105 -0.3683
10139TIP3   OH251831   6.576   0.607   5.020 -0.4687 -0.2222  0.2024
10139TIP3    H151832   6.573   0.592   4.925  0.4655  1.9559 -0.2273
10139TIP3    H251833   6.486   0.590   5.049 -0.3270 -2.9304 -0.6712
10140TIP3   OH251834   4.427   5.963  14.945 -0.3248 -0.1188 -0.1922
10140TIP3    H151835   4.386   5.879  14.922  1.1562 -0.5844 -1.3314
10140TIP3    H251836   4.502   5.939  14.999 -0.7779  0.6128  0.7798
10141TIP3   OH251837   5.370   6.221  13.085  0.0861  0.1617 -0.2394
10141TIP3    H151838   5.302   6.159  13.111  0.9972 -1.1968 -0.9492
10141TIP3    H251839   5.417   6.177  13.014  1.3367  1.3008 -0.1710
10142TIP3   OH251840   5.941   1.257   1.300 -0.0517  0.3153  0.2291
10142TIP3    H151841   5.882   1.325   1.331 -0.0085  2.1165 -3.1305
10142TIP3    H251842   6.024   1.274   1.345 -0.6366  1.1418  1.0145
10143TIP3   OH251843   5.732   2.599  13.628  0.4775 -0.6465  0.1067
10143TIP3    H151844   5.800   2.556  13.576 -0.5964 -0.9005 -1.1591
10143TIP3    H251845   5.654   2.593  13.573 -0.8223 -1.2744  1.9248
10144TIP3   OH251846   3.323   1.592   3.176 -0.0779  0.8359 -0.0012
10144TIP3    H151847   3.403   1.555   3.138  0.0083  1.2830 -0.2671
10144TIP3    H251848   3.273   1.516   3.205  0.4776  0.5553  0.2393
10145TIP3   OH251849   4.423   2.170  14.062 -0.4220 -0.0560  0.0903
10145TIP3    H151850   4.361   2.164  13.990 -0.5618  1.2182  0.0764
10145TIP3    H251851   4.476   2.248  14.042  1.2775 -1.1690  0.0338
10146TIP3   OH251852   2.317   0.482  14.536 -0.1441 -0.3707 -0.2842
10146TIP3    H151853   2.331   0.467  14.442  0.8514  1.7462 -0.5290
10146TIP3    H251854   2.231   0.444  14.553  0.5392 -2.7338 -1.5383
10147TIP3   OH251855   0.775   1.754   4.131  0.3444 -0.7759 -0.0393
10147TIP3    H151856   0.736   1.677   4.173  0.1326 -0.7350 -0.1589
10147TIP3    H251857   0.848   1.778   4.188 -1.4580  0.8464  1.7756
10148TIP3   OH251858   0.102   0.416   2.590 -0.1490  0.0612 -0.2763
10148TIP3    H151859   0.066   0.390   2.675 -0.3124  2.4202  0.4550
10148TIP3    H251860   0.091   0.339   2.535 -0.0758 -1.5279  1.8178
10149TIP3   OH251861   5.387   0.373  15.905 -0.5498 -0.4812  0.1350
10149TIP3    H151862   5.478   0.404  15.904 -0.7090 -0.0180 -0.6160
10149TIP3    H251863   5.340   0.437  15.958 -0.4192 -0.8025  0.6503
10150TIP3   OH251864   5.267   5.368   0.902  0.2130 -0.4263  0.2624
10150TIP3    H151865   5.287   5.284   0.860  0.9431  0.2647 -0.8139
10150TIP3    H251866   5.287   5.433   0.836 -3.3355  0.5184 -0.0610
10151TIP3   OH251867   4.570   1.783  10.911 -0.0885 -0.5041 -0.1593
10151TIP3    H151868   4.662   1.791  10.887  0.3583  1.3404  1.8098
10151TIP3    H251869   4.522   1.817  10.836  0.7886 -1.7538 -1.3202
10152TIP3   OH251870   6.471   1.182  11.285  0.1214 -0.1593  0.0012
10152TIP3    H151871   6.535   1.183  11.357 -1.4885 -1.6706  1.5527
10152TIP3    H251872   6.412   1.255  11.304 -0.5346 -0.7949  0.4893
10153TIP3   OH251873   3.919   6.723   6.238  0.6965  0.2218 -0.8903
10153TIP3    H151874   3.892   6.657   6.303 -0.3428  0.2888 -1.2244
10153TIP3    H251875   4.006   6.696   6.210  0.0935 -1.2861 -1.3749
10154TIP3   OH251876   0.029   0.448   3.464 -0.3252  0.6377  0.6940
10154TIP3    H151877   0.026   0.464   3.558 -0.3302 -0.8938  0.9747
10154TIP3    H251878   0.066   0.529   3.427  0.2697  1.0126  2.0588
10155TIP3   OH251879   3.429   6.303   5.134 -0.2512 -0.4834  0.1659
10155TIP3    H151880   3.504   6.244   5.133 -1.3240 -2.0942 -3.3473
10155TIP3    H251881   3.456   6.378   5.080 -0.8007 -0.6318 -0.3374
10156TIP3   OH251882   3.546   5.023  16.610 -0.3646  0.2502  0.1749
10156TIP3    H151883   3.604   5.003  16.683 -2.4106  1.3675  2.2739
10156TIP3    H251884   3.519   5.113  16.625 -4.0694 -0.7368  0.5216
10157TIP3   OH251885   2.013   0.599  15.378 -0.9987  0.3498  0.6314
10157TIP3    H151886   2.011   0.587  15.283 -0.6109 -1.7658  0.8251
10157TIP3    H251887   2.106   0.612  15.397 -1.0098  0.2520  0.7523
10158TIP3   OH251888   3.649   1.481   2.582  0.3585  0.5548 -0.4527
10158TIP3    H151889   3.743   1.463   2.580  0.2543 -0.0389 -0.2438
10158TIP3    H251890   3.633   1.536   2.505  0.8151  0.3326 -0.7087
10159TIP3   OH251891   5.782   4.441   2.627  0.1629 -0.6186 -0.4157
10159TIP3    H151892   5.749   4.396   2.549  0.2590 -0.3324 -0.6234
10159TIP3    H251893   5.709   4.497   2.655  1.2047  1.8168 -2.2502
10160TIP3   OH251894   3.144   4.994   0.648  0.3051  0.3849  0.0448
10160TIP3    H151895   3.211   5.025   0.588  0.7514 -0.3575  0.1471
10160TIP3    H251896   3.094   5.073   0.671  0.0964  0.6713 -1.3200
10161TIP3   OH251897   2.684   4.220  11.493  0.2349 -0.8035  1.1208
10161TIP3    H151898   2.647   4.232  11.580 -0.6383  2.0722  0.4675
10161TIP3    H251899   2.712   4.307  11.467  0.3758 -1.5562 -1.5357
10162TIP3   OH251900   3.301   0.996  13.808  0.4387 -0.3881 -0.1793
10162TIP3    H151901   3.225   1.020  13.754 -0.4469  0.1456  1.2634
10162TIP3    H251902   3.377   1.013  13.752 -0.4764 -0.6627 -1.5550
10163TIP3   OH251903   0.484   6.673  12.474  0.0120 -0.3368  0.2673
10163TIP3    H151904   0.443   6.603  12.423 -1.4770  0.2573  0.5941
10163TIP3    H251905   0.441   6.670  12.559 -1.9555  2.5137 -0.4721
10164TIP3   OH251906   5.999   3.488   4.959  0.0236  0.1330 -0.7008
10164TIP3    H151907   5.931   3.488   5.027  0.6702 -2.9602  0.0952
10164TIP3    H251908   5.978   3.412   4.904  2.1651 -0.2161 -1.1165
10165TIP3   OH251909   1.107   1.032   2.945 -0.6432 -0.1613 -0.6619
10165TIP3    H151910   1.148   1.113   2.915  0.5942 -0.4950  0.0521
10165TIP3    H251911   1.090   1.047   3.038 -0.4416 -0.6896 -0.5361
10166TIP3   OH251912   0.402   2.531  12.235  0.1569  0.0014  0.9623
10166TIP3    H151913   0.414   2.514  12.142  1.9172 -0.1721  1.1837
10166TIP3    H251914   0.326   2.589  12.240  0.0014 -0.0443 -0.5572
10167TIP3   OH251915   3.578   4.140  16.138 -0.0454  0.5840 -0.0188
10167TIP3    H151916   3.534   4.080  16.078  2.5358  0.1894 -1.6367
10167TIP3    H251917   3.557   4.106  16.225 -1.0800 -0.8754 -0.7896
10168TIP3   OH251918   6.692   1.740   0.903 -0.1210 -0.1181 -0.3561
10168TIP3    H151919   6.729   1.726   0.990  1.2678 -0.8772 -1.0355
10168TIP3    H251920   6.768   1.739   0.845 -0.8244  2.1661 -1.3959
10169TIP3   OH251921   2.911   0.347   1.741 -0.8925  0.1799  0.6324
10169TIP3    H151922   2.992   0.305   1.714 -1.2484  0.7537 -1.5981
10169TIP3    H251923   2.931   0.441   1.740 -1.8924  0.4420 -1.4655
10170TIP3   OH251924   5.558   1.808  11.464 -0.7422 -0.1261 -0.2168
10170TIP3    H151925   5.524   1.719  11.453 -2.1611  0.3920 -0.2621
10170TIP3    H251926   5.523   1.837  11.548  0.3895  0.1060  0.1868
10171TIP3   OH251927   1.266   1.400   0.503  0.5401  0.1705 -0.7068
10171TIP3    H151928   1.206   1.333   0.472 -0.9728  0.9003  0.5285
10171TIP3    H251929   1.339   1.397   0.441 -0.1564 -1.6009 -1.5133
10172TIP3   OH251930   0.007   3.995  13.530  0.0923 -0.2123  0.6112
10172TIP3    H151931   0.031   4.083  13.501  0.5537 -0.7335 -0.6538
10172TIP3    H251932   0.080   3.940  13.501 -0.2933 -1.0488  1.2051
10173TIP3   OH251933   0.936   5.505  14.720 -0.3397 -0.4951 -0.2049
10173TIP3    H151934   0.992   5.574  14.684 -1.2985  0.3738 -0.0616
10173TIP3    H251935   0.859   5.504  14.663 -0.3146 -1.4843 -0.2292
10174TIP3   OH251936   1.200   6.469  14.925 -0.9424 -0.1835 -0.1305
10174TIP3    H151937   1.279   6.512  14.958  0.7043 -2.6716 -0.5292
10174TIP3    H251938   1.221   6.447  14.835 -1.9392 -1.2561 -0.1166
10175TIP3   OH251939   3.292   3.462   2.069  0.1295 -0.0112  0.2085
10175TIP3    H151940   3.365   3.476   2.128  0.8244 -1.0585 -0.3742
10175TIP3    H251941   3.230   3.409   2.119  0.4718 -0.4349  0.1881
10176TIP3   OH251942   2.750   1.977   0.427 -0.2456  0.1335 -0.0980
10176TIP3    H151943   2.843   1.999   0.432 -0.1441 -0.0170 -1.0887
10176TIP3    H251944   2.724   1.961   0.517  0.1060  2.5385  0.4981
10177TIP3   OH251945   0.065   1.965   3.387 -0.4580  0.3483  0.3993
10177TIP3    H151946   0.093   1.899   3.323  0.1765 -0.3287  1.3396
10177TIP3    H251947   0.092   2.048   3.348  1.3542 -0.1554  0.4723
10178TIP3   OH251948   5.851   6.273   3.741 -0.1759  0.2244  0.0659
10178TIP3    H151949   5.842   6.358   3.786 -2.2576  0.1717 -0.1692
10178TIP3    H251950   5.843   6.208   3.812  0.3449  0.1893  0.0989
10179TIP3   OH251951   4.222   0.530  16.311  0.5290  0.3076 -0.4881
10179TIP3    H151952   4.310   0.490  16.316  0.5586  0.4099 -0.2072
10179TIP3    H251953   4.183   0.511  16.396  0.0528 -0.2584 -0.8281
10180TIP3   OH251954   1.671   4.165  10.927  0.0499  0.4145 -0.4758
10180TIP3    H151955   1.704   4.218  10.854  2.7542 -0.0017  0.3392
10180TIP3    H251956   1.723   4.193  11.002 -0.1354 -1.6955  0.4995
10181TIP3   OH251957   4.387   0.155  15.988 -0.2940  0.3553 -0.0142
10181TIP3    H151958   4.469   0.120  15.954  0.3480  0.0238  1.7817
10181TIP3    H251959   4.370   0.233  15.935  1.3228  0.5910 -0.2296
10182TIP3   OH251960   6.001   4.720   0.839  0.3796  0.8796  0.3852
10182TIP3    H151961   5.978   4.754   0.752  0.0634  0.8297  0.4470
10182TIP3    H251962   5.939   4.649   0.854  0.0231  1.2980  0.9193
10183TIP3   OH251963   5.353   2.993  14.710  0.2718 -0.1590  0.2095
10183TIP3    H151964   5.436   3.031  14.679  1.2881 -1.3031  1.4116
10183TIP3    H251965   5.365   2.898  14.699 -1.1173 -0.3110 -0.1365
10184TIP3   OH251966   1.869   3.199   3.713 -0.0041  0.1666  0.5894
10184TIP3    H151967   1.898   3.220   3.625  0.0973 -2.6683 -0.1305
10184TIP3    H251968   1.827   3.114   3.706  0.7433 -0.5618  3.4190
10185TIP3   OH251969   2.158   1.709   3.973  0.0752  0.5746 -0.5997
10185TIP3    H151970   2.173   1.794   4.015  0.1592  0.2677  0.0138
10185TIP3    H251971   2.082   1.723   3.917 -1.5476  0.4383  1.4193
10186TIP3   OH251972   0.098   4.933  14.855  0.3970 -0.4779  0.4833
10186TIP3    H151973   0.165   4.995  14.882  1.2694 -1.2805  0.2166
10186TIP3    H251974   0.037   4.929  14.929  0.1382  0.9247  0.3686
10187TIP3   OH251975   5.495   2.365  14.978 -0.0862 -0.6006 -0.0624
10187TIP3    H151976   5.418   2.408  14.940  1.2136 -1.0232 -3.5279
10187TIP3    H251977   5.459   2.292  15.029 -2.0336  0.2826 -0.1035
10188TIP3   OH251978   6.754   3.457   1.590 -0.4783  0.6920  0.1639
10188TIP3    H151979   6.741   3.481   1.682  0.9106 -1.1803  0.9269
10188TIP3    H251980   6.841   3.417   1.588 -1.2896 -1.1814 -1.5474
10189TIP3   OH251981   4.629   6.592   4.970  0.1547  0.1056 -0.6073
10189TIP3    H151982   4.674   6.664   5.012 -0.6386  0.2991 -0.0740
10189TIP3    H251983   4.691   6.518   4.975 -0.0226  0.0447  1.1338
10190TIP3   OH251984   0.675   4.155   0.883 -0.2893  0.0703  0.5117
10190TIP3    H151985   0.599   4.207   0.909  0.4105  2.0228 -1.1219
10190TIP3    H251986   0.668   4.148   0.788  1.6121  0.4076  0.3078
10191TIP3   OH251987   2.553   1.831  14.094 -0.2026 -0.4624  0.2035
10191TIP3    H151988   2.646   1.840  14.073  0.1428 -3.0619  0.3822
10191TIP3    H251989   2.510   1.900  14.043  1.5529 -0.9481 -2.0589
10192TIP3   OH251990   0.442   6.779  15.939 -0.0820  0.0883 -0.3614
10192TIP3    H151991   0.459   6.870  15.913 -1.4956  0.4832  0.0181
10192TIP3    H251992   0.488   6.769  16.022  3.0875 -0.6785 -2.0642
10193TIP3   OH251993   5.101   6.588   5.875 -0.0269  0.3772  0.5128
10193TIP3    H151994   5.090   6.683   5.871  2.3038  0.7290  1.1400
10193TIP3    H251995   5.049   6.561   5.951 -0.5271  1.1739  0.4658
10194TIP3   OH251996   6.588   4.007  14.644  0.5960  0.1783  0.5153
10194TIP3    H151997   6.654   4.019  14.713  0.7807  0.1037  0.3529
10194TIP3    H251998   6.582   4.092  14.602  0.0577  0.3866  0.9947
10195TIP3   OH251999   0.077   3.932  12.770  0.1370 -0.2321  0.1570
10195TIP3    H152000   0.149   3.870  12.780  1.1090  0.6992 -0.7319
10195TIP3    H252001  -0.002   3.878  12.768  0.6681 -1.2082  2.3296
10196TIP3   OH252002   1.354   3.767  14.818  0.2438 -0.1432 -0.9937
10196TIP3    H152003   1.258   3.769  14.821  0.0930 -1.4667 -3.2570
10196TIP3    H252004   1.377   3.822  14.743  1.2667 -0.0488 -0.6272
10197TIP3   OH252005   5.125   5.948   5.080 -0.2026 -0.1094 -0.8320
10197TIP3    H152006   5.102   5.881   5.144  0.9389  2.3957  2.4610
10197TIP3    H252007   5.104   6.031   5.122  0.0374  1.7473 -4.0180
10198TIP3   OH252008   6.274   1.678  12.992  0.6427 -0.1712 -0.0954
10198TIP3    H152009   6.255   1.662  13.084 -0.4436  1.2297 -0.0409
10198TIP3    H252010   6.316   1.764  12.991 -0.8923  0.6075 -1.0381
10199TIP3   OH252011   6.511   1.897  15.758 -0.1056  0.1497  0.4171
10199TIP3    H152012   6.451   1.848  15.813 -0.1835 -0.4634 -0.2033
10199TIP3    H252013   6.461   1.915  15.678  0.1334  0.6952  0.3822
10200TIP3   OH252014   0.276   4.830  15.235 -0.3918  0.0873 -0.0442
10200TIP3    H152015   0.187   4.826  15.202 -0.9145  1.1154  1.1883
10200TIP3    H252016   0.329   4.788  15.166 -1.7173  0.0852 -1.0906
10201TIP3   OH252017   1.549   6.243  10.680 -0.0078 -0.1542 -0.0104
10201TIP3    H152018   1.593   6.189  10.615 -0.4834  0.6229 -1.0084
10201TIP3    H252019   1.524   6.322  10.632 -0.5158  0.3672  1.0815
10202TIP3   OH252020   2.802   3.341   3.146  0.9619  0.2505  0.4674
10202TIP3    H152021   2.832   3.404   3.212  1.4878 -1.3172  1.7665
10202TIP3    H252022   2.706   3.345   3.151  0.9521 -1.4049  2.9439
10203TIP3   OH252023   5.998   4.186  10.804 -0.0369 -0.5021  0.4394
10203TIP3    H152024   6.026   4.274  10.778  3.2884 -1.4643  0.2979
10203TIP3    H252025   6.005   4.134  10.723  0.6173 -1.4215  1.0727
10204TIP3   OH252026   3.689   0.133   3.517 -0.2610 -0.1216  0.4708
10204TIP3    H152027   3.709   0.226   3.524  1.0903 -0.3472 -0.0652
10204TIP3    H252028   3.655   0.123   3.428  0.3091 -0.2486  0.2619
10205TIP3   OH252029   0.421   1.838   3.235  0.2874  0.2090  0.1819
10205TIP3    H152030   0.363   1.794   3.296  0.3560  0.6312  0.5535
10205TIP3    H252031   0.408   1.932   3.251  0.7656  0.3156 -0.0094
10206TIP3   OH252032   1.667   6.151   3.611 -0.1433  0.1905  0.1386
10206TIP3    H152033   1.733   6.203   3.656 -1.4795  1.2136  0.9730
10206TIP3    H252034   1.695   6.060   3.623  0.7332  0.5734  1.0684
10207TIP3   OH252035   5.007   6.779   2.583 -0.4295 -0.1722  0.0281
10207TIP3    H152036   4.951   6.788   2.660  1.0193  1.6693  0.9653
10207TIP3    H252037   4.947   6.779   2.509 -1.6984  2.0539  0.9719
10208TIP3   OH252038   5.271   2.465  13.105  0.6554 -0.0177 -0.0879
10208TIP3    H152039   5.271   2.371  13.125 -1.3623 -0.0094  0.1447
10208TIP3    H252040   5.319   2.473  13.023 -2.4092 -1.8025 -2.2361
10209TIP3   OH252041   6.634   3.999  12.719  0.2549 -0.1914 -0.1494
10209TIP3    H152042   6.634   3.905  12.735 -0.4318 -0.2374 -0.3573
10209TIP3    H252043   6.619   4.007  12.624 -0.1667  0.1250 -0.0609
10210TIP3   OH252044   1.030   3.694   5.165 -0.0196  0.1850  0.2550
10210TIP3    H152045   1.110   3.660   5.125  1.0044  1.8657  0.7639
10210TIP3    H252046   0.973   3.717   5.092 -0.4178 -1.8058 -0.1003
10211TIP3   OH252047   2.285   6.009  13.203 -0.2838  0.1029  0.0302
10211TIP3    H152048   2.284   5.988  13.297  0.2881 -1.0078 -0.1966
10211TIP3    H252049   2.249   5.930  13.161 -1.6154  1.0204 -0.6217
10212TIP3   OH252050   3.803   5.887  14.360 -0.4550 -0.4344  0.2938
10212TIP3    H152051   3.895   5.906  14.342 -0.0124  1.3397  3.5852
10212TIP3    H252052   3.772   5.842  14.282  2.8299  0.0878 -1.5020
10213TIP3   OH252053   5.381   0.515   2.713 -0.2996 -0.1377  0.2429
10213TIP3    H152054   5.349   0.568   2.787 -1.4518  0.1474 -0.4316
10213TIP3    H252055   5.328   0.544   2.639  1.2075 -0.0281 -0.8324
10214TIP3   OH252056   6.827   1.059  15.507 -0.2587 -0.6018  0.0426
10214TIP3    H152057   6.757   1.043  15.571 -0.6189  0.4618 -0.0637
10214TIP3    H252058   6.906   1.068  15.561 -0.4171 -0.5409  0.2664
10215TIP3   OH252059   1.215   5.882   5.643  0.5170 -0.3935  0.3080
10215TIP3    H152060   1.251   5.793   5.646  1.4633 -0.2292 -2.7707
10215TIP3    H252061   1.285   5.936   5.607 -1.0180  1.0023 -0.7754
10216TIP3   OH252062   5.357   2.195   3.201  0.3502 -0.8323  0.2329
10216TIP3    H152063   5.298   2.262   3.235  1.3756 -0.0930  0.5917
10216TIP3    H252064   5.430   2.193   3.263  0.4874 -2.0708  0.0597
10217TIP3   OH252065   3.560   2.840   3.618  0.3901  0.1903 -0.0219
10217TIP3    H152066   3.579   2.909   3.555 -0.2723  0.2451 -0.1770
10217TIP3    H252067   3.502   2.881   3.682 -2.5115 -0.9203 -1.7350
10218TIP3   OH252068   3.484   5.563  10.930 -0.3679 -0.1083 -0.5955
10218TIP3    H152069   3.491   5.477  10.971 -0.2978 -0.4387 -1.2787
10218TIP3    H252070   3.509   5.548  10.839  1.5505  0.9964 -0.3203
10219TIP3   OH252071   5.653   6.707   5.036  0.1777 -0.2338 -0.3504
10219TIP3    H152072   5.664   6.619   5.001 -0.3228 -0.5845  0.3427
10219TIP3    H252073   5.604   6.694   5.117  1.7993  0.4795  0.8081
10220TIP3   OH252074   2.296   5.430  16.258  0.3709  0.1715  0.1531
10220TIP3    H152075   2.234   5.454  16.328 -0.8579 -0.2031 -0.7758
10220TIP3    H252076   2.365   5.497  16.264 -1.3560  2.1128 -0.3408
10221TIP3   OH252077   0.434   0.902  10.186 -0.4437 -0.1912  0.5389
10221TIP3    H152078   0.417   0.926  10.277  0.7309  1.2051  0.4346
10221TIP3    H252079   0.530   0.904  10.178 -0.5528  0.4668 -0.9014
10222TIP3   OH252080   1.974   1.971   5.076 -0.4515 -0.1324  0.5694
10222TIP3    H152081   2.068   1.985   5.067 -0.7809  2.7223  0.6270
10222TIP3    H252082   1.935   2.055   5.054 -2.8988 -0.6802  2.3936
10223TIP3   OH252083   5.078   3.420   1.251 -0.1200 -0.0139 -0.1543
10223TIP3    H152084   5.137   3.389   1.320 -0.7523  0.1099  0.4505
10223TIP3    H252085   4.995   3.436   1.295 -0.4847  0.2512 -0.9122
10224TIP3   OH252086   6.837   6.450  13.987 -0.4601  0.2846 -0.2694
10224TIP3    H152087   6.842   6.391  14.062  0.6930  0.9783  0.2158
10224TIP3    H252088   6.916   6.430  13.936  0.0068  1.4649 -0.0382
10225TIP3   OH252089   1.482   2.392  14.777  0.1603  0.2729 -0.3033
10225TIP3    H152090   1.420   2.465  14.785 -1.0468 -0.4613 -2.4025
10225TIP3    H252091   1.552   2.425  14.721  0.3718  0.2703 -0.0449
10226TIP3   OH252092   3.541   2.647  13.617  0.1738  0.1062  0.3425
10226TIP3    H152093   3.561   2.596  13.696 -1.1813 -0.1030  0.5708
10226TIP3    H252094   3.463   2.606  13.580  0.9510  0.0306 -1.2931
10227TIP3   OH252095   3.113   4.821   1.702 -0.7417  0.4016  0.0218
10227TIP3    H152096   3.098   4.901   1.651 -0.2180  0.0173 -0.7496
10227TIP3    H252097   3.027   4.799   1.737 -0.6089  2.2647  1.7140
10228TIP3   OH252098   1.219   3.033   5.271  0.3814  0.2202  0.1652
10228TIP3    H152099   1.215   3.051   5.177 -1.0964  1.1198  0.3680
10228TIP3    H252100   1.294   3.084   5.303 -0.7760  2.1988 -0.1001
10229TIP3   OH252101   6.722   2.996   3.353 -0.2381  0.3633 -0.1349
10229TIP3    H152102   6.757   2.943   3.282 -2.6622 -0.0165 -1.1368
10229TIP3    H252103   6.685   3.073   3.310 -2.0180 -0.0106  0.6282
10230TIP3   OH252104   6.753   2.369  11.152 -0.2898  0.5213 -0.1944
10230TIP3    H152105   6.817   2.413  11.096  0.4524  1.6128  1.4322
10230TIP3    H252106   6.668   2.389  11.112  0.3365 -1.2474 -2.5905
10231TIP3   OH252107   0.326   1.202  11.319  0.1978  0.0179 -0.2016
10231TIP3    H152108   0.291   1.119  11.287  1.7909 -0.9436  0.3925
10231TIP3    H252109   0.421   1.192  11.311  0.4749  1.2550  1.1602
10232TIP3   OH252110   4.866   3.060  10.731 -0.4250  0.6104 -0.5194
10232TIP3    H152111   4.795   3.123  10.747 -0.3518  0.8833 -1.2175
10232TIP3    H252112   4.822   2.975  10.724 -0.6403  0.7255 -0.5733
10233TIP3   OH252113   6.601   2.379  13.760  0.6350  0.1729 -0.1889
10233TIP3    H152114   6.617   2.441  13.689 -0.0324  1.8568  1.0854
10233TIP3    H252115   6.537   2.317  13.724  2.6092 -0.9186 -2.0731
10234TIP3   OH252116   0.410   1.868  13.867  0.2671 -0.1928  0.3824
10234TIP3    H152117   0.487   1.837  13.820  2.4043  2.5632  1.7746
10234TIP3    H252118   0.350   1.897  13.799  0.5728 -2.0362 -0.7267
10235TIP3   OH252119   3.826   1.696   1.032 -0.1815  0.0027 -0.1601
10235TIP3    H152120   3.875   1.735   1.104  0.7766  0.2632 -0.9266
10235TIP3    H252121   3.766   1.764   1.003 -0.6153 -0.1256  0.4240
10236TIP3   OH252122   1.438   0.772   1.935  0.3114  0.3131 -0.3498
10236TIP3    H152123   1.513   0.774   1.994  0.7272  0.2825 -0.8784
10236TIP3    H252124   1.436   0.682   1.903 -0.2246  0.1910  0.0066
10237TIP3   OH252125   6.255   4.587   4.492 -0.4758  0.2644 -0.6033
10237TIP3    H152126   6.233   4.680   4.483  1.7820  1.0850  1.4333
10237TIP3    H252127   6.183   4.551   4.545 -0.3746  1.3126  0.2674
10238TIP3   OH252128   1.506   1.098  16.547 -0.2486  0.3014  0.0244
10238TIP3    H152129   1.457   1.078  16.627 -0.5644  1.3612  0.1097
10238TIP3    H252130   1.558   1.019  16.531 -3.2166 -1.5685 -1.0550
10239TIP3   OH252131   0.753   0.083   3.173 -0.2963 -0.2083  0.0876
10239TIP3    H152132   0.825   0.101   3.112 -1.2920 -1.9627 -1.7400
10239TIP3    H252133   0.792   0.092   3.260  1.0198  3.1372 -0.6915
10240TIP3   OH252134   0.887   0.455  13.135 -0.1739  0.5281 -0.1319
10240TIP3    H152135   0.908   0.546  13.153 -0.8603  0.2002  2.8608
10240TIP3    H252136   0.971   0.409  13.138  0.0935  0.9377 -1.0241
10241TIP3   OH252137   6.835   0.329   1.361 -0.1166  0.7354 -0.0411
10241TIP3    H152138   6.891   0.265   1.318 -1.3357 -1.2856  1.2118
10241TIP3    H252139   6.853   0.318   1.455 -0.4360  2.1691  0.2145
10242TIP3   OH252140   0.198   1.547  15.541 -0.1335  0.5901 -0.4788
10242TIP3    H152141   0.251   1.588  15.609 -0.4332  0.6374 -0.2703
10242TIP3    H252142   0.133   1.614  15.517  0.4636  0.8711 -1.3837
10243TIP3   OH252143   3.961   6.037  11.653  0.0284  0.0929 -0.0781
10243TIP3    H152144   3.872   6.003  11.665  0.7490 -2.2501 -0.8621
10243TIP3    H252145   3.999   6.036  11.741 -0.5562  0.7018  0.1924
10244TIP3   OH252146   0.959   3.546   4.862 -0.2949  0.1122 -0.2216
10244TIP3    H152147   0.984   3.635   4.886 -0.8205  0.4165 -0.7591
10244TIP3    H252148   1.039   3.495   4.871 -0.1444  0.4990  0.7362
10245TIP3   OH252149   4.071   2.540  12.978  0.7670  0.1503  0.6172
10245TIP3    H152150   4.019   2.544  13.058 -0.1374  1.3365  0.0192
10245TIP3    H252151   4.022   2.483  12.920  0.4499  0.7527  0.2798
10246TIP3   OH252152   4.631   2.328   2.155  0.3955 -0.4007 -0.3760
10246TIP3    H152153   4.679   2.264   2.103  1.2593 -0.1263  0.0681
10246TIP3    H252154   4.678   2.411   2.140  0.5693 -0.2878  0.7045
10247TIP3   OH252155   6.124   2.533   6.153  0.1233 -0.3199 -0.2607
10247TIP3    H152156   6.084   2.468   6.096  1.9919 -0.8202 -1.0750
10247TIP3    H252157   6.215   2.504   6.163  0.5601  1.2506  0.7463
10248TIP3   OH252158   4.146   3.438   2.146  0.4621  0.4091 -0.8470
10248TIP3    H152159   4.095   3.361   2.171  0.4056  0.9159  0.6611
10248TIP3    H252160   4.085   3.511   2.156  0.8736  0.7925 -1.0971
10249TIP3   OH252161   2.560   5.594  12.778  0.0294 -0.6842  0.5337
10249TIP3    H152162   2.565   5.656  12.850 -1.1003 -0.5411  0.4936
10249TIP3    H252163   2.534   5.511  12.819 -2.9006 -0.0864  0.0503
10250TIP3   OH252164   1.345   5.522   3.482 -0.3759  0.0677 -0.0199
10250TIP3    H152165   1.417   5.461   3.497  0.5445  0.9865 -0.5680
10250TIP3    H252166   1.275   5.469   3.445  0.3098 -0.6915 -0.2409
10251TIP3   OH252167   0.455   4.773   2.615 -0.5427  0.2057 -0.1620
10251TIP3    H152168   0.474   4.781   2.709 -1.7598  0.3689  0.0985
10251TIP3    H252169   0.442   4.864   2.586  1.1005  0.2725 -0.8089
10252TIP3   OH252170   3.248   5.442  12.317  0.4731 -0.2384 -0.6734
10252TIP3    H152171   3.278   5.527  12.349 -0.3115 -0.0125 -0.5125
10252TIP3    H252172   3.158   5.458  12.287  0.3845 -0.9667 -0.8231
10253TIP3   OH252173   1.157   5.931   3.955  0.0771 -0.2323  0.2729
10253TIP3    H152174   1.214   5.906   3.882 -1.6837 -1.4254 -0.7637
10253TIP3    H252175   1.131   6.021   3.934 -0.6714 -0.6735 -0.7831
10254TIP3   OH252176   5.050   4.363   2.827 -0.1176 -0.2575  0.2900
10254TIP3    H152177   5.133   4.411   2.822 -0.4837  0.4859  1.0394
10254TIP3    H252178   5.076   4.271   2.833  0.5680 -0.4059 -3.1457
10255TIP3   OH252179   1.724   6.282  15.474  0.2415 -0.0031 -0.4986
10255TIP3    H152180   1.796   6.308  15.530  1.3279 -0.1853 -1.7509
10255TIP3    H252181   1.685   6.207  15.519  2.2562 -1.3345 -0.8314
10256TIP3   OH252182   3.318   3.219  14.071 -0.0831 -0.4817  0.0377
10256TIP3    H152183   3.392   3.275  14.095 -0.6729  0.1335  0.4319
10256TIP3    H252184   3.349   3.169  13.995  1.3563 -1.4867  1.2190
10257TIP3   OH252185   2.274   0.337  13.568  0.1201 -0.2125 -0.1028
10257TIP3    H152186   2.189   0.349  13.525 -0.9070 -1.2082  1.5195
10257TIP3    H252187   2.262   0.258  13.622  1.7567  0.2097  0.9463
10258TIP3   OH252188   3.159   1.905   4.094 -0.2942 -0.4612  0.1758
10258TIP3    H152189   3.069   1.939   4.096  0.1058  0.6037  1.0052
10258TIP3    H252190   3.185   1.902   4.185  0.5658 -0.6673 -0.0715
10259TIP3   OH252191   3.678   3.747  16.290 -0.6733  0.8442  0.2550
10259TIP3    H152192   3.773   3.736  16.283 -0.5482  1.6452  0.5769
10259TIP3    H252193   3.643   3.658  16.285  0.1366  0.4897  0.6771
10260TIP3   OH252194   4.319   1.177   0.295  0.2210 -0.1238  0.2563
10260TIP3    H152195   4.359   1.092   0.276  0.9236 -0.0472  1.2872
10260TIP3    H252196   4.323   1.224   0.211  1.9306 -0.2817  0.2045
10261TIP3   OH252197   4.870   5.618  14.790 -0.5400 -0.1719 -0.2086
10261TIP3    H152198   4.788   5.663  14.768  0.2747  0.8676 -1.2447
10261TIP3    H252199   4.860   5.594  14.882 -1.5923  0.8790 -0.0174
10262TIP3   OH252200   6.579   4.103  11.545  0.2456 -0.0552 -0.5539
10262TIP3    H152201   6.564   4.129  11.636  1.6442  0.4185 -0.4461
10262TIP3    H252202   6.643   4.033  11.550  0.6838  0.2900 -1.1979
10263TIP3   OH252203   5.003   2.434   0.712  0.0622 -0.2236  0.5393
10263TIP3    H152204   5.088   2.453   0.751  1.3207 -0.1128 -2.0770
10263TIP3    H252205   4.973   2.519   0.678  1.1268 -0.9630 -2.5450
10264TIP3   OH252206   5.259   0.867  10.664  0.1358 -0.0312  0.4134
10264TIP3    H152207   5.279   0.941  10.722 -0.6225  1.8396 -1.5465
10264TIP3    H252208   5.185   0.898  10.612  0.2041 -1.9610 -0.9129
10265TIP3   OH252209   5.131   4.609  10.989 -0.1909 -0.2089 -0.2301
10265TIP3    H152210   5.164   4.666  10.920  1.1129 -1.3078 -0.5589
10265TIP3    H252211   5.036   4.611  10.978 -0.1085  1.0568 -0.8810
10266TIP3   OH252212   3.113   5.006  14.305  0.2006  0.5899  0.4683
10266TIP3    H152213   3.126   5.038  14.394  0.6571 -1.0674  1.0199
10266TIP3    H252214   3.034   5.052  14.275 -0.8770  0.0412  2.2900
10267TIP3   OH252215   3.772   1.078   5.471 -0.4603  0.1951 -0.0047
10267TIP3    H152216   3.677   1.079   5.477 -0.5084 -2.4156  0.8991
10267TIP3    H252217   3.802   1.073   5.562  0.5327  0.4811 -0.3018
10268TIP3   OH252218   6.350   2.647  13.123  0.6111 -0.2259  0.2204
10268TIP3    H152219   6.304   2.581  13.174  1.4479 -0.7459  0.3276
10268TIP3    H252220   6.403   2.597  13.061  2.3820  0.2651  1.2572
10269TIP3   OH252221   0.998   2.120  11.335 -0.5863  0.0966  0.0366
10269TIP3    H152222   1.054   2.048  11.363  2.1935  1.0794 -2.4280
10269TIP3    H252223   0.952   2.087  11.258  1.9775  1.2099 -2.1691
10270TIP3   OH252224   2.229   5.682  10.627 -0.0704 -0.2765 -0.5376
10270TIP3    H152225   2.204   5.591  10.640  0.5507 -0.3275  0.3589
10270TIP3    H252226   2.306   5.695  10.683 -0.6704  1.0345  0.0381
10271TIP3   OH252227   1.233   5.283  11.440 -0.1273  0.0421 -0.6507
10271TIP3    H152228   1.203   5.313  11.526  2.2960  0.9001 -0.0167
10271TIP3    H252229   1.299   5.348  11.414 -0.8809 -0.1181 -3.2537
10272TIP3   OH252230   0.991   1.862   4.598 -0.5423 -0.4943  0.1086
10272TIP3    H152231   1.040   1.817   4.667  0.7663 -0.5564 -0.8336
10272TIP3    H252232   1.044   1.851   4.520 -2.3180 -1.0141 -1.0942
10273TIP3   OH252233   2.387   4.394  13.957  0.0493 -0.2307  0.0897
10273TIP3    H152234   2.364   4.475  13.912 -0.1524  0.3287  1.1448
10273TIP3    H252235   2.332   4.327  13.917  0.3492  0.1122 -0.9185
10274TIP3   OH252236   4.720   2.150   2.529 -0.3161 -0.0108  0.6867
10274TIP3    H152237   4.660   2.223   2.539 -0.1078  0.2704 -0.0390
10274TIP3    H252238   4.751   2.131   2.618  1.0420  1.9791  0.6889
10275TIP3   OH252239   6.424   1.560  16.666 -0.1569 -0.0790  0.0309
10275TIP3    H152240   6.467   1.477  16.687 -1.1502 -0.3985  0.9200
10275TIP3    H252241   6.403   1.598  16.751 -0.3403  0.7514 -0.3794
10276TIP3   OH252242   3.974   1.914   1.123  0.3401  0.0601  0.3145
10276TIP3    H152243   3.912   1.945   1.189 -2.2672  0.1207 -1.9504
10276TIP3    H252244   3.977   1.984   1.058  0.1898 -1.2902 -1.2163
10277TIP3   OH252245   0.744   1.541   5.023  0.1421  0.2883 -0.6164
10277TIP3    H152246   0.698   1.490   5.091  2.2411  2.4164  2.7011
10277TIP3    H252247   0.674   1.575   4.968 -2.2503  1.7105  2.9480
10278TIP3   OH252248   1.404   2.584  15.724  0.1931  0.8610 -0.0283
10278TIP3    H152249   1.383   2.535  15.644 -0.0410  1.4857 -0.3622
10278TIP3    H252250   1.399   2.676  15.697 -0.1938  1.0901  0.7837
10279TIP3   OH252251   0.667   3.779  15.633 -0.1384 -0.2558  0.1506
10279TIP3    H152252   0.594   3.720  15.652  1.8500 -2.2422  2.2996
10279TIP3    H252253   0.670   3.838  15.708 -0.1153  0.4431 -0.3945
10280TIP3   OH252254   1.916   1.414  14.634  0.0331 -0.1189  0.4720
10280TIP3    H152255   1.938   1.334  14.587 -1.1896 -0.5182  0.5413
10280TIP3    H252256   1.960   1.484  14.585  1.4041 -0.8512  0.6176
10281TIP3   OH252257   0.741   6.743   4.183  0.1513  0.1044  0.3405
10281TIP3    H152258   0.725   6.829   4.144  0.5829 -0.0407 -0.1663
10281TIP3    H252259   0.805   6.760   4.253  1.0367  0.0578 -0.4323
10282TIP3   OH252260   1.539   1.032   2.464  0.1944  0.1493  0.2120
10282TIP3    H152261   1.479   1.106   2.456  1.0365  0.6611 -2.0861
10282TIP3    H252262   1.521   0.995   2.551 -1.1059  2.2728  0.9060
10283TIP3   OH252263   4.936   0.736  14.992 -0.6717 -0.0104  0.0827
10283TIP3    H152264   4.845   0.709  15.008 -0.0713 -1.9789  0.4890
10283TIP3    H252265   4.988   0.671  15.039  0.9535  1.3755  0.2599
10284TIP3   OH252266   3.466   3.902  16.227  0.5884  0.7525  0.3166
10284TIP3    H152267   3.388   3.858  16.260  0.0413  1.2056 -0.3493
10284TIP3    H252268   3.538   3.843  16.249  0.1017  0.4852  1.2338
10285TIP3   OH252269   5.687   5.363   2.556 -0.1107 -0.5271 -0.1692
10285TIP3    H152270   5.778   5.357   2.587 -0.1983  0.2935  0.2616
10285TIP3    H252271   5.693   5.345   2.462  0.1877 -2.8420  0.2216
10286TIP3   OH252272   3.630   1.624  10.772  0.0816 -0.3187 -0.3976
10286TIP3    H152273   3.628   1.529  10.765  0.5934 -0.5318  1.7888
10286TIP3    H252274   3.595   1.655  10.688 -1.4963 -2.4340 -0.5968
10287TIP3   OH252275   3.249   1.333  15.687 -0.2201 -0.1512 -0.2967
10287TIP3    H152276   3.290   1.275  15.751  0.2772 -0.3739 -0.8107
10287TIP3    H252277   3.257   1.420  15.726 -0.9929 -0.4175  0.4900
10288TIP3   OH252278   2.994   3.473  11.037 -0.1221  0.2222 -0.2077
10288TIP3    H152279   2.968   3.564  11.050 -0.5709  0.1130 -0.3152
10288TIP3    H252280   3.034   3.447  11.120  1.5125  1.0045 -0.6903
10289TIP3   OH252281   3.974   4.808  15.488  0.7531 -0.5394 -0.4241
10289TIP3    H152282   3.973   4.797  15.583  1.1778 -0.2140 -0.3751
10289TIP3    H252283   3.883   4.795  15.461  0.3047  0.9287  0.2272
10290TIP3   OH252284   1.240   3.657  13.781  0.7399 -0.0004  0.2468
10290TIP3    H152285   1.192   3.681  13.860  1.3340  0.2460  0.5355
10290TIP3    H252286   1.276   3.571  13.801  5.9887  2.3407  2.7276
10291TIP3   OH252287   0.406   1.923  12.590 -0.0037  0.2295 -0.1311
10291TIP3    H152288   0.461   1.918  12.512 -0.5962  0.6133 -0.5841
10291TIP3    H252289   0.425   2.009  12.628  0.4407 -0.0416  0.2732
10292TIP3   OH252290   6.476   2.505  16.129  0.0060  0.1682  0.2711
10292TIP3    H152291   6.386   2.495  16.160  0.2615  2.5237  2.1015
10292TIP3    H252292   6.479   2.593  16.092  1.6934  0.4354  0.9250
10293TIP3   OH252293   0.878   2.563   4.532  0.2090  0.1720 -0.1388
10293TIP3    H152294   0.805   2.550   4.592  1.1845 -0.0337  1.0558
10293TIP3    H252295   0.955   2.569   4.589  1.4170 -1.7522 -1.4374
10294TIP3   OH252296   1.918   3.904  10.003  0.2463 -0.6012  0.0251
10294TIP3    H152297   1.975   3.947   9.940 -0.7789 -0.3289 -0.7371
10294TIP3    H252298   1.900   3.970  10.070 -0.5529 -0.1206 -0.6439
10295TIP3   OH252299   5.658   2.410  11.269 -0.3071  0.3360 -0.1200
10295TIP3    H152300   5.684   2.427  11.179  0.9540  1.3611  0.4048
10295TIP3    H252301   5.575   2.363  11.262  1.9371 -4.0234 -1.9810
10296TIP3   OH252302   5.741   0.529   3.860  0.3305  0.0084 -0.3534
10296TIP3    H152303   5.744   0.621   3.833 -0.5755  0.5697  1.3177
10296TIP3    H252304   5.657   0.520   3.905  0.0918 -1.8325 -1.0724
10297TIP3   OH252305   5.837   5.585  11.754  0.0233 -0.1429  0.4513
10297TIP3    H152306   5.933   5.576  11.754  0.2365  1.5935 -0.6114
10297TIP3    H252307   5.821   5.668  11.799 -0.8397  0.4226 -0.8206
10298TIP3   OH252308   5.558   2.432   3.864  0.2711 -0.4777 -0.1336
10298TIP3    H152309   5.624   2.370   3.894 -0.4258 -1.1370  0.0640
10298TIP3    H252310   5.606   2.493   3.809  1.3534  0.0036  1.2632
10299TIP3   OH252311   1.618   0.798  14.188  0.0879 -0.6855  0.4905
10299TIP3    H152312   1.585   0.753  14.265  0.2806 -0.5368  0.6612
10299TIP3    H252313   1.552   0.865  14.168  0.0970 -0.6448  0.5977
10300TIP3   OH252314   2.912   6.072   0.938 -0.1783 -0.4041  0.5342
10300TIP3    H152315   2.825   6.102   0.910  0.7625  1.0180 -1.0410
10300TIP3    H252316   2.896   6.024   1.019 -2.3403  0.5071  0.7007
10301TIP3   OH252317   5.594   5.181   3.119  0.4422 -0.7820  0.1658
10301TIP3    H152318   5.593   5.269   3.156  0.2855 -0.4145 -0.6845
10301TIP3    H252319   5.507   5.170   3.079  1.4031 -0.1710 -2.2916
10302TIP3   OH252320   5.964   2.555  12.682  0.1865 -0.5022 -0.9602
10302TIP3    H152321   5.876   2.536  12.716  0.9627 -2.5615  0.0262
10302TIP3    H252322   5.973   2.497  12.607  0.9578 -0.7636 -0.6638
10303TIP3   OH252323   2.933   2.056   2.964  0.0304 -0.7514  0.5110
10303TIP3    H152324   2.847   2.097   2.975  0.4092 -0.5568  3.2510
10303TIP3    H252325   2.934   1.983   3.026  2.0470 -0.3733  1.0074
10304TIP3   OH252326   3.483   5.174  13.819 -0.0624  0.2800 -0.4579
10304TIP3    H152327   3.392   5.173  13.848  0.2089 -1.3115  0.4648
10304TIP3    H252328   3.527   5.231  13.882  0.1995 -1.7875  1.3392
10305TIP3   OH252329   4.151   6.369   1.210 -0.1790 -0.1901 -0.4230
10305TIP3    H152330   4.222   6.312   1.182  0.2834 -0.9417  1.9903
10305TIP3    H252331   4.072   6.326   1.178  0.3211 -0.5945 -1.1381
10306TIP3   OH252332   1.391   3.110  12.797  0.4454  0.7429 -0.6408
10306TIP3    H152333   1.415   3.034  12.849  1.4698  0.5719 -1.3320
10306TIP3    H252334   1.348   3.074  12.720  0.2361  0.9114 -0.6041
10307TIP3   OH252335   3.276   2.650   1.651 -0.0568 -0.4776 -0.1387
10307TIP3    H152336   3.349   2.666   1.711  0.2799 -0.8766 -0.4444
10307TIP3    H252337   3.289   2.561   1.620 -0.5750 -0.4888 -0.3336
10308TIP3   OH252338   2.774   1.152  12.763 -0.4092 -0.0425 -0.3371
10308TIP3    H152339   2.696   1.207  12.773  0.0459  0.3398  1.4620
10308TIP3    H252340   2.818   1.157  12.848  0.4219 -2.0156 -0.6028
10309TIP3   OH252341   5.846   5.722  15.864 -0.2815 -0.3416  0.1726
10309TIP3    H152342   5.800   5.751  15.786 -1.8753 -0.6801  0.9264
10309TIP3    H252343   5.803   5.768  15.936 -1.3223 -2.6771  1.1790
10310TIP3   OH252344   4.725   4.764   2.820 -0.4559  0.0277 -0.7386
10310TIP3    H152345   4.783   4.753   2.896 -0.4096 -0.1862 -0.8015
10310TIP3    H252346   4.714   4.675   2.786 -1.6200 -0.0643 -0.1479
10311TIP3   OH252347   2.966   0.108  12.111 -0.3138  0.2130 -0.8369
10311TIP3    H152348   2.889   0.060  12.083  0.5974 -1.5984 -0.4078
10311TIP3    H252349   3.039   0.050  12.089  0.7732  1.0167  0.5288
10312TIP3   OH252350   6.408   0.470   5.561 -0.5366 -0.1632 -0.0243
10312TIP3    H152351   6.461   0.490   5.484 -2.0041  1.5325 -0.6550
10312TIP3    H252352   6.470   0.472   5.634  0.2601  2.0950 -0.6918
10313TIP3   OH252353   6.056   3.587  11.532 -0.0307  0.0965  0.2197
10313TIP3    H152354   6.022   3.595  11.621 -2.0760 -0.3237 -0.4507
10313TIP3    H252355   6.026   3.666  11.487  2.5898  1.2412  0.3158
10314TIP3   OH252356   4.465   6.653  16.135 -0.1450  0.0759 -0.0789
10314TIP3    H152357   4.487   6.726  16.077 -1.8269 -0.6699 -1.7877
10314TIP3    H252358   4.471   6.575  16.079 -1.3331 -0.7284  0.8521
10315TIP3   OH252359   6.727   0.379   4.598  0.1340 -0.1421  0.1182
10315TIP3    H152360   6.790   0.319   4.639 -0.8500 -0.8799  0.6115
10315TIP3    H252361   6.647   0.327   4.590 -1.0662  1.3836  1.4711
10316TIP3   OH252362   3.734   2.294  13.807 -0.2646  0.2280 -0.2131
10316TIP3    H152363   3.829   2.300  13.808 -0.2020 -0.3890 -1.0210
10316TIP3    H252364   3.703   2.384  13.811  0.3890  0.5433 -1.6608
10317TIP3   OH252365   2.903   5.000   4.866  0.3984  0.3847 -0.3449
10317TIP3    H152366   2.817   5.024   4.831 -0.1657  0.7562  1.2211
10317TIP3    H252367   2.884   4.951   4.946  1.6391  1.0865  0.4159
10318TIP3   OH252368   4.307   3.615  14.184  0.0436  0.1191 -0.5454
10318TIP3    H152369   4.342   3.534  14.221 -1.4509 -0.8249 -1.0816
10318TIP3    H252370   4.245   3.647  14.249  0.2347  0.5424 -0.5692
10319TIP3   OH252371   3.649   2.785   2.238  0.2576 -0.7424  0.1799
10319TIP3    H152372   3.562   2.780   2.279  0.3227 -1.2778  0.2692
10319TIP3    H252373   3.654   2.873   2.202 -0.1384 -0.5480  0.5901
10320TIP3   OH252374   6.703   5.475   3.330  0.2715 -0.3644  0.0335
10320TIP3    H152375   6.730   5.566   3.342 -0.8817 -0.1331  1.0085
10320TIP3    H252376   6.648   5.476   3.252 -1.2994  0.1387  1.1159
10321TIP3   OH252377   3.706   3.528   2.459 -0.1854 -0.2768 -0.0626
10321TIP3    H152378   3.766   3.550   2.531 -1.4025 -1.6645  1.4451
10321TIP3    H252379   3.752   3.461   2.409  0.4401  0.2985 -0.2814
10322TIP3   OH252380   6.508   2.075  15.370  0.0101 -1.4013 -0.4013
10322TIP3    H152381   6.422   2.115  15.372  0.3714 -0.2549 -2.9427
10322TIP3    H252382   6.560   2.126  15.432 -0.7321 -0.9884 -0.1081
10323TIP3   OH252383   3.973   5.307  11.422 -0.2390  0.4125  0.6195
10323TIP3    H152384   3.950   5.214  11.420  0.2241  0.3110 -0.4448
10323TIP3    H252385   3.998   5.328  11.332  0.9007  1.2573  1.1058
10324TIP3   OH252386   4.134   2.244  13.196 -0.2432 -0.2565 -0.1866
10324TIP3    H152387   4.158   2.328  13.235  0.9783 -0.8273  0.3484
10324TIP3    H252388   4.040   2.237  13.210 -0.3225  0.9398 -0.0755
10325TIP3   OH252389   4.646   4.784  11.287 -0.2725 -0.1033 -0.5063
10325TIP3    H152390   4.635   4.705  11.233 -2.1053 -0.1038 -0.1981
10325TIP3    H252391   4.588   4.848  11.246  1.5306  1.2873 -1.0277
10326TIP3   OH252392   2.391   2.832   6.027 -0.9839 -0.0128  0.6567
10326TIP3    H152393   2.463   2.848   6.088  0.1404  1.4998 -0.9664
10326TIP3    H252394   2.335   2.909   6.036  0.3430  1.3361 -1.6711
10327TIP3   OH252395   5.085   5.567   2.805  0.5916 -0.1610 -0.0698
10327TIP3    H152396   5.056   5.628   2.873  0.9140  0.3467 -0.3847
10327TIP3    H252397   5.131   5.621   2.742 -0.4185 -0.4867 -1.1311
10328TIP3   OH252398   3.582   0.059  13.326  0.6796 -0.0061  0.3801
10328TIP3    H152399   3.644   0.029  13.392  1.8547 -0.8612 -1.0606
10328TIP3    H252400   3.595   0.154  13.322  1.2735 -0.0738  0.6869
10329TIP3   OH252401   6.366   2.146   0.352 -0.4449  0.3426  0.3314
10329TIP3    H152402   6.442   2.151   0.410 -0.7599 -0.2332  0.8138
10329TIP3    H252403   6.381   2.214   0.287  1.6755 -1.2831 -1.0207
10330TIP3   OH252404   6.046   5.338   0.504 -0.4792  0.1447  0.9096
10330TIP3    H152405   6.073   5.280   0.432 -1.3525  0.6764  0.1417
10330TIP3    H252406   5.951   5.332   0.505 -0.6702  2.1889  0.2601
10331TIP3   OH252407   4.220   1.932  15.003 -0.4151  0.1081 -0.1337
10331TIP3    H152408   4.190   1.856  14.954  0.2862 -1.2441  1.4434
10331TIP3    H252409   4.178   1.924  15.089  1.9621 -0.1770  1.0752
10332TIP3   OH252410   0.221   3.939  10.829  0.0504 -0.1923  0.2495
10332TIP3    H152411   0.146   3.879  10.840  0.0425 -0.2369 -0.0206
10332TIP3    H252412   0.183   4.016  10.786  0.4049 -0.7952 -1.2077
10333TIP3   OH252413   5.029   3.576   5.442  0.1302 -0.0417 -0.2326
10333TIP3    H152414   5.034   3.595   5.348 -1.5513 -0.4711 -0.4521
10333TIP3    H252415   5.103   3.518   5.459 -0.7332 -1.6785 -1.7684
10334TIP3   OH252416   1.902   6.698   1.366  0.6451 -0.5459  0.0881
10334TIP3    H152417   1.833   6.678   1.429 -0.0737  0.9075 -0.1974
10334TIP3    H252418   1.859   6.697   1.281  0.9223  0.4924 -0.0821
10335TIP3   OH252419   1.087   0.051   1.019 -0.5072 -0.5015 -0.3926
10335TIP3    H152420   1.029   0.087   0.951  0.5327 -1.1984 -1.6986
10335TIP3    H252421   1.158   0.115   1.027 -0.6466 -0.4014  0.0812
10336TIP3   OH252422   3.504   4.614  15.547 -0.2766  0.4529 -0.1918
10336TIP3    H152423   3.580   4.664  15.575  1.6129 -1.4866 -1.5184
10336TIP3    H252424   3.433   4.642  15.604  1.3221  2.6545  0.8114
10337TIP3   OH252425   5.357   5.088  12.791  0.2034 -0.3918 -0.4210
10337TIP3    H152426   5.295   5.124  12.854 -0.5638 -1.3516 -0.6233
10337TIP3    H252427   5.441   5.127  12.816 -0.5007  1.1716 -0.3383
10338TIP3   OH252428   1.697   4.917  14.303 -0.4551  0.1016 -0.1005
10338TIP3    H152429   1.628   4.904  14.369 -0.0104 -1.1080  0.1613
10338TIP3    H252430   1.709   5.011  14.300 -1.4523  0.2753  0.5538
10339TIP3   OH252431   1.922   5.668  15.885  0.0522  1.2406  0.5919
10339TIP3    H152432   1.865   5.638  15.814  1.5559 -2.2452  0.6109
10339TIP3    H252433   1.987   5.723  15.842 -0.7173  1.5384 -0.2186
10340TIP3   OH252434   0.075   4.751   1.143 -0.4272 -0.4484 -0.2997
10340TIP3    H152435   0.161   4.769   1.180 -0.4738  0.4262 -0.5806
10340TIP3    H252436   0.080   4.784   1.053 -0.8003 -1.1288 -0.5743
10341TIP3   OH252437   0.015   5.482   4.775  0.0708 -0.4377  0.1241
10341TIP3    H152438  -0.039   5.403   4.779 -0.6596 -0.0146  4.9350
10341TIP3    H252439   0.077   5.473   4.847  2.7482  1.6785 -1.6763
10342TIP3   OH252440   2.565   3.567   4.381  0.4839 -0.1749 -0.6199
10342TIP3    H152441   2.520   3.614   4.311  0.5092 -1.3948 -1.5101
10342TIP3    H252442   2.512   3.488   4.395  0.0323  0.4294  1.3376
10343TIP3   OH252443   4.665   1.965   1.233 -0.5091 -0.4064 -0.5936
10343TIP3    H152444   4.726   1.900   1.266  0.5332  0.9233  0.1820
10343TIP3    H252445   4.592   1.913   1.197 -0.2737 -1.9673  1.0301
10344TIP3   OH252446   0.865   2.649  13.791  1.0283 -0.3808 -0.1666
10344TIP3    H152447   0.930   2.718  13.805  0.6408  0.3442 -1.7486
10344TIP3    H252448   0.898   2.600  13.716  0.0571 -0.3823 -0.6078
10345TIP3   OH252449   0.743   3.205   4.573  0.7616 -0.2370  0.4167
10345TIP3    H152450   0.804   3.134   4.555  2.1344  0.2270  2.6775
10345TIP3    H252451   0.791   3.262   4.635 -1.8541  0.2893  2.1302
10346TIP3   OH252452   3.778   2.610   2.387 -0.1218 -0.9815 -0.3073
10346TIP3    H152453   3.727   2.668   2.330 -1.3234 -0.3286  1.3760
10346TIP3    H252454   3.851   2.664   2.417 -0.2915 -0.8720 -0.0909
10347TIP3   OH252455   4.722   2.400   3.119  0.3649  0.5038 -0.2422
10347TIP3    H152456   4.679   2.322   3.084  0.8147 -0.6517  1.6352
10347TIP3    H252457   4.656   2.469   3.114  0.3193  0.3909 -3.0198
10348TIP3   OH252458   6.073   3.883  14.831 -0.1737 -0.2914 -0.6299
10348TIP3    H152459   5.989   3.895  14.786 -0.6965  0.3888  0.4830
10348TIP3    H252460   6.129   3.952  14.797 -0.8978  0.8909  0.4789
10349TIP3   OH252461   0.892   4.211   3.460 -0.2165  0.1608 -0.1487
10349TIP3    H152462   0.840   4.288   3.482 -1.9531 -1.0182  0.1601
10349TIP3    H252463   0.873   4.195   3.368  0.8858  0.6235 -0.4686
10350TIP3   OH252464   1.225   2.033  15.617 -0.3132 -0.1390  0.0207
10350TIP3    H152465   1.147   2.083  15.595 -0.9613 -0.5207  1.3403
10350TIP3    H252466   1.227   2.032  15.713 -0.1663 -2.3511  0.0563
10351TIP3   OH252467   5.943   1.689  12.276 -0.0082 -0.6191 -0.3698
10351TIP3    H152468   6.004   1.762  12.267  0.0225 -0.2142  2.2103
10351TIP3    H252469   5.983   1.632  12.342 -1.1727 -1.7187 -0.5677
10352TIP3   OH252470   6.231   2.952  10.063  0.2661  0.1050  0.6161
10352TIP3    H152471   6.228   2.975   9.970  3.3096 -1.3918  0.0307
10352TIP3    H252472   6.139   2.934  10.086 -0.4981 -0.0979 -2.2557
10353TIP3   OH252473   6.058   4.269  13.291 -0.3138  0.6428  0.5947
10353TIP3    H152474   5.967   4.241  13.302 -0.3589  0.5186 -0.0652
10353TIP3    H252475   6.100   4.245  13.374 -0.5211 -0.7550  0.3352
10354TIP3   OH252476   0.976   0.918   3.401  0.2350 -0.9079  0.0118
10354TIP3    H152477   0.920   0.894   3.327  1.1269 -1.8915 -0.3585
10354TIP3    H252478   1.025   0.994   3.370  1.4695 -2.0341 -0.8612
10355TIP3   OH252479   6.648   2.336  14.174  0.9317 -0.1838  0.0972
10355TIP3    H152480   6.643   2.242  14.191 -0.1664 -0.3508 -0.9844
10355TIP3    H252481   6.559   2.360  14.147  1.4734  0.9368 -0.7636
10356TIP3   OH252482   3.995   2.671   5.319  0.7719 -0.6119  0.2842
10356TIP3    H152483   3.932   2.743   5.326  1.0182 -0.0670 -2.3493
10356TIP3    H252484   4.037   2.669   5.405 -1.9459 -0.2242  1.7733
10357TIP3   OH252485   3.132   1.593  12.387  0.0470 -0.3180 -0.0142
10357TIP3    H152486   3.164   1.503  12.380  0.3122 -0.4364  2.0824
10357TIP3    H252487   3.044   1.589  12.350  0.9919 -0.8104 -2.3891
10358TIP3   OH252488   2.256   3.136   3.126 -0.2951  0.0477 -0.6930
10358TIP3    H152489   2.220   3.139   3.215  3.3371 -0.5541  0.9905
10358TIP3    H252490   2.255   3.228   3.097 -0.4454  0.4290  0.4505
10359TIP3   OH252491   5.348   0.723  14.678  0.0865 -0.4509  0.0832
10359TIP3    H152492   5.306   0.729  14.592  0.2312  2.5812  0.1242
10359TIP3    H252493   5.281   0.753  14.740  0.7144 -0.3676  0.7364
10360TIP3   OH252494   4.287   2.563   6.157 -0.0575 -0.3579 -0.2707
10360TIP3    H152495   4.285   2.467   6.151  0.4149 -0.3851 -0.0276
10360TIP3    H252496   4.361   2.582   6.215 -1.3825  0.0712  1.3722
10361TIP3   OH252497   1.450   6.150  12.577 -0.3925 -0.3266  0.3020
10361TIP3    H152498   1.360   6.180  12.583 -0.5747 -1.1524  3.1054
10361TIP3    H252499   1.468   6.145  12.483 -3.0738  0.3112 -0.3161
10362TIP3   OH252500   1.962   0.295  12.142 -0.2900  0.0323 -0.3990
10362TIP3    H152501   1.922   0.254  12.065  1.3840  1.1835 -1.9636
10362TIP3    H252502   1.925   0.383  12.144  0.3693  0.3125 -0.4425
10363TIP3   OH252503   0.554   3.525   1.597  0.4201 -0.3214  0.0826
10363TIP3    H152504   0.520   3.614   1.590 -3.2774 -1.6574 -1.6776
10363TIP3    H252505   0.526   3.494   1.683  1.5513  0.0809  0.6208
10364TIP3   OH252506   5.016   5.394  15.498  0.4521 -0.2506  0.2577
10364TIP3    H152507   4.992   5.487  15.493 -0.4085 -0.5018 -2.4483
10364TIP3    H252508   4.933   5.348  15.481  0.9770 -1.4930  0.9798
10365TIP3   OH252509   1.628   4.657   0.757 -0.0036  0.3211  0.9499
10365TIP3    H152510   1.565   4.714   0.713 -0.3029  0.5623  1.6697
10365TIP3    H252511   1.594   4.569   0.744  0.5632  0.2699 -0.3387
10366TIP3   OH252512   4.694   2.495  12.963  0.3366 -0.3286 -0.4075
10366TIP3    H152513   4.775   2.546  12.953 -0.3973  0.6845 -1.4052
10366TIP3    H252514   4.725   2.406  12.982  1.7296 -0.1674 -1.6889
10367TIP3   OH252515   4.403   5.752  11.955  0.3230  0.1358  0.1714
10367TIP3    H152516   4.473   5.730  12.018  0.6017 -0.4280 -0.3330
10367TIP3    H252517   4.392   5.673  11.903  0.5562  0.8131 -0.9303
10368TIP3   OH252518   1.800   0.453  12.766 -0.5269 -0.0151 -0.1168
10368TIP3    H152519   1.883   0.439  12.811 -0.7546 -0.4861  0.1642
10368TIP3    H252520   1.819   0.520  12.700 -0.3674  1.2523  1.1653
10369TIP3   OH252521   2.135   3.768  11.348  0.2707 -0.2614 -0.2456
10369TIP3    H152522   2.039   3.760  11.351  0.3859 -1.8283  1.4622
10369TIP3    H252523   2.165   3.684  11.313  1.0301  0.0208 -0.2886
10370TIP3   OH252524   0.645   0.440  11.342 -0.3160 -0.4008 -0.1715
10370TIP3    H152525   0.682   0.516  11.386  0.2495 -0.8262  0.1062
10370TIP3    H252526   0.557   0.467  11.317 -1.3201 -0.6722  2.7346
10371TIP3   OH252527   3.869   2.378  14.077 -0.0296  0.2593  0.4843
10371TIP3    H152528   3.933   2.357  14.009 -0.2271 -0.8117  0.6089
10371TIP3    H252529   3.880   2.472  14.093  0.4263  0.3995 -0.5981
10372TIP3   OH252530   2.625   6.155  12.457  0.0882 -0.5454 -0.1364
10372TIP3    H152531   2.597   6.104  12.533  1.1923 -1.5485 -0.3804
10372TIP3    H252532   2.687   6.219  12.493 -1.5844  0.9790  0.2331
10373TIP3   OH252533   5.077   0.354   2.452  0.0403  0.2545  0.3217
10373TIP3    H152534   5.072   0.436   2.502  0.0808  0.1410  0.5130
10373TIP3    H252535   5.156   0.311   2.484  1.2957  1.1752 -1.3703
10374TIP3   OH252536   2.574   0.496   3.276 -0.5175  0.5889  0.5885
10374TIP3    H152537   2.482   0.498   3.302 -0.4307 -1.0075  1.1682
10374TIP3    H252538   2.600   0.404   3.287  1.0624  0.9445  0.1403
10375TIP3   OH252539   1.195   3.079   2.594  0.4473  0.2487  0.8365
10375TIP3    H152540   1.217   3.166   2.561  1.1584 -0.1613  0.1781
10375TIP3    H252541   1.101   3.070   2.577  0.9223 -0.3000 -2.0925
10376TIP3   OH252542   4.965   6.505   0.980  0.2396  0.1809  0.6505
10376TIP3    H152543   4.957   6.598   0.962  2.6167  0.4038  0.3771
10376TIP3    H252544   5.011   6.469   0.904 -1.9584 -1.5670  0.0326
10377TIP3   OH252545   3.048   5.929  11.566  0.4024 -0.0586  0.0599
10377TIP3    H152546   2.957   5.900  11.571  0.7118 -0.9468  1.3821
10377TIP3    H252547   3.098   5.857  11.606  1.8557 -0.2619 -1.9928
10378TIP3   OH252548   6.718   0.373  12.967 -0.3525  0.1368 -0.6508
10378TIP3    H152549   6.676   0.377  12.882  0.3111  0.2553 -0.9837
10378TIP3    H252550   6.722   0.465  12.996  1.0670  0.3328 -1.3406
10379TIP3   OH252551   6.197   4.374  15.153 -0.5330  0.0907  0.5915
10379TIP3    H152552   6.103   4.377  15.170 -0.7372  2.1778 -0.5555
10379TIP3    H252553   6.219   4.463  15.123  1.5195 -0.7461 -0.6224
10380TIP3   OH252554   4.360   4.934  12.531 -0.3503 -0.1307  0.1828
10380TIP3    H152555   4.305   4.998  12.486  0.1179 -0.4089 -0.8162
10380TIP3    H252556   4.421   4.903  12.464 -0.1565 -1.1557  0.8022
10381TIP3   OH252557   3.158   0.180   3.569 -0.1114 -0.4158 -0.0082
10381TIP3    H152558   3.078   0.144   3.531 -0.7194 -0.3276  1.1410
10381TIP3    H252559   3.131   0.263   3.609  1.2893  1.6092 -2.8376
10382TIP3   OH252560   6.118   5.908  11.867  0.0358  0.0435 -0.4824
10382TIP3    H152561   6.048   5.921  11.932 -0.3329 -0.6209 -0.7320
10382TIP3    H252562   6.148   5.996  11.846  1.0894  0.2195  1.5786
10383TIP3   OH252563   2.756   3.989  11.192  0.5277  0.3953  0.1909
10383TIP3    H152564   2.762   4.040  11.112  0.9680 -1.1134 -0.7874
10383TIP3    H252565   2.770   4.052  11.262  1.4205  1.5324 -0.9645
10384TIP3   OH252566   4.873   1.373   2.458  0.1451 -0.6174  0.3127
10384TIP3    H152567   4.959   1.358   2.420  0.7591  0.9862  0.9759
10384TIP3    H252568   4.827   1.429   2.395 -1.2094 -2.9878 -0.9768
10385TIP3   OH252569   4.492   0.153   0.940 -0.0813 -1.0343 -0.3828
10385TIP3    H152570   4.430   0.163   0.867  0.3878 -1.0988 -0.8024
10385TIP3    H252571   4.576   0.134   0.897  0.2215 -0.9849  0.1743
10386TIP3   OH252572   5.657   0.825   1.353  0.2798 -0.5641  0.2433
10386TIP3    H152573   5.564   0.845   1.343  0.1926 -1.5696 -1.2326
10386TIP3    H252574   5.695   0.845   1.267  1.5756  0.4710  1.0179
10387TIP3   OH252575   4.075   1.790   2.181 -0.4803  0.1756 -0.5865
10387TIP3    H152576   4.045   1.841   2.256 -0.2430  0.6543 -0.8075
10387TIP3    H252577   3.997   1.744   2.151 -0.2771 -1.1498  0.8079
10388TIP3   OH252578   1.044   6.586  15.727 -0.4135  0.8146 -0.2347
10388TIP3    H152579   1.029   6.660  15.669  0.1733  0.1335 -1.2993
10388TIP3    H252580   1.043   6.623  15.815 -0.9074  1.9458 -0.7030
10389TIP3   OH252581   0.332   0.639   0.623  0.9056 -0.1863  0.0633
10389TIP3    H152582   0.330   0.598   0.709 -1.0507  0.0536  0.1896
10389TIP3    H252583   0.375   0.724   0.637  1.2941 -0.4753  0.6332
10390TIP3   OH252584   3.588   2.729   0.449  0.2540 -0.2045 -0.0931
10390TIP3    H152585   3.522   2.765   0.391  0.9579  0.2980 -0.6009
10390TIP3    H252586   3.599   2.638   0.420 -0.2216 -0.2981  0.0128
10391TIP3   OH252587   6.328   2.411  16.434  0.3805  0.3007 -0.3597
10391TIP3    H152588   6.280   2.472  16.377  0.1350  1.6683  1.2335
10391TIP3    H252589   6.417   2.447  16.437  0.7199 -0.4771 -0.8531
10392TIP3   OH252590   3.817   0.017   2.225 -0.0502 -0.2460  0.2587
10392TIP3    H152591   3.896   0.057   2.262  0.4360  0.1240 -1.0902
10392TIP3    H252592   3.788   0.080   2.159 -0.5039 -1.1511 -0.4158
10393TIP3   OH252593   3.834   1.672   5.932 -0.2337 -0.0342  0.2211
10393TIP3    H152594   3.874   1.585   5.940  1.0227  0.5646  0.6581
10393TIP3    H252595   3.754   1.656   5.881  1.4303 -1.0542 -2.3102
10394TIP3   OH252596   2.032   1.038  11.834 -0.7351  0.0664  0.2116
10394TIP3    H152597   2.107   1.041  11.894 -0.4462 -0.1240 -0.1337
10394TIP3    H252598   2.015   1.130  11.812 -0.8513  0.1359  0.5994
10395TIP3   OH252599   4.456   1.221   3.790 -0.8131 -0.6301  0.3320
10395TIP3    H152600   4.532   1.166   3.775 -0.7949 -0.0868 -1.8972
10395TIP3    H252601   4.422   1.193   3.875  1.0226 -1.8564  0.7073
10396TIP3   OH252602   6.633   0.047   5.359  0.0880  0.1698  0.4735
10396TIP3    H152603   6.546   0.087   5.353  0.3244  0.8100  1.1645
10396TIP3    H252604   6.690   0.117   5.392  1.1921  0.2191 -1.4011
10397TIP3   OH252605   5.562   6.330  12.067  0.6962  0.1180 -0.3276
10397TIP3    H152606   5.527   6.386  12.137 -1.3649 -0.7855 -0.5673
10397TIP3    H252607   5.559   6.385  11.989  0.9848  0.4495 -0.1086
10398TIP3   OH252608   5.220   0.992  14.036  0.0446 -0.0777 -0.0165
10398TIP3    H152609   5.165   1.056  13.992  0.6125 -0.7245 -1.7712
10398TIP3    H252610   5.161   0.944  14.094 -1.3051 -0.8181 -1.9125
10399TIP3   OH252611   0.885   3.576  11.240  0.0002 -0.4748  0.1091
10399TIP3    H152612   0.899   3.583  11.145  0.3432  0.1835  0.2021
10399TIP3    H252613   0.874   3.482  11.255 -1.6689 -0.4541 -0.7963
10400TIP3   OH252614   4.914   0.871  12.587 -0.8139 -0.0556  0.3594
10400TIP3    H152615   4.912   0.956  12.544 -1.0587 -0.6016 -0.7665
10400TIP3    H252616   4.967   0.884  12.665 -0.6865  1.0738  0.0980
10401TIP3   OH252617   6.237   2.931  12.595  0.5019  0.2644 -0.0504
10401TIP3    H152618   6.283   2.855  12.558 -0.0542  0.1102 -0.4372
10401TIP3    H252619   6.147   2.922  12.564  0.2430  0.6452  0.5749
10402TIP3   OH252620   0.869   2.612  13.024  0.3547 -0.3873 -0.6088
10402TIP3    H152621   0.819   2.591  12.945  1.2384 -0.6528 -1.1202
10402TIP3    H252622   0.808   2.599  13.096 -0.4848 -0.0759 -1.2564
10403TIP3   OH252623   5.770   0.674  15.838  0.6074 -0.1747 -0.1473
10403TIP3    H152624   5.702   0.708  15.780 -0.8969 -0.9394  1.1025
10403TIP3    H252625   5.794   0.748  15.893 -0.9789 -0.4930  1.0120
10404TIP3   OH252626   3.736   3.128  14.691 -0.8452  0.4636 -0.4720
10404TIP3    H152627   3.660   3.170  14.731 -1.0959  0.2253 -0.6906
10404TIP3    H252628   3.701   3.047  14.653 -0.7392  0.9446 -1.6560
10405TIP3   OH252629   2.652   1.692   5.445 -0.3388  0.4917 -0.1365
10405TIP3    H152630   2.556   1.699   5.439 -0.3446 -0.3274 -1.9188
10405TIP3    H252631   2.667   1.603   5.477 -0.1907  0.3091 -0.6953
10406TIP3   OH252632   2.812   2.514   0.479  0.0239  0.1190 -0.3346
10406TIP3    H152633   2.822   2.442   0.416 -0.5056  0.5548 -0.9219
10406TIP3    H252634   2.842   2.592   0.432  0.6472  0.2788  0.3209
10407TIP3   OH252635   3.279   3.043  13.375 -0.0728 -0.4130 -0.1432
10407TIP3    H152636   3.207   3.103  13.392 -0.2259 -0.6379  0.0237
10407TIP3    H252637   3.352   3.077  13.427 -0.3900 -0.8086  0.5705
10408TIP3   OH252638   0.510   6.605   2.436  0.1482  0.2825 -0.2296
10408TIP3    H152639   0.464   6.661   2.374  1.0883 -0.3035 -1.4830
10408TIP3    H252640   0.493   6.645   2.522 -1.6656  0.7565 -0.7751
10409TIP3   OH252641   5.610   0.520  14.530 -0.1149 -0.1476  0.5180
10409TIP3    H152642   5.545   0.533  14.461 -0.0807  0.9141  0.6606
10409TIP3    H252643   5.633   0.427  14.525 -0.1279 -0.0977 -0.8869
10410TIP3   OH252644   2.602   4.509  12.971  0.4181  0.6218 -0.3084
10410TIP3    H152645   2.659   4.470  13.038 -1.5316 -0.4481  0.8024
10410TIP3    H252646   2.627   4.464  12.890  1.7696  0.8384 -0.0344
10411TIP3   OH252647   6.169   5.768  15.278  0.2853  0.4259  0.1023
10411TIP3    H152648   6.205   5.853  15.255  0.7214  0.7668  1.8787
10411TIP3    H252649   6.246   5.710  15.284  0.0820  0.1154 -0.2023
10412TIP3   OH252650   3.580   5.809  11.077  0.7921 -0.0519  0.0915
10412TIP3    H152651   3.580   5.782  11.169 -0.8782 -0.0220  0.1345
10412TIP3    H252652   3.546   5.734  11.030 -1.2933  0.9481 -0.1115
10413TIP3   OH252653   2.243   4.163   4.265 -0.3268  0.4727  0.1600
10413TIP3    H152654   2.217   4.085   4.313  2.3526 -0.4491  0.3087
10413TIP3    H252655   2.179   4.229   4.289  0.1482 -0.2480  4.1237
10414TIP3   OH252656   4.616   0.459   1.980 -0.6410 -0.3758 -0.2551
10414TIP3    H152657   4.700   0.504   1.986  0.5308 -2.5225  0.7644
10414TIP3    H252658   4.563   0.514   1.922  1.0959  1.5641 -0.1194
10415TIP3   OH252659   6.411   0.484  13.238  0.0775  0.8155  0.1557
10415TIP3    H152660   6.438   0.546  13.169 -1.4387  1.4286  0.0873
10415TIP3    H252661   6.488   0.428  13.250  1.1054  1.9976 -0.5770
10416TIP3   OH252662   1.673   5.738  15.605 -0.0252  0.0416 -0.0211
10416TIP3    H152663   1.620   5.776  15.535  0.7737  0.4560 -0.4117
10416TIP3    H252664   1.705   5.655  15.570 -0.4747 -0.2502  0.2471
10417TIP3   OH252665   5.967   5.048   3.863 -0.0177 -0.1114  0.0294
10417TIP3    H152666   6.015   4.968   3.883  2.2953  1.3221  0.5930
10417TIP3    H252667   5.993   5.069   3.773 -0.2050  0.2660  0.0627
10418TIP3   OH252668   1.507   6.131  11.902  0.3680 -0.3692  0.1640
10418TIP3    H152669   1.425   6.167  11.867  0.4278 -1.3950 -1.1003
10418TIP3    H252670   1.488   6.113  11.994 -0.4534  0.4658  0.1738
10419TIP3   OH252671   5.135   2.867   4.813 -0.2964  0.3424  0.3665
10419TIP3    H152672   5.041   2.848   4.809 -0.2728  0.3281 -2.2682
10419TIP3    H252673   5.176   2.782   4.827 -0.5913 -0.3339 -2.3043
10420TIP3   OH252674   6.541   3.370  14.821  0.0111  0.2464 -0.0482
10420TIP3    H152675   6.618   3.351  14.875 -0.0644  0.3045  0.0810
10420TIP3    H252676   6.555   3.319  14.741 -0.1640 -0.3198  0.2745
10421TIP3   OH252677   4.499   6.443   5.298 -0.0053  0.4330  0.1688
10421TIP3    H152678   4.478   6.430   5.206  0.2356  0.4382  0.1144
10421TIP3    H252679   4.527   6.357   5.329  0.8070  0.6309  0.0085
10422TIP3   OH252680   0.964   4.641   1.883 -0.1368  0.1804 -0.3833
10422TIP3    H152681   0.941   4.560   1.838 -3.6938  0.0705  1.2495
10422TIP3    H252682   0.929   4.629   1.972  0.7566  2.8612  0.4181
10423TIP3   OH252683   4.375   3.493  12.091 -0.6259  0.1071 -0.0043
10423TIP3    H152684   4.300   3.443  12.059 -1.0186 -0.0329  1.0905
10423TIP3    H252685   4.347   3.526  12.177  0.6969 -0.3003  0.6133
10424TIP3   OH252686   3.283   1.033  16.902 -0.4320 -0.0569  0.8942
10424TIP3    H152687   3.199   1.013  16.944 -0.4430 -0.6532  0.5990
10424TIP3    H252688   3.304   0.955  16.851 -1.4508  1.3580 -1.9148
10425TIP3   OH252689   3.369   5.412   6.142 -0.3997 -0.4104 -0.4353
10425TIP3    H152690   3.340   5.375   6.226 -0.2984  0.6795  0.0905
10425TIP3    H252691   3.437   5.475   6.165  0.4993 -0.9696 -1.4513
10426TIP3   OH252692   6.730   4.313  16.022 -0.1764  0.0449  0.1700
10426TIP3    H152693   6.787   4.287  16.093 -0.7889  3.9109  2.3854
10426TIP3    H252694   6.779   4.381  15.976 -1.1337 -0.0069 -0.9725
10427TIP3   OH252695   0.415   3.141  12.603 -0.2435 -0.0872 -0.2505
10427TIP3    H152696   0.436   3.234  12.610 -1.3393  0.1251  0.4324
10427TIP3    H252697   0.441   3.104  12.687  2.1616 -0.8672 -1.2192
10428TIP3   OH252698   1.608   4.868   4.414 -0.3245  0.9206  0.5227
10428TIP3    H152699   1.695   4.834   4.396 -0.6831 -1.7386  3.1123
10428TIP3    H252700   1.549   4.813   4.361 -0.5734  1.5587  0.1171
10429TIP3   OH252701   3.982   4.266   3.867 -0.0235  0.6755 -0.1927
10429TIP3    H152702   3.899   4.217   3.862  1.4896 -2.0284 -0.8603
10429TIP3    H252703   4.032   4.222   3.935  1.2407  1.6879 -0.4321
10430TIP3   OH252704   5.774   6.101  11.921 -0.3308 -0.1862  0.3509
10430TIP3    H152705   5.720   6.151  11.860  2.2486  1.7267 -0.5502
10430TIP3    H252706   5.780   6.157  11.998 -1.4095 -1.4118  1.3674
10431TIP3   OH252707   6.460   0.253   4.623 -0.1411  0.0766  0.1317
10431TIP3    H152708   6.436   0.262   4.531  0.0417 -1.5810 -0.1103
10431TIP3    H252709   6.471   0.159   4.636  0.8936  0.3588  1.5854
10432TIP3   OH252710   0.870   3.560   4.307  0.0797 -0.1539  0.1137
10432TIP3    H152711   0.831   3.611   4.236  0.9216  1.8996  1.0646
10432TIP3    H252712   0.805   3.491   4.324 -0.8755  0.2627 -1.5397
10433TIP3   OH252713   0.325   0.794   5.316  0.6348 -0.4961 -0.1158
10433TIP3    H152714   0.258   0.727   5.300 -0.1468  0.3820 -0.6205
10433TIP3    H252715   0.320   0.811   5.410  1.6724 -1.9760  0.2506
10434TIP3   OH252716   5.036   3.337  10.775 -0.3308  0.2112 -0.3300
10434TIP3    H152717   5.047   3.430  10.752  1.0165  0.2334  0.3253
10434TIP3    H252718   4.950   3.314  10.739 -0.8437  1.8000 -0.2035
10435TIP3   OH252719   2.530   4.491   5.022  0.5006  0.0824 -0.4804
10435TIP3    H152720   2.502   4.425   5.085  0.8846 -0.4873 -0.8857
10435TIP3    H252721   2.460   4.493   4.957  0.4628  0.1174 -0.4388
10436TIP3   OH252722   4.663   5.332   3.070 -0.2634 -0.1001 -0.6867
10436TIP3    H152723   4.666   5.236   3.073 -0.2299 -0.2097 -2.6333
10436TIP3    H252724   4.711   5.354   2.990 -0.9488  1.5021 -0.6818
10437TIP3   OH252725   0.522   2.578  16.258 -0.2788 -0.2259 -0.3129
10437TIP3    H152726   0.613   2.600  16.242 -0.6495  1.6528  0.0029
10437TIP3    H252727   0.515   2.486  16.233  2.4712 -1.4545  2.6413
10438TIP3   OH252728   6.109   0.444  11.159  0.3966  0.5420 -0.4133
10438TIP3    H152729   6.100   0.475  11.249  1.9016 -0.3273  0.0786
10438TIP3    H252730   6.039   0.379  11.149  1.4405 -0.8650  0.8598
10439TIP3   OH252731   2.010   6.607   4.352 -0.5188  0.1716  0.0199
10439TIP3    H152732   2.082   6.670   4.356 -0.1792 -0.1177 -1.0705
10439TIP3    H252733   1.931   6.659   4.369 -0.0791  0.5196  1.0556
10440TIP3   OH252734   0.455   3.829   0.273  0.6955 -0.2766 -0.5159
10440TIP3    H152735   0.497   3.806   0.357  1.4112  0.7864 -0.5706
10440TIP3    H252736   0.487   3.917   0.254 -0.1174 -0.1888 -1.5056
10441TIP3   OH252737   1.718   2.976   5.590 -1.5728 -0.0044 -0.2877
10441TIP3    H152738   1.787   3.012   5.534 -0.1667 -3.1350 -0.8102
10441TIP3    H252739   1.730   3.018   5.674 -0.2033  0.8363 -0.8771
10442TIP3   OH252740   4.818   1.109   5.291 -0.5670 -0.1175 -0.1574
10442TIP3    H152741   4.905   1.112   5.331 -0.6722  2.0531  0.0628
10442TIP3    H252742   4.771   1.042   5.340  0.3729  0.0928  1.0818
10443TIP3   OH252743   4.114   6.148   5.362  0.4863 -0.1759  0.1322
10443TIP3    H152744   4.134   6.170   5.272 -0.5472 -2.8852 -0.8772
10443TIP3    H252745   4.023   6.118   5.360 -0.6834  2.6519  2.7113
10444TIP3   OH252746   5.336   3.574   4.545 -0.0886  0.4534  0.2050
10444TIP3    H152747   5.428   3.550   4.560 -0.4267 -0.3637  1.0424
10444TIP3    H252748   5.287   3.496   4.567 -0.8506 -0.0685 -2.8897
10445TIP3   OH252749   2.242   6.384  10.918 -0.0666 -0.4103  0.2516
10445TIP3    H152750   2.153   6.400  10.886  0.3733 -2.2331 -2.1182
10445TIP3    H252751   2.272   6.308  10.869  2.1618 -0.9866  2.3454
10446TIP3   OH252752   2.016   3.989   2.853  0.2824  0.0819  0.0092
10446TIP3    H152753   2.015   4.044   2.775  0.7656  0.5212  0.3088
10446TIP3    H252754   2.096   3.937   2.845  0.3732  0.1825  0.2475
10447TIP3   OH252755   4.498   3.651   3.630  0.0866  0.3063  0.7790
10447TIP3    H152756   4.515   3.564   3.595 -1.9502  0.6724 -1.4118
10447TIP3    H252757   4.584   3.693   3.634  0.7990 -0.9494 -0.6259
10448TIP3   OH252758   2.830   5.259   1.230 -0.2817 -0.3662 -0.0173
10448TIP3    H152759   2.788   5.344   1.242 -0.2237 -0.0864 -1.5556
10448TIP3    H252760   2.782   5.219   1.157 -0.7059 -1.9327  1.0508
10449TIP3   OH252761   5.802   2.712   0.557  0.1912  0.0489  0.0999
10449TIP3    H152762   5.765   2.626   0.538  1.0120 -0.4448  0.6934
10449TIP3    H252763   5.773   2.767   0.484 -0.4903 -0.6770 -0.1916
10450TIP3   OH252764   4.628   1.830  10.566 -0.0436 -0.3655  0.1778
10450TIP3    H152765   4.582   1.911  10.541  1.0918 -0.2420 -1.7334
10450TIP3    H252766   4.558   1.768  10.585 -1.0104  0.1876 -1.3980
10451TIP3   OH252767   0.968   2.973  15.232  0.2523 -0.7458  0.0546
10451TIP3    H152768   0.902   2.983  15.163  1.5890 -0.6126 -1.2503
10451TIP3    H252769   0.972   3.059  15.274  2.4622  0.6001 -2.5965
10452TIP3   OH252770   6.805   4.846   3.060 -0.1681  0.3966  0.2336
10452TIP3    H152771   6.820   4.929   3.107 -2.2704  0.6891  0.4777
10452TIP3    H252772   6.760   4.872   2.980 -0.0920 -0.4508 -0.0878
10453TIP3   OH252773   4.743   3.843  14.335  0.0757  0.3931  0.1732
10453TIP3    H152774   4.740   3.936  14.315 -2.7553  0.9157  2.4110
10453TIP3    H252775   4.835   3.818  14.320  0.5599  3.0918 -2.0312
10454TIP3   OH252776   5.098   0.745   4.567  0.1051 -0.0525 -0.0018
10454TIP3    H152777   5.090   0.658   4.605  1.5574  1.1015  3.4252
10454TIP3    H252778   5.013   0.763   4.528 -0.5084 -2.6335 -0.0112
10455TIP3   OH252779   1.271   4.513   1.303 -0.3055  0.2086 -0.4809
10455TIP3    H152780   1.256   4.456   1.227 -1.8351 -0.2056  0.0911
10455TIP3    H252781   1.328   4.461   1.360  0.3785  0.2886 -1.0676
10456TIP3   OH252782   4.420   6.233  11.169  0.0953 -0.5140  0.6169
10456TIP3    H152783   4.504   6.277  11.155 -0.9441  0.5796 -3.8856
10456TIP3    H252784   4.440   6.140  11.155  0.8469 -0.5307  1.6658
10457TIP3   OH252785   0.343   4.393  11.604  0.1079  0.2776 -0.6041
10457TIP3    H152786   0.305   4.479  11.623  2.0439  1.2531 -0.8407
10457TIP3    H252787   0.320   4.376  11.513  0.7442  1.1657 -0.9510
10458TIP3   OH252788   2.542   5.734   5.067 -0.0979  0.1030  0.2767
10458TIP3    H152789   2.454   5.699   5.066  0.5129 -1.5068 -0.4447
10458TIP3    H252790   2.566   5.742   4.974  0.2973  1.1476  0.4494
10459TIP3   OH252791   1.772   3.100  10.808 -0.0446  0.3056 -0.0518
10459TIP3    H152792   1.714   3.026  10.826  1.9330 -1.0457  1.2530
10459TIP3    H252793   1.747   3.167  10.871 -0.0605 -0.3550  0.6599
10460TIP3   OH252794   4.278   5.962   4.220  0.2715  0.4147  0.2829
10460TIP3    H152795   4.216   6.034   4.227  1.1081  1.0678  1.1700
10460TIP3    H252796   4.279   5.940   4.127 -0.2719  1.2946  0.0589
10461TIP3   OH252797   2.748   6.830  14.823  0.5603  0.5774 -0.1114
10461TIP3    H152798   2.812   6.893  14.855 -0.2644  0.3255  2.2839
10461TIP3    H252799   2.689   6.817  14.898 -0.7230 -1.1716 -1.3572
10462TIP3   OH252800   2.436   2.402   2.430  0.5647 -0.0833  0.2144
10462TIP3    H152801   2.361   2.343   2.437  0.9146 -0.8287 -1.6756
10462TIP3    H252802   2.507   2.355   2.474  1.0073 -1.4736 -1.8099
10463TIP3   OH252803   4.265   1.295  12.183 -0.0505  0.0912 -0.8644
10463TIP3    H152804   4.358   1.308  12.164  0.1598  2.2207  1.1175
10463TIP3    H252805   4.221   1.309  12.099  1.1652  3.4334 -1.1005
10464TIP3   OH252806   6.530   2.009  16.039  0.0361  0.5688  0.1348
10464TIP3    H152807   6.620   2.010  16.005  0.2034  1.1984  0.5711
10464TIP3    H252808   6.534   1.953  16.116  0.4291  1.8684  1.0944
10465TIP3   OH252809   2.204   5.760   4.234  0.0021 -0.4325  0.1666
10465TIP3    H152810   2.149   5.783   4.159  1.4919  1.5337 -0.4062
10465TIP3    H252811   2.289   5.737   4.195  0.9203  1.0281  1.2195
10466TIP3   OH252812   5.733   4.537  16.842 -0.6210  0.2857 -0.0412
10466TIP3    H152813   5.721   4.623  16.882 -3.2289  0.7077 -1.5112
10466TIP3    H252814   5.827   4.519  16.851 -0.0809  3.0534  0.7186
10467TIP3   OH252815   2.552   3.861  11.642  0.5725 -0.4856  0.0824
10467TIP3    H152816   2.629   3.895  11.597 -0.7607  2.8237  0.0524
10467TIP3    H252817   2.480   3.870  11.580 -0.5797  0.4486  1.4744
10468TIP3   OH252818   2.316   5.974  16.794  0.0693 -0.0351 -0.0751
10468TIP3    H152819   2.237   5.928  16.821  0.2137  0.1063  0.6143
10468TIP3    H252820   2.299   6.065  16.818 -0.0226  0.1956 -0.9907
10469TIP3   OH252821   5.130   1.827  12.111 -0.2293  0.3298  0.5436
10469TIP3    H152822   5.051   1.778  12.092 -0.1880  1.1089 -2.1449
10469TIP3    H252823   5.163   1.854  12.025  2.0877  1.3902  1.6503
10470TIP3   OH252824   3.669   2.753   6.591 -0.1127  0.1325 -0.0666
10470TIP3    H152825   3.716   2.733   6.511  0.3513 -0.8279  0.4349
10470TIP3    H252826   3.699   2.841   6.615  0.6075 -0.0304 -0.3375
10471TIP3   OH252827   0.929   0.902   4.504  0.0917 -0.3845  0.2886
10471TIP3    H152828   0.918   0.974   4.566 -0.5077  0.1072 -0.3705
10471TIP3    H252829   0.927   0.944   4.418 -0.3043 -1.1866 -0.1091
10472TIP3   OH252830   0.699   2.400   2.067 -0.0995 -0.0091  0.0659
10472TIP3    H152831   0.727   2.314   2.099  0.2077 -0.2415 -0.7887
10472TIP3    H252832   0.613   2.384   2.028 -0.4311  0.2544  0.6742
10473TIP3   OH252833   6.731   6.099   2.480 -0.2710  0.3800  0.2342
10473TIP3    H152834   6.647   6.143   2.497 -1.9777 -2.6332  0.3639
10473TIP3    H252835   6.781   6.109   2.561 -1.4312  0.3949  0.9679
10474TIP3   OH252836   3.668   0.831   1.449 -0.6619  0.4180  0.3820
10474TIP3    H152837   3.739   0.770   1.470 -0.5840 -0.1921 -1.4947
10474TIP3    H252838   3.678   0.901   1.513  2.9517  1.4213 -1.0177
10475TIP3   OH252839   4.311   2.972   1.092 -0.1017  0.0858 -0.4978
10475TIP3    H152840   4.322   2.901   1.029  2.7394  0.1257 -0.1557
10475TIP3    H252841   4.283   3.047   1.039 -2.2716 -0.9768 -0.9757
10476TIP3   OH252842   0.558   4.657   4.721  0.5542 -0.3176 -0.3752
10476TIP3    H152843   0.638   4.667   4.773 -1.3741  0.5446  2.6777
10476TIP3    H252844   0.513   4.582   4.759 -1.1238  0.5633 -0.5227
10477TIP3   OH252845   2.636   5.171  15.325  0.1777  0.0391 -0.1760
10477TIP3    H152846   2.643   5.169  15.420  0.0861 -0.6975 -0.1747
10477TIP3    H252847   2.607   5.260  15.304  1.3413  0.5743  0.3941
10478TIP3   OH252848   0.487   6.336   1.375  0.1554 -0.6222 -0.2258
10478TIP3    H152849   0.499   6.399   1.446 -1.7400  1.1013 -1.3427
10478TIP3    H252850   0.450   6.258   1.417  0.7382 -0.3134  0.8965
10479TIP3   OH252851   0.273   6.785   0.910 -0.3765 -0.2507 -0.6299
10479TIP3    H152852   0.324   6.857   0.874 -0.8640 -0.2417 -1.3440
10479TIP3    H252853   0.319   6.759   0.990 -1.0015  1.8205  0.4688
10480TIP3   OH252854   6.033   6.317  15.138 -0.2628 -0.3768  0.3275
10480TIP3    H152855   6.090   6.313  15.215 -0.7269  1.1881  0.8049
10480TIP3    H252856   5.990   6.403  15.145 -0.7151 -0.4243 -1.4025
10481TIP3   OH252857   5.824   3.124  10.821 -0.2408 -0.1803 -0.2320
10481TIP3    H152858   5.751   3.169  10.864  1.0474  0.7430  1.0604
10481TIP3    H252859   5.850   3.056  10.882 -0.2622 -0.7802 -0.8736
10482TIP3   OH252860   5.923   3.551  15.062  0.0830 -0.2619 -0.2672
10482TIP3    H152861   5.995   3.490  15.078  1.3467  1.2381 -0.0037
10482TIP3    H252862   5.845   3.495  15.059  0.5032 -1.5708  4.3095
10483TIP3   OH252863   1.423   4.190   5.864  0.6377 -0.4726  0.4172
10483TIP3    H152864   1.391   4.168   5.952  2.2179 -2.1202  0.6326
10483TIP3    H252865   1.477   4.267   5.877 -3.2459  2.6260 -0.0097
10484TIP3   OH252866   5.693   0.957   0.748  0.7655  0.0332  0.5426
10484TIP3    H152867   5.618   1.006   0.717  0.3362 -0.8132  0.2046
10484TIP3    H252868   5.758   1.023   0.771 -0.1107  0.7791  0.9200
10485TIP3   OH252869   3.163   3.972   1.875  0.1043 -0.1960  0.3942
10485TIP3    H152870   3.207   3.911   1.816  0.3891  0.3768  0.0109
10485TIP3    H252871   3.223   3.983   1.948  1.0853  1.3335 -0.5718
10486TIP3   OH252872   5.860   0.292   1.362  0.1160 -0.3854 -0.5435
10486TIP3    H152873   5.864   0.236   1.285  1.1643 -0.5643 -0.3885
10486TIP3    H252874   5.938   0.268   1.413 -0.8183 -0.6488  0.8350
10487TIP3   OH252875   4.935   4.240  11.722 -0.5783 -0.0981 -0.2661
10487TIP3    H152876   4.949   4.326  11.682  1.5881 -1.1938 -2.1210
10487TIP3    H252877   4.844   4.218  11.702 -0.6096  0.9938 -1.4141
10488TIP3   OH252878   4.590   3.043  15.146 -0.3666  0.1306 -0.2727
10488TIP3    H152879   4.497   3.045  15.170 -0.2060  2.3921  0.3566
10488TIP3    H252880   4.632   2.998  15.220 -0.7148  0.9900  0.4672
10489TIP3   OH252881   4.957   3.781  15.872  0.8117  0.1026  0.0110
10489TIP3    H152882   4.886   3.733  15.915  0.0135  1.2199 -0.0092
10489TIP3    H252883   4.952   3.753  15.780 -0.3667  1.0222 -0.2269
10490TIP3   OH252884   1.990   1.349   4.604  0.1939 -0.6331 -0.1612
10490TIP3    H152885   1.913   1.405   4.598 -0.9619 -1.6729  2.8436
10490TIP3    H252886   1.970   1.275   4.547 -0.3078 -0.1707 -0.6035
10491TIP3   OH252887   0.323   4.245   4.554  0.2499 -0.0071  0.3340
10491TIP3    H152888   0.228   4.244   4.562  0.1200  2.3983 -0.0307
10491TIP3    H252889   0.355   4.241   4.644 -0.2430  0.1010  0.5143
10492TIP3   OH252890   3.534   4.069  11.999 -0.2061  0.3119  0.1861
10492TIP3    H152891   3.619   4.113  11.990 -0.7996  1.3044 -0.9041
10492TIP3    H252892   3.548   3.983  11.961  0.1025  0.7805 -0.8060
10493TIP3   OH252893   4.123   6.444   0.621  0.0813  0.5666 -0.0607
10493TIP3    H152894   4.053   6.421   0.682  0.2579  2.2291  0.8059
10493TIP3    H252895   4.203   6.413   0.664 -0.0015 -0.4929 -0.6255
10494TIP3   OH252896   2.039   1.494   2.525  0.2208 -0.1468  0.1615
10494TIP3    H152897   1.988   1.521   2.601  1.2932 -1.4390  1.4050
10494TIP3    H252898   2.099   1.567   2.509 -1.1722  0.8838 -0.5982
10495TIP3   OH252899   0.349   1.479   3.038  0.0583  0.6583 -0.5755
10495TIP3    H152900   0.317   1.413   3.099  0.3260 -0.1821 -1.3276
10495TIP3    H252901   0.272   1.504   2.986 -0.2829  1.7359  0.3976
10496TIP3   OH252902   6.401   1.209  17.022 -0.5806  0.2610  0.1247
10496TIP3    H152903   6.317   1.165  17.030 -0.9507  0.2502 -2.8135
10496TIP3    H252904   6.465   1.144  17.053 -1.3254 -1.4867 -1.7669
10497TIP3   OH252905   3.226   5.944   4.416  0.3539 -0.0150 -0.2993
10497TIP3    H152906   3.289   5.875   4.395  0.7568  0.6427 -1.3025
10497TIP3    H252907   3.189   5.918   4.501  1.5461 -0.7199  0.0252
10498TIP3   OH252908   4.138   0.509  14.635  0.0784 -0.3805 -0.4998
10498TIP3    H152909   4.101   0.563  14.566 -0.2912 -1.5769 -1.2609
10498TIP3    H252910   4.209   0.562  14.672 -1.8716  1.6715  0.5325
10499TIP3   OH252911   3.230   0.393  15.321 -0.0318 -0.0845 -0.1117
10499TIP3    H152912   3.139   0.379  15.296  0.8607 -1.0910 -3.2273
10499TIP3    H252913   3.252   0.479  15.287  0.4702 -0.3071 -0.3600
10500TIP3   OH252914   3.766   6.186  15.146  0.4047  0.5919 -0.1124
10500TIP3    H152915   3.755   6.204  15.053  1.6275  0.0538 -0.3887
10500TIP3    H252916   3.692   6.131  15.170  0.3690  0.2945 -0.9042
10501TIP3   OH252917   0.552   5.533   0.884 -0.1679 -0.0529 -0.3727
10501TIP3    H152918   0.598   5.453   0.859  0.8708  0.2115  0.6518
10501TIP3    H252919   0.596   5.603   0.834 -2.2839 -0.2621 -2.7741
10502TIP3   OH252920   0.077   4.234  13.395  0.4549 -0.1298 -0.3373
10502TIP3    H152921   0.002   4.275  13.353 -0.5997  0.1761  1.7102
10502TIP3    H252922   0.149   4.246  13.333 -1.0127  0.1454 -2.0720
10503TIP3   OH252923   0.479   6.267  14.780  0.5217 -0.2901  0.0933
10503TIP3    H152924   0.522   6.343  14.818  0.1236 -0.0670  0.1035
10503TIP3    H252925   0.541   6.234  14.715  0.3753  0.5024 -0.4547
10504TIP3   OH252926   5.191   4.032  11.718 -0.3142 -0.1136 -0.0413
10504TIP3    H152927   5.185   3.938  11.736 -0.8919 -0.1212 -0.2575
10504TIP3    H252928   5.161   4.041  11.627  0.2715  0.2122 -0.2064
10505TIP3   OH252929   5.460   2.623  13.549  0.3703 -0.1197 -0.1948
10505TIP3    H152930   5.445   2.717  13.540 -1.6233 -0.0632  2.4067
10505TIP3    H252931   5.438   2.586  13.464  1.4085  1.7618 -1.3290
10506TIP3   OH252932   1.621   5.109  11.546 -0.0354  0.2536 -0.2296
10506TIP3    H152933   1.533   5.087  11.579  0.0109  1.4959  0.7905
10506TIP3    H252934   1.636   5.198  11.576  1.5407  0.0990 -0.4970
10507TIP3   OH252935   2.983   0.597   3.421 -0.1530  0.3209  0.5495
10507TIP3    H152936   2.902   0.635   3.386 -1.2712 -2.9223 -0.8011
10507TIP3    H252937   3.041   0.589   3.346  0.1206 -0.4014  0.8296
10508TIP3   OH252938   0.969   2.470  13.994  0.2599  0.6198  0.0936
10508TIP3    H152939   0.913   2.492  13.920  1.0603  0.6874 -0.5103
10508TIP3    H252940   0.956   2.376  14.007  1.2227  0.2987 -1.1090
10509TIP3   OH252941   1.396   0.052  14.424  0.2764 -0.3254 -0.2275
10509TIP3    H152942   1.406   0.136  14.379 -0.2127  1.1496  2.2508
10509TIP3    H252943   1.484   0.032  14.458  0.2843 -0.5654 -0.3869
10510TIP3   OH252944   3.141   1.624  16.035 -0.3432 -0.3215 -0.1501
10510TIP3    H152945   3.205   1.565  15.994 -1.3474 -1.8795  0.4119
10510TIP3    H252946   3.093   1.568  16.096 -1.5627  1.0335  0.1864
10511TIP3   OH252947   6.636   3.299   2.489  0.2598 -0.3027 -0.2130
10511TIP3    H152948   6.634   3.380   2.438  0.8661  0.6900  1.2524
10511TIP3    H252949   6.621   3.328   2.579 -1.5548 -2.0793  0.1235
10512TIP3   OH252950   1.207   6.289  11.333 -0.6874 -0.4262 -0.6405
10512TIP3    H152951   1.230   6.370  11.378 -0.4066 -1.4381  1.1256
10512TIP3    H252952   1.283   6.269  11.278  0.9031 -1.3952  1.7482
10513TIP3   OH252953   3.213   5.696  10.735 -0.9911 -0.5733 -0.4245
10513TIP3    H152954   3.289   5.753  10.736 -1.8648  0.6362  0.9873
10513TIP3    H252955   3.175   5.704  10.823 -2.4262 -1.5665 -0.9080
10514TIP3   OH252956   0.420   4.133   2.693 -0.1735  0.0862  0.1205
10514TIP3    H152957   0.457   4.220   2.705  0.0779  0.1319 -0.9120
10514TIP3    H252958   0.496   4.077   2.674 -0.2946 -0.4250  1.0932
10515TIP3   OH252959   3.550   4.147   3.607  0.0545  0.1504 -0.3021
10515TIP3    H152960   3.569   4.099   3.526 -0.4668 -0.1398 -0.2612
10515TIP3    H252961   3.615   4.115   3.670 -1.2011 -1.6753  0.1698
10516TIP3   OH252962   2.536   4.922  15.730  0.0672 -0.5339  0.3210
10516TIP3    H152963   2.588   4.844  15.713  0.9919  0.5247 -2.3737
10516TIP3    H252964   2.589   4.973  15.792 -1.2575 -2.5921  3.3306
10517TIP3   OH252965   4.084   5.571   0.986 -0.1411  0.5453 -0.0398
10517TIP3    H152966   4.092   5.575   1.082  0.2473  0.0628 -0.0519
10517TIP3    H252967   4.099   5.479   0.964 -0.3329  0.6342 -0.5590
10518TIP3   OH252968   0.332   1.690   1.802  0.3788  0.1108 -0.4951
10518TIP3    H152969   0.326   1.703   1.708  0.0437  0.4691 -0.4262
10518TIP3    H252970   0.282   1.609   1.818  0.4154  0.0638 -0.6193
10519TIP3   OH252971   2.775   1.069   4.114 -0.1548 -0.5371  0.3807
10519TIP3    H152972   2.809   1.140   4.059  0.1338 -1.7008 -1.0088
10519TIP3    H252973   2.779   1.104   4.203  0.4986  0.9771 -0.2028
10520TIP3   OH252974   1.192   3.994  11.394 -1.1447 -0.2449  0.2273
10520TIP3    H152975   1.235   4.059  11.449  0.8217 -1.3482  0.0951
10520TIP3    H252976   1.143   3.939  11.456 -1.7118  0.5117  0.4722
10521TIP3   OH252977   0.812   3.069   3.745 -0.8436  0.0037  0.4226
10521TIP3    H152978   0.728   3.105   3.773 -0.9011  1.4260 -1.3633
10521TIP3    H252979   0.877   3.111   3.802 -1.2350 -0.0753  0.9297
10522TIP3   OH252980   4.954   2.049   4.422 -0.0696  0.2195  0.2388
10522TIP3    H152981   4.963   2.015   4.332  0.0337 -0.0781  0.3607
10522TIP3    H252982   4.910   2.133   4.411 -0.9909 -0.2760 -0.0170
10523TIP3   OH252983   1.429   2.854   6.568  0.3356  0.0855 -0.2210
10523TIP3    H152984   1.372   2.790   6.611  0.1892  0.8492  0.7364
10523TIP3    H252985   1.472   2.804   6.499 -1.0057 -0.6602 -0.5506
10524TIP3   OH252986   6.417   6.349   0.982 -0.3703  0.2617 -0.2982
10524TIP3    H152987   6.390   6.345   1.073 -0.7302  0.1439 -0.4084
10524TIP3    H252988   6.353   6.407   0.940 -0.0056  0.5957 -0.4077
10525TIP3   OH252989   6.195   3.208   0.519  0.4254  0.3290  0.5703
10525TIP3    H152990   6.193   3.176   0.609  0.5650 -0.9324  0.1394
10525TIP3    H252991   6.250   3.146   0.472 -2.0254 -0.8006 -1.0211
10526TIP3   OH252992   6.651   0.818   3.570 -0.7240  0.0750  0.4636
10526TIP3    H152993   6.739   0.782   3.559 -1.2159 -1.3232  0.9177
10526TIP3    H252994   6.665   0.912   3.582  0.5810  0.1140 -1.0688
10527TIP3   OH252995   1.687   0.777   3.270  0.2375 -0.3022 -0.0159
10527TIP3    H152996   1.741   0.699   3.284  0.9664  0.2397  0.2522
10527TIP3    H252997   1.632   0.782   3.348  0.9657  0.0583  0.4881
10528TIP3   OH252998   3.204   2.464   0.100  0.1080 -0.1302 -0.0006
10528TIP3    H152999   3.201   2.506   0.014  1.3877 -0.7892 -0.3927
10528TIP3    H253000   3.283   2.498   0.141  0.2941 -0.9232  0.3189
10529TIP3   OH253001   0.631   2.070  15.139 -0.7211  0.1047  0.5168
10529TIP3    H153002   0.725   2.089  15.142 -0.3679 -1.4952  0.3722
10529TIP3    H253003   0.613   2.022  15.220 -1.2118 -0.4184  0.1090
10530TIP3   OH253004   3.424   6.116   3.983 -0.5697  0.5922 -0.3660
10530TIP3    H153005   3.394   6.121   4.074 -0.4873  0.3691 -0.3250
10530TIP3    H253006   3.442   6.023   3.970  3.5683  1.0553  0.7366
10531TIP3   OH253007   6.371   3.842  14.675  0.0532  0.7811 -0.5664
10531TIP3    H153008   6.345   3.904  14.742  1.2685 -0.9553  1.6596
10531TIP3    H253009   6.465   3.856  14.664  0.1902 -0.0995 -0.6209
10532TIP3   OH253010   2.620   0.195   1.387 -0.1074 -0.0615  0.1841
10532TIP3    H153011   2.578   0.241   1.315 -0.1231 -0.6206 -0.1651
10532TIP3    H253012   2.700   0.159   1.349  0.4389  0.5499  0.7128
10533TIP3   OH253013   4.598   2.793  12.981  0.5870  0.4336  0.3220
10533TIP3    H153014   4.664   2.840  13.032 -0.6615  0.7216  1.7291
10533TIP3    H253015   4.633   2.704  12.973 -0.2786 -0.3856  3.9562
10534TIP3   OH253016   4.712   4.730  13.296 -0.5843 -0.5307  0.2391
10534TIP3    H153017   4.671   4.816  13.308  0.1767 -0.1966  0.4663
10534TIP3    H253018   4.737   4.702  13.385  1.2674  0.0671 -0.0566
10535TIP3   OH253019   5.231   4.985   2.895  0.1796  0.2216  0.5876
10535TIP3    H153020   5.214   5.077   2.874  2.9159  0.7015  0.1239
10535TIP3    H253021   5.276   4.950   2.818  2.0672 -0.5608  1.9610
10536TIP3   OH253022   0.617   4.635  15.801  0.1798  0.0203  0.8685
10536TIP3    H153023   0.713   4.640  15.792  0.3726  0.1436  2.6550
10536TIP3    H253024   0.589   4.726  15.801 -0.1995 -0.0314 -1.5965
10537TIP3   OH253025   2.295   1.997  12.287  0.7144 -0.1340 -0.3619
10537TIP3    H153026   2.275   1.999  12.381  0.2222  1.5587 -0.4625
10537TIP3    H253027   2.239   2.065  12.249  0.6052 -1.0692 -1.9590
10538TIP3   OH253028   3.640   0.943   5.004 -0.1696  0.6927 -0.0081
10538TIP3    H153029   3.719   0.980   4.964 -1.7351  1.1375 -2.9517
10538TIP3    H253030   3.646   0.969   5.096  3.6884 -0.3930  0.2156
10539TIP3   OH253031   1.839   1.058   0.213  0.6810  0.2173 -0.0221
10539TIP3    H153032   1.903   1.036   0.281 -0.0632  2.2106  1.4455
10539TIP3    H253033   1.761   1.009   0.237  0.8520 -0.1741 -0.2658
10540TIP3   OH253034   5.613   2.187  12.207  0.1590  0.3206 -0.2224
10540TIP3    H153035   5.521   2.201  12.231 -0.3717  0.0650 -1.9948
10540TIP3    H253036   5.641   2.271  12.170 -0.7461 -0.7418 -3.7457
10541TIP3   OH253037   6.479   1.640  14.900  0.0600 -0.0752  0.8894
10541TIP3    H153038   6.429   1.653  14.820  0.5088  0.1644  0.6404
10541TIP3    H253039   6.449   1.708  14.960  0.7562  0.6793  0.4044
10542TIP3   OH253040   4.237   6.679   2.823 -0.0732 -0.1777  0.5131
10542TIP3    H153041   4.144   6.668   2.803  0.5174 -0.2946 -2.4995
10542TIP3    H253042   4.278   6.599   2.792  1.3031  0.7738 -0.2179
10543TIP3   OH253043   1.676   2.054   3.828  0.1420 -0.0251  0.0830
10543TIP3    H153044   1.634   1.990   3.770  0.3324  0.0152 -0.1013
10543TIP3    H253045   1.760   2.073   3.786  1.0677 -1.2975  1.2405
10544TIP3   OH253046   0.598   5.809   1.811 -0.0998 -0.5366  0.1283
10544TIP3    H153047   0.566   5.781   1.897  0.2476  0.4430  0.5985
10544TIP3    H253048   0.691   5.828   1.826 -0.6162  2.3778  0.2863
10545TIP3   OH253049   4.466   5.626   5.508 -0.0560  0.1590 -0.2024
10545TIP3    H153050   4.382   5.582   5.518  0.2698 -0.7934 -1.4720
10545TIP3    H253051   4.473   5.681   5.586 -1.4712 -0.3691  0.3325
10546TIP3   OH253052   3.123   5.990  13.474 -0.5667 -0.0151 -0.1556
10546TIP3    H153053   3.116   5.998  13.569  0.3817  1.0265 -0.1551
10546TIP3    H253054   3.099   5.899  13.456 -0.2488 -0.3747  1.1372
10547TIP3   OH253055   1.908   1.711  10.627 -0.3650 -0.0054 -0.0827
10547TIP3    H153056   1.985   1.763  10.650 -0.1186 -0.6892  0.6550
10547TIP3    H253057   1.926   1.681  10.538 -0.5816  1.2744 -0.5865
10548TIP3   OH253058   0.019   3.952  12.297 -0.0309 -0.1844  0.3404
10548TIP3    H153059   0.056   4.038  12.278 -0.2347 -0.0592  0.5040
10548TIP3    H253060   0.006   3.912  12.211  1.8388 -0.8134  0.3179
10549TIP3   OH253061   2.210   3.516  11.209  0.4222  0.2023  0.3942
10549TIP3    H153062   2.239   3.591  11.156  2.3764 -1.2296 -0.7034
10549TIP3    H253063   2.184   3.450  11.144  0.0147 -0.5496  1.2993
10550TIP3   OH253064   0.225   0.539  16.285 -0.2858  0.1995 -0.0288
10550TIP3    H153065   0.208   0.462  16.338  1.3997 -0.8697 -0.9310
10550TIP3    H253066   0.321   0.546  16.283 -0.3866  2.1631 -0.1984
10551TIP3   OH253067   3.844   4.728  14.461 -0.5476  0.5891  0.2135
10551TIP3    H153068   3.878   4.704  14.547  0.8675  0.7451 -0.2711
10551TIP3    H253069   3.872   4.657  14.403  1.8020  2.1762 -0.8071
10552TIP3   OH253070   2.756   6.684   5.285  0.5857 -0.2546  0.5327
10552TIP3    H153071   2.688   6.724   5.340 -0.7718 -0.2441 -1.1070
10552TIP3    H253072   2.718   6.681   5.198  3.5801  2.0743 -1.0293
10553TIP3   OH253073   4.046   4.974  13.556 -0.0564  0.3543 -0.0100
10553TIP3    H153074   4.034   4.888  13.516 -0.6339 -0.0239  0.9423
10553TIP3    H253075   3.987   5.031  13.506  0.3347  0.2042 -0.6507
10554TIP3   OH253076   5.100   4.807   4.665  0.4356 -0.1870  0.5794
10554TIP3    H153077   5.163   4.750   4.710  0.3739 -0.7966 -0.0850
10554TIP3    H253078   5.154   4.871   4.619  0.5305 -0.1449  0.7473
10555TIP3   OH253079   4.552   2.770  15.579 -0.4665  0.8287  0.0540
10555TIP3    H153080   4.571   2.861  15.557 -1.0275  1.3153  1.4866
10555TIP3    H253081   4.456   2.764  15.579 -0.4371  0.0141 -0.8178
10556TIP3   OH253082   3.403   4.177   3.939 -0.2091  0.2265  0.2725
10556TIP3    H153083   3.316   4.208   3.913  0.2908  0.1653 -1.5947
10556TIP3    H253084   3.408   4.196   4.033 -2.5098 -0.4278  0.5873
10557TIP3   OH253085   0.177   3.072  13.394 -0.2909 -0.4841 -0.1450
10557TIP3    H153086   0.106   3.008  13.391 -0.1219 -0.6898  0.2386
10557TIP3    H253087   0.195   3.084  13.487 -1.0499  0.9376 -0.1540
10558TIP3   OH253088   1.798   4.982  13.258 -0.4888  0.1754  0.0027
10558TIP3    H153089   1.826   4.934  13.336  0.7399 -1.8063 -1.5513
10558TIP3    H253090   1.709   4.951  13.242 -0.7417  0.5796  0.5745
10559TIP3   OH253091   5.547   0.964   3.963  0.2824 -0.0603  0.6421
10559TIP3    H153092   5.611   1.024   3.924 -1.4382  1.4882  0.0740
10559TIP3    H253093   5.577   0.951   4.052  1.0192  1.1897  0.5962
10560TIP3   OH253094   3.299   3.523  15.070 -0.1809  0.0375 -0.0507
10560TIP3    H153095   3.219   3.474  15.052 -0.7968 -0.2951  2.9387
10560TIP3    H253096   3.296   3.597  15.011 -0.5340 -2.0973 -2.9055
10561TIP3   OH253097   4.633   5.153  17.005  0.1289 -0.1302 -0.5237
10561TIP3    H153098   4.558   5.135  17.062  0.7917  1.2756  0.8684
10561TIP3    H253099   4.607   5.230  16.954  0.4784  0.1233 -0.3207
10562TIP3   OH253100   4.203   0.585   2.816  0.9884 -1.2022  0.1936
10562TIP3    H153101   4.139   0.571   2.886  0.1228  0.4512 -0.1910
10562TIP3    H253102   4.285   0.553   2.851  0.3909 -1.2547  1.6156
10563TIP3   OH253103   5.254   3.557  12.633 -0.3175 -0.2037 -0.2974
10563TIP3    H153104   5.231   3.611  12.708 -1.3255 -0.8711 -0.1054
10563TIP3    H253105   5.171   3.544  12.586  0.4012  0.7220 -1.8830
10564TIP3   OH253106   0.083   6.587   2.368  0.7444 -0.2595 -0.0787
10564TIP3    H153107   0.004   6.533   2.362 -0.0747  0.7154  1.1961
10564TIP3    H253108   0.073   6.635   2.450  1.8210  1.2051 -0.7428
10565TIP3   OH253109   5.506   3.976  10.106 -0.1736  0.1345 -0.1399
10565TIP3    H153110   5.592   4.011  10.130 -0.5288  0.9406 -0.0023
10565TIP3    H253111   5.523   3.917  10.033  0.3981  0.9520 -0.6806
10566TIP3   OH253112   6.663   3.796   0.833  0.0319 -0.1346 -0.4205
10566TIP3    H153113   6.751   3.796   0.795  0.2529 -1.9394  0.0330
10566TIP3    H253114   6.669   3.855   0.908  1.1968 -1.1786  0.3359
10567TIP3   OH253115   2.991   1.590   3.813 -0.3988  0.8397  0.1467
10567TIP3    H153116   3.064   1.529   3.819 -1.2783 -0.1972  0.6703
10567TIP3    H253117   2.989   1.635   3.897  0.6861  2.1394 -0.4927
10568TIP3   OH253118   4.951   6.384  14.074  0.1474  0.2088 -0.0438
10568TIP3    H153119   5.013   6.311  14.079  0.8091  0.8388  1.9997
10568TIP3    H253120   4.905   6.382  14.157 -0.8920  1.2292 -0.5674
10569TIP3   OH253121   5.732   2.074  12.630 -0.3495  0.5638 -0.3203
10569TIP3    H153122   5.637   2.064  12.630 -0.4940  1.7003  0.7793
10569TIP3    H253123   5.764   1.997  12.582 -1.7840 -0.0828 -0.2985
10570TIP3   OH253124   2.472   2.253   0.511  0.0583 -0.4014 -0.4602
10570TIP3    H153125   2.420   2.285   0.585 -2.2293 -1.7976 -1.3550
10570TIP3    H253126   2.560   2.242   0.546 -0.9170 -0.9274  2.0300
10571TIP3   OH253127   4.500   4.014  11.187  0.2191 -0.0223 -0.5413
10571TIP3    H153128   4.445   4.090  11.203 -0.4048 -0.5774 -0.0175
10571TIP3    H253129   4.529   4.024  11.096  2.0155  2.0164  0.1832
10572TIP3   OH253130   1.130   0.245  15.452 -0.4119  0.0715 -0.2776
10572TIP3    H153131   1.171   0.210  15.531 -1.0693  1.0504  0.5234
10572TIP3    H253132   1.197   0.300  15.411  0.6640 -2.0761 -1.5947
10573TIP3   OH253133   2.291   2.871   0.306 -0.5101  0.0593 -0.3209
10573TIP3    H153134   2.346   2.793   0.313 -2.5167 -1.2914  2.1879
10573TIP3    H253135   2.295   2.895   0.213  1.6740 -1.8544 -0.8143
10574TIP3   OH253136   1.013   2.903   5.423  0.4330 -0.3402 -0.8205
10574TIP3    H153137   1.080   2.843   5.453  0.8629  0.6549  0.2898
10574TIP3    H253138   1.056   2.956   5.356  0.9803  0.6833  0.2926
10575TIP3   OH253139   3.963   0.048  16.461 -0.7958 -0.3125  0.0321
10575TIP3    H153140   4.005  -0.011  16.398 -0.3294  0.5339 -0.4609
10575TIP3    H253141   3.951  -0.006  16.539 -1.2493 -1.3298 -0.7276
10576TIP3   OH253142   3.920   2.940   3.533  0.9578  0.0783  0.2503
10576TIP3    H153143   4.012   2.965   3.528  0.9917  0.1626  1.0427
10576TIP3    H253144   3.875   3.001   3.474  1.4243 -0.0846 -0.2810
10577TIP3   OH253145   3.422   3.918   0.361 -0.5738  0.5127 -0.3356
10577TIP3    H153146   3.461   3.952   0.441  1.0136  0.6006 -1.1040
10577TIP3    H253147   3.372   3.842   0.389 -1.0680  1.2557  0.8872
10578TIP3   OH253148   2.173   3.635  16.673  0.2748 -0.0418 -0.1656
10578TIP3    H153149   2.191   3.549  16.712 -0.7156 -0.6105 -0.9095
10578TIP3    H253150   2.181   3.696  16.746 -3.0834 -1.2451  1.4478
10579TIP3   OH253151   2.723   1.254  14.769 -0.3888 -0.6724 -0.0645
10579TIP3    H153152   2.722   1.287  14.859 -1.6279 -2.0704  0.4737
10579TIP3    H253153   2.704   1.160  14.777 -1.0329 -0.7357 -1.8031
10580TIP3   OH253154   2.180   4.449  11.289 -0.2371 -0.1794  0.1694
10580TIP3    H153155   2.274   4.457  11.303 -0.4976 -1.2307  3.1306
10580TIP3    H253156   2.171   4.381  11.222  1.0779  0.5420 -0.7786
10581TIP3   OH253157   5.841   6.160  12.862  0.6043  0.1059  0.3281
10581TIP3    H153158   5.835   6.242  12.815 -1.9443  1.0765  2.1539
10581TIP3    H253159   5.770   6.106  12.827 -0.4623  0.3461  2.0087
10582TIP3   OH253160   0.335   5.395  11.526  0.7366 -0.1192  0.6148
10582TIP3    H153161   0.354   5.447  11.605  1.3330  1.5694 -0.5774
10582TIP3    H253162   0.273   5.328  11.555  0.7630  0.6079  2.4614
10583TIP3   OH253163   3.413   0.522  16.468  0.2827 -0.4290 -0.7701
10583TIP3    H153164   3.371   0.542  16.552 -0.5048  0.7322 -1.4004
10583TIP3    H253165   3.423   0.608  16.426  3.2632 -0.6338 -0.7050
10584TIP3   OH253166   6.101   0.254   3.646  0.1813  0.3880  0.1031
10584TIP3    H153167   6.161   0.187   3.614 -0.6308 -0.0759 -0.4663
10584TIP3    H253168   6.078   0.226   3.734  0.7312  0.5302  0.2982
10585TIP3   OH253169   3.597   1.903  15.650 -0.3464 -0.6025  0.0650
10585TIP3    H153170   3.615   1.952  15.730 -0.4954 -0.1098 -0.1960
10585TIP3    H253171   3.522   1.948  15.611  0.6636  0.1243 -1.1243
10586TIP3   OH253172   3.091   2.705   0.582  0.4480 -0.6668 -0.1687
10586TIP3    H153173   3.150   2.708   0.658 -0.8399 -1.2830  0.8857
10586TIP3    H253174   3.115   2.624   0.537 -0.3628 -1.5474  0.9276
10587TIP3   OH253175   2.218   6.219   3.451 -0.1850 -0.6323 -0.7945
10587TIP3    H153176   2.131   6.179   3.451  0.5853 -2.4533  0.5629
10587TIP3    H253177   2.256   6.197   3.366 -1.0127  0.1646 -1.3882
10588TIP3   OH253178   0.041   2.602   5.764  0.5740  0.1196  0.3558
10588TIP3    H153179   0.082   2.583   5.848  2.1347  1.5415 -0.0337
10588TIP3    H253180   0.060   2.695   5.749 -0.7104  0.1935 -1.0105
10589TIP3   OH253181   6.116   1.175  17.009 -0.0179  0.0237 -0.4124
10589TIP3    H153182   6.101   1.266  16.981 -0.4690 -0.5538 -2.1496
10589TIP3    H253183   6.039   1.154  17.061  1.1728  1.3531  2.0753
10590TIP3   OH253184   3.745   1.155  12.725  0.0850 -0.0822 -0.1575
10590TIP3    H153185   3.749   1.191  12.636 -0.1786  0.2459 -0.0410
10590TIP3    H253186   3.761   1.231  12.781  0.4049 -0.3185  0.0714
10591TIP3   OH253187   6.108   0.105  13.014  0.2036 -0.0079  0.2578
10591TIP3    H153188   6.145   0.148  13.091 -0.3439 -1.8518  1.6113
10591TIP3    H253189   6.014   0.115  13.023  0.1656  0.9603 -0.9352
10592TIP3   OH253190   0.699   6.028  16.994 -0.0662  0.1503 -0.4305
10592TIP3    H153191   0.657   5.948  16.961  0.0165  0.3932 -1.1468
10592TIP3    H253192   0.635   6.097  16.975  0.4051  0.4364 -0.9922
10593TIP3   OH253193   3.627   5.552  13.835 -0.3235 -0.7170  0.0722
10593TIP3    H153194   3.699   5.518  13.888 -1.6356 -1.2357  1.5899
10593TIP3    H253195   3.553   5.495  13.855 -1.5088  0.5757 -0.4598
10594TIP3   OH253196   5.844   5.759   0.312  0.0363  0.2310  0.0009
10594TIP3    H153197   5.788   5.752   0.390 -0.6922  0.0677 -0.5244
10594TIP3    H253198   5.789   5.727   0.241  0.9047 -0.1962 -0.4864
10595TIP3   OH253199   4.626   2.437  14.437 -0.3433  0.0363  0.6356
10595TIP3    H153200   4.580   2.520  14.449  0.1684  0.1904  1.6821
10595TIP3    H253201   4.558   2.376  14.408 -0.7571  0.7672  0.0303
10596TIP3   OH253202   4.661   4.042  10.360  0.2298 -0.3397 -0.3369
10596TIP3    H153203   4.680   4.131  10.331 -1.9247 -0.0633 -1.0776
10596TIP3    H253204   4.722   4.027  10.432  1.1972  1.4250 -0.7355
10597TIP3   OH253205   4.014   3.140  13.444 -0.3519  0.1073 -0.2913
10597TIP3    H153206   3.987   3.231  13.449 -1.5950 -0.2732  0.2649
10597TIP3    H253207   4.086   3.133  13.507  0.2372  0.8453 -0.8586
10598TIP3   OH253208   1.370   6.079  16.485 -0.3775 -0.3361 -0.0171
10598TIP3    H153209   1.411   6.039  16.562  2.0426 -1.5826 -1.8028
10598TIP3    H253210   1.426   6.154  16.464  0.2943 -1.2470 -1.7068
10599TIP3   OH253211   4.429   4.960  10.712  0.6853 -0.2464 -0.0235
10599TIP3    H153212   4.385   5.035  10.751  0.8442 -0.1629 -0.0011
10599TIP3    H253213   4.491   4.931  10.779  0.1840 -0.7858  0.2100
10600TIP3   OH253214   1.575   1.108   3.944  0.3682 -0.3869  0.5033
10600TIP3    H153215   1.583   1.129   4.037 -1.4563 -0.5232  0.7250
10600TIP3    H253216   1.547   1.190   3.904  0.1531 -0.5927  0.2326
10601TIP3   OH253217   6.704   0.072   3.552  0.4080 -0.2367  0.0153
10601TIP3    H153218   6.675   0.163   3.549  0.4271 -0.2294  0.0503
10601TIP3    H253219   6.768   0.065   3.481 -0.9321 -0.6914 -1.2173
10602TIP3   OH253220   1.542   0.473   2.177  0.3766  0.7170 -0.1081
10602TIP3    H153221   1.480   0.414   2.220  1.6618  0.1319  1.0088
10602TIP3    H253222   1.527   0.459   2.084 -0.8671  0.2855  0.1316
10603TIP3   OH253223   4.264   3.306  13.087  0.3606  0.4326 -0.1966
10603TIP3    H153224   4.244   3.331  12.997 -1.7705  0.2618  0.1934
10603TIP3    H253225   4.264   3.388  13.136 -1.5272  0.2667  0.1559
10604TIP3   OH253226   3.136   0.096  11.291 -0.0404 -0.7637  0.4963
10604TIP3    H153227   3.209   0.152  11.319 -1.1282 -1.3451  5.3172
10604TIP3    H253228   3.064   0.156  11.276  0.3109 -0.4933 -0.1373
10605TIP3   OH253229   5.757   1.967  15.367  0.0695  0.3632  0.4533
10605TIP3    H153230   5.680   1.967  15.310 -0.2707 -1.1911  0.8623
10605TIP3    H253231   5.745   2.045  15.422  0.3252  1.8093 -1.4153
10606TIP3   OH253232   0.186   5.939  16.247 -0.0304 -0.3430  0.2873
10606TIP3    H153233   0.277   5.912  16.257 -0.4793 -1.9627  0.2350
10606TIP3    H253234   0.137   5.883  16.308 -0.9265  1.0304  0.8858
10607TIP3   OH253235   0.326   6.783  11.661  0.1498 -0.7027  0.1622
10607TIP3    H153236   0.300   6.813  11.574  3.1516  0.6204 -0.4302
10607TIP3    H253237   0.329   6.688  11.654 -0.5645 -0.6582 -0.8841
10608TIP3   OH253238   1.296   1.495   4.874 -0.0709  0.3565  0.5331
10608TIP3    H153239   1.292   1.588   4.854  0.6948  0.5319  1.1525
10608TIP3    H253240   1.318   1.491   4.968  1.8247 -0.4143  0.1151
10609TIP3   OH253241   1.757   5.074  15.343 -0.7202 -0.5292  0.6565
10609TIP3    H153242   1.741   5.145  15.405  1.1426  0.7130 -0.1740
10609TIP3    H253243   1.754   4.994  15.395 -0.1357  0.4001  2.1680
10610TIP3   OH253244   0.955   3.146  10.801 -0.2702  0.4233  0.0125
10610TIP3    H153245   1.021   3.158  10.869 -0.7060  0.6150  0.4101
10610TIP3    H253246   0.986   3.200  10.728  0.2405  0.1530  0.0286
10611TIP3   OH253247   1.367   6.364   3.713  0.4828  0.4235  0.5898
10611TIP3    H153248   1.369   6.285   3.660  0.2372  0.1018  1.0484
10611TIP3    H253249   1.432   6.348   3.782  0.6706  0.7595  0.4909
10612TIP3   OH253250   0.657   1.611  16.686  0.4599  0.4813 -0.0433
10612TIP3    H153251   0.565   1.611  16.662  0.4982 -0.5785 -0.2584
10612TIP3    H253252   0.657   1.625  16.781 -0.1263 -2.2086  0.4455
10613TIP3   OH253253   2.296   1.751  11.702 -0.0493 -0.5962 -0.5731
10613TIP3    H153254   2.317   1.667  11.663  0.8142 -0.6658 -0.0031
10613TIP3    H253255   2.381   1.794  11.712 -0.5633  0.8289 -1.9074
10614TIP3   OH253256   6.587   6.086  15.418 -0.2856 -0.9212  0.3675
10614TIP3    H153257   6.611   6.048  15.334 -0.2303  0.2157 -0.1584
10614TIP3    H253258   6.595   6.014  15.481  2.6258 -1.0909 -0.0612
10615TIP3   OH253259   6.113   1.367  11.117  0.3615  0.0286 -0.7576
10615TIP3    H153260   6.104   1.295  11.055  1.8591 -1.6091  0.8120
10615TIP3    H253261   6.035   1.362  11.172  1.2359 -1.5420  0.4118
10616TIP3   OH253262   2.596   0.668   0.944 -0.1452 -0.5497  0.4279
10616TIP3    H153263   2.623   0.736   1.006  0.2626 -1.0483  0.8115
10616TIP3    H253264   2.667   0.665   0.880 -0.2446 -0.4976  0.3153
10617TIP3   OH253265   1.493   6.716   1.405  0.0740 -0.5392 -0.4441
10617TIP3    H153266   1.446   6.795   1.433  1.0861  0.5484 -1.6978
10617TIP3    H253267   1.565   6.748   1.352  0.6316 -2.3207 -0.8411
10618TIP3   OH253268   5.041   6.289   0.021  0.1267  1.0623 -0.5665
10618TIP3    H153269   5.105   6.347  -0.021 -2.3768  2.9026 -2.1099
10618TIP3    H253270   5.011   6.338   0.097 -0.9097  1.1739 -1.0279
10619TIP3   OH253271   4.830   5.238   0.162 -0.0616  0.1341  0.5525
10619TIP3    H153272   4.771   5.232   0.087  0.6700 -1.8587  0.0948
10619TIP3    H253273   4.774   5.270   0.234 -0.9047  1.4873 -0.6405
10620TIP3   OH253274   2.732   0.032  15.213 -0.7297  0.0155 -0.4838
10620TIP3    H153275   2.775  -0.046  15.250  0.3105  0.7232 -0.1559
10620TIP3    H253276   2.677  -0.003  15.143 -0.4942 -1.0509 -0.1677
10621TIP3   OH253277   0.042   4.363   4.663 -0.1547  0.2949  0.0250
10621TIP3    H153278   0.075   4.375   4.752 -0.2282  1.4436 -0.0831
10621TIP3    H253279  -0.052   4.383   4.670 -0.0992  0.6974 -0.3634
10622TIP3   OH253280   0.931   5.722   4.218 -0.6020 -0.7728 -0.1146
10622TIP3    H153281   1.000   5.767   4.266 -0.8535 -0.1478 -0.3315
10622TIP3    H253282   0.945   5.745   4.127 -2.0159  0.6800 -0.0167
10623TIP3   OH253283   5.851   0.980  12.644  0.4412 -0.4809 -0.3298
10623TIP3    H153284   5.941   0.954  12.663  0.5846  0.4365  0.3293
10623TIP3    H253285   5.858   1.070  12.614 -0.3681  0.1375  1.2136
10624TIP3   OH253286   5.911   2.424   0.830  0.0246 -0.2217 -0.1539
10624TIP3    H153287   5.822   2.455   0.818  0.5758  1.2499 -0.6891
10624TIP3    H253288   5.916   2.342   0.781 -0.6344  0.4235 -1.3234
10625TIP3   OH253289   6.448   2.032   5.745 -0.0804  0.4754  0.0847
10625TIP3    H153290   6.390   1.969   5.789  0.9908 -1.0707 -0.6021
10625TIP3    H253291   6.508   2.062   5.814  0.5952 -0.7434  0.0698
10626TIP3   OH253292   1.524   6.417   2.173  0.1470 -0.1704  0.4402
10626TIP3    H153293   1.462   6.346   2.159  0.0464 -0.1663  0.8419
10626TIP3    H253294   1.477   6.478   2.231 -0.7502  1.4853 -1.8527
10627TIP3   OH253295   3.061   2.086  11.824  0.1864 -0.4869  0.3300
10627TIP3    H153296   2.986   2.121  11.777  0.5376  0.2803  0.3241
10627TIP3    H253297   3.134   2.093  11.762  0.3172 -0.9782  0.4232
10628TIP3   OH253298   6.245   3.518  16.741 -0.0993 -0.6304 -0.6819
10628TIP3    H153299   6.223   3.531  16.833 -0.3453  2.5519 -1.1058
10628TIP3    H253300   6.338   3.538  16.735 -0.0794 -0.8413 -1.1525
10629TIP3   OH253301   2.757   0.539  11.122 -0.0745  0.1888 -0.1427
10629TIP3    H153302   2.793   0.568  11.206  0.6332 -2.0123  0.3920
10629TIP3    H253303   2.812   0.583  11.056  2.2953 -1.4111  0.6443
10630TIP3   OH253304   0.081   4.768   0.866  0.2334  0.3374  0.1751
10630TIP3    H153305   0.048   4.690   0.821  0.2259 -0.3169  1.2836
10630TIP3    H253306   0.168   4.782   0.829  0.2126 -0.1632 -0.0738
10631TIP3   OH253307   3.409   2.070  16.373 -0.2239  0.5541 -0.2965
10631TIP3    H153308   3.372   1.983  16.390  1.7089 -0.4990 -1.1468
10631TIP3    H253309   3.386   2.089  16.282  1.9410 -0.5120 -1.1295
10632TIP3   OH253310   6.236   1.261   5.228 -0.8202  0.0319  0.1984
10632TIP3    H153311   6.303   1.256   5.296 -0.7790 -1.2975  0.0944
10632TIP3    H253312   6.267   1.201   5.160 -2.0172 -0.4746  0.0778
10633TIP3   OH253313   1.046   1.136   0.949  0.3447 -0.1972 -0.4146
10633TIP3    H153314   1.026   1.164   0.860 -0.4834  0.3492 -0.0673
10633TIP3    H253315   0.970   1.162   1.000  1.2520  0.4468  0.6569
10634TIP3   OH253316   6.749   5.918  12.848  0.0114 -0.0377  0.0429
10634TIP3    H153317   6.685   5.911  12.777  0.1174 -0.1288 -0.0438
10634TIP3    H253318   6.790   5.832  12.852 -0.0162 -0.0416  0.2373
10635TIP3   OH253319   2.176   2.403   3.288  0.2276 -0.2097  0.0113
10635TIP3    H153320   2.236   2.470   3.320  0.4932 -0.8910  1.0014
10635TIP3    H253321   2.090   2.428   3.324  0.3592 -0.4823  0.5312
10636TIP3   OH253322   5.295   3.720  16.448  0.0380 -0.4673  0.1723
10636TIP3    H153323   5.370   3.661  16.459  0.4160 -0.0781 -0.2979
10636TIP3    H253324   5.219   3.662  16.449  0.3944 -0.9445 -0.1101
10637TIP3   OH253325   1.232   1.440  12.055  0.0695  0.3709 -0.3375
10637TIP3    H153326   1.192   1.354  12.054 -0.5963  0.6807 -0.4636
10637TIP3    H253327   1.307   1.431  12.115 -0.6598  0.0134  0.5349
10638TIP3   OH253328   1.454   0.200   3.394 -0.1741 -0.3409  0.5965
10638TIP3    H153329   1.389   0.260   3.356  0.5426  0.8772  1.2275
10638TIP3    H253330   1.522   0.193   3.326 -1.2468 -2.1799 -0.3586
10639TIP3   OH253331   0.018   1.773   3.737 -0.2688  0.1997 -0.4641
10639TIP3    H153332  -0.046   1.771   3.808  0.1754 -2.2774 -0.0157
10639TIP3    H253333  -0.021   1.829   3.670 -1.7267  0.7709  0.8045
10640TIP3   OH253334   0.364   4.636   5.820 -0.5690  0.0441  0.1315
10640TIP3    H153335   0.388   4.642   5.912  0.1758 -1.7636  0.0992
10640TIP3    H253336   0.360   4.542   5.802  0.6981  0.3363 -2.0106
10641TIP3   OH253337   4.005   6.733   5.428 -0.3811  0.3571  0.6714
10641TIP3    H153338   3.953   6.762   5.353  0.2823  1.3985  0.5940
10641TIP3    H253339   4.085   6.697   5.390 -0.3455  0.2413  0.8537
10642TIP3   OH253340   2.948   5.208   3.996 -0.2189  0.1982 -0.4126
10642TIP3    H153341   2.977   5.133   4.048  0.4038 -1.1120 -2.4894
10642TIP3    H253342   3.010   5.278   4.016 -0.0899 -0.2099  0.6723
10643TIP3   OH253343   3.387   6.609  14.036  0.2387  0.2295 -0.3372
10643TIP3    H153344   3.354   6.691  13.999 -1.8745 -0.6075 -0.4408
10643TIP3    H253345   3.318   6.580  14.096  0.1203 -2.2725 -1.5403
10644TIP3   OH253346   4.238   0.589   5.472 -0.2790 -0.2374  0.0572
10644TIP3    H153347   4.164   0.553   5.424 -1.1655  0.4165  0.9022
10644TIP3    H253348   4.206   0.602   5.561  0.1002  2.1968 -0.0786
10645TIP3   OH253349   5.306   5.748  11.098  0.5063  0.1475  0.3805
10645TIP3    H153350   5.270   5.802  11.168  1.8195 -0.8771  1.8991
10645TIP3    H253351   5.243   5.677  11.087  0.7919 -0.2519  1.2628
10646TIP3   OH253352   6.573   2.530  16.400  0.3139  0.2066  0.3753
10646TIP3    H153353   6.657   2.573  16.384  1.1527 -1.4240  0.1021
10646TIP3    H253354   6.540   2.510  16.312  0.5198 -0.7327  0.5022
10647TIP3   OH253355   3.458   0.069   2.307  0.1371  0.5815  0.1592
10647TIP3    H153356   3.389   0.119   2.263  0.0257  0.1558 -0.1508
10647TIP3    H253357   3.532   0.129   2.312 -0.4660  1.2800  1.0913
10648TIP3   OH253358   2.865   1.739   4.048  0.0040  0.7785  0.5966
10648TIP3    H153359   2.790   1.680   4.051  1.4263 -1.2868 -1.1919
10648TIP3    H253360   2.887   1.754   4.140  0.5316 -2.8958  1.2266
10649TIP3   OH253361   4.494   2.025  15.496 -0.2093 -0.4852 -0.0093
10649TIP3    H153362   4.491   1.930  15.485 -0.4175 -0.3068 -1.9886
10649TIP3    H253363   4.488   2.059  15.406  0.3353  1.3857  0.6199
10650TIP3   OH253364   2.816   4.747   0.253 -0.3749 -0.1016 -0.6129
10650TIP3    H153365   2.839   4.779   0.340  0.2793  0.3944 -0.9586
10650TIP3    H253366   2.896   4.708   0.219 -0.7950 -0.8624 -0.7568
10651TIP3   OH253367   0.801   6.191  15.078 -0.2338 -0.3587 -0.7919
10651TIP3    H153368   0.788   6.219  14.988  0.9300 -0.5717 -1.0380
10651TIP3    H253369   0.867   6.252  15.112 -2.6113  1.5502  0.8147
10652TIP3   OH253370   2.994   0.385   3.690  0.3528  0.2276 -0.0971
10652TIP3    H153371   3.017   0.464   3.641  1.7695 -0.1291 -0.0635
10652TIP3    H253372   3.016   0.405   3.781 -1.3210  0.5301  0.2716
10653TIP3   OH253373   4.338   0.182  16.484  0.3228  0.5055 -0.0268
10653TIP3    H153374   4.326   0.227  16.401  1.1212  1.7609  0.5009
10653TIP3    H253375   4.392   0.106  16.462 -1.8118 -0.8003 -1.0840
10654TIP3   OH253376   5.372   2.883  14.294  0.5948  0.2461 -0.1042
10654TIP3    H153377   5.371   2.838  14.209  0.5239 -2.9934  1.4727
10654TIP3    H253378   5.287   2.926  14.300 -0.9878 -2.6317 -0.2225
10655TIP3   OH253379   5.865   5.558   5.340  0.3576 -0.3369  0.3743
10655TIP3    H153380   5.883   5.465   5.354  0.6041 -0.0807  1.9470
10655TIP3    H253381   5.770   5.562   5.328  0.3632 -0.8028  0.1293
10656TIP3   OH253382   0.576   5.022   1.750 -0.0603  0.1015  0.2823
10656TIP3    H153383   0.626   5.098   1.779  0.1215 -0.5656  1.8565
10656TIP3    H253384   0.611   4.950   1.802 -2.5532 -0.4329  1.3564
10657TIP3   OH253385   1.915   5.682   1.335  0.1152  0.2147 -0.1988
10657TIP3    H153386   1.999   5.722   1.313  1.3900 -1.3068  1.6305
10657TIP3    H253387   1.902   5.614   1.270 -0.0421  0.8603 -0.8585
10658TIP3   OH253388   3.396   5.220   4.843 -0.7265  0.0631 -0.5393
10658TIP3    H153389   3.433   5.140   4.881 -1.2826  0.6992  1.4473
10658TIP3    H253390   3.303   5.199   4.829 -0.7336  0.1633 -0.6464
10659TIP3   OH253391   4.162   3.527   1.424  0.7666 -0.2446  0.4049
10659TIP3    H153392   4.180   3.616   1.454  2.0790 -0.4519  0.2855
10659TIP3    H253393   4.183   3.472   1.499 -1.6532 -0.4018  1.0793
10660TIP3   OH253394   5.798   1.188  15.611 -0.6465 -0.1885 -0.0409
10660TIP3    H153395   5.726   1.136  15.646 -1.4184  1.1539  0.4717
10660TIP3    H253396   5.791   1.272  15.657  1.2059  0.0079 -0.0566
10661TIP3   OH253397   0.486   0.101   3.258 -0.0012  0.2004 -0.2838
10661TIP3    H153398   0.569   0.129   3.219  0.0118  1.2937  0.4668
10661TIP3    H253399   0.447   0.182   3.290 -0.2195 -0.5784  1.5356
10662TIP3   OH253400   3.782   6.623  15.474  0.0353 -0.0692  0.1800
10662TIP3    H153401   3.805   6.539  15.434  0.4561 -0.1343  0.5427
10662TIP3    H253402   3.829   6.689  15.423  1.5308 -0.2428  1.2443
10663TIP3   OH253403   2.505   5.903   2.209  0.8357 -0.0636  0.1752
10663TIP3    H153404   2.463   5.939   2.131 -0.1831 -3.5684 -1.0730
10663TIP3    H253405   2.482   5.964   2.279 -0.7312  1.6273 -1.6904
10664TIP3   OH253406   5.681   3.416   5.376  0.2295  0.0178 -0.2089
10664TIP3    H153407   5.672   3.474   5.452  1.7622  1.1353 -0.8345
10664TIP3    H253408   5.766   3.439   5.338 -0.9284  0.1986 -2.8722
10665TIP3   OH253409   5.906   0.323  12.563  0.3409  0.4841 -0.2758
10665TIP3    H153410   5.811   0.331  12.567  0.4793  1.8707  1.4991
10665TIP3    H253411   5.934   0.396  12.507  0.3350 -0.6000 -1.7534
10666TIP3   OH253412   1.979   5.738  10.562  0.3575  0.2306  0.3298
10666TIP3    H153413   1.993   5.783  10.479 -1.4378 -2.1632 -1.3912
10666TIP3    H253414   2.067   5.722  10.596  1.1272  1.1820 -1.1034
10667TIP3   OH253415   4.887   2.289  11.537 -0.0202 -0.3470 -0.6201
10667TIP3    H153416   4.794   2.304  11.556 -0.1491 -1.4220 -0.3496
10667TIP3    H253417   4.922   2.376  11.522 -1.1179  0.0630 -0.9197
10668TIP3   OH253418   4.190   6.378   2.441  0.2343  0.1292 -0.4247
10668TIP3    H153419   4.246   6.301   2.447  0.0014 -0.0159 -0.1218
10668TIP3    H253420   4.126   6.367   2.511  1.3823  1.5610  0.9247
10669TIP3   OH253421   4.866   5.090  11.584 -0.8791 -0.1314 -0.2091
10669TIP3    H153422   4.903   5.011  11.623 -1.1135 -0.9827 -1.6015
10669TIP3    H253423   4.937   5.125  11.529 -0.3976  1.2942  1.2511
10670TIP3   OH253424   0.725   1.118  12.861  0.4533 -0.2513 -0.0478
10670TIP3    H153425   0.820   1.130  12.856  0.4247 -0.0083 -0.0081
10670TIP3    H253426   0.714   1.036  12.910  0.6361 -0.0495  0.3371
10671TIP3   OH253427   2.747   4.363  14.893 -0.2219  0.0721 -0.1615
10671TIP3    H153428   2.704   4.406  14.819 -1.5565 -0.1025  0.4680
10671TIP3    H253429   2.686   4.294  14.918  0.1292  0.2279  1.1960
10672TIP3   OH253430   3.743   4.773  10.746 -0.3096 -0.5409 -0.1569
10672TIP3    H153431   3.697   4.695  10.716 -1.4600  0.0179  0.0651
10672TIP3    H253432   3.811   4.788  10.680  0.2124 -1.9564  0.0342
10673TIP3   OH253433   5.843   3.602  14.770 -0.1843 -0.0011  0.2922
10673TIP3    H153434   5.814   3.667  14.834  0.6050 -0.1099  0.7828
10673TIP3    H253435   5.917   3.559  14.813 -1.2991 -1.9221  0.3799
10674TIP3   OH253436   5.990   2.890   9.946  0.8634 -0.3395  0.9286
10674TIP3    H153437   5.952   2.804   9.963  1.7678 -0.4462  2.6095
10674TIP3    H253438   5.914   2.949   9.946  0.1398 -1.2030 -1.0805
10675TIP3   OH253439   3.362   0.777  15.904 -0.2720  0.7227 -0.1329
10675TIP3    H153440   3.445   0.821  15.927  0.2134  0.0481 -0.5518
10675TIP3    H253441   3.297   0.847  15.903  0.6666  1.6402 -1.7491
10676TIP3   OH253442   3.602   1.125  16.728 -0.0086  0.3041  0.0175
10676TIP3    H153443   3.656   1.183  16.674  2.0885  0.4549  2.1115
10676TIP3    H253444   3.638   1.038  16.714 -1.3159 -0.1022 -0.9537
10677TIP3   OH253445   0.383   5.824   5.468  0.4453  0.2743 -0.2143
10677TIP3    H153446   0.405   5.797   5.379 -1.5954  0.7265 -0.9256
10677TIP3    H253447   0.303   5.877   5.457 -0.1305 -0.0703  1.9278
10678TIP3   OH253448   0.397   5.974   3.324  0.2672  0.1973  0.3270
10678TIP3    H153449   0.360   5.913   3.260 -0.1816  0.3671  0.4138
10678TIP3    H253450   0.490   5.977   3.305  0.0763  0.5697 -0.6004
10679TIP3   OH253451   6.721   5.505   0.380 -0.3936  0.2856  0.0462
10679TIP3    H153452   6.764   5.584   0.348 -2.0171  1.4149  0.5286
10679TIP3    H253453   6.694   5.527   0.469  0.0533 -1.2042  0.5816
10680TIP3   OH253454   5.696   3.503  12.237 -0.4028  0.5533 -0.3958
10680TIP3    H153455   5.659   3.583  12.201  0.6918  0.6571 -1.3429
10680TIP3    H253456   5.780   3.529  12.274 -1.9933  0.7262  3.5590
10681TIP3   OH253457   1.087   2.010  11.611  0.3934 -0.2570 -0.5241
10681TIP3    H153458   1.147   2.084  11.616 -0.2784  0.2461  0.4223
10681TIP3    H253459   1.001   2.050  11.597  0.0436 -0.8648 -0.1453
10682TIP3   OH253460   4.909   4.222   4.274  0.6368 -0.2803  0.0601
10682TIP3    H153461   4.897   4.175   4.192  0.2000 -0.5235  0.2570
10682TIP3    H253462   4.988   4.275   4.260  0.8161 -0.6489 -0.3543
10683TIP3   OH253463   0.626   0.627   1.140  0.1837 -0.0415  0.5109
10683TIP3    H153464   0.663   0.598   1.223 -0.0375  0.4752  0.7988
10683TIP3    H253465   0.684   0.698   1.111  0.8842 -0.9210 -0.3236
10684TIP3   OH253466   6.738   1.186  14.882  0.2388 -0.2952  0.6756
10684TIP3    H153467   6.812   1.156  14.830 -1.0844  0.1965 -1.6252
10684TIP3    H253468   6.686   1.239  14.822 -1.9770 -0.5892  2.2021
10685TIP3   OH253469   3.411   6.499   3.696  0.5005 -0.2643  0.1257
10685TIP3    H153470   3.396   6.407   3.718 -1.0117  0.0165  0.4009
10685TIP3    H253471   3.396   6.546   3.777 -0.2821  0.3557 -0.3653
10686TIP3   OH253472   4.617   0.679   5.239  0.4113  0.5943  0.2030
10686TIP3    H153473   4.535   0.638   5.213  0.3742  0.7844  0.0104
10686TIP3    H253474   4.682   0.609   5.232  0.3137  0.5160  0.0760
10687TIP3   OH253475   4.258   4.381   0.515 -0.0789 -0.3502  0.3654
10687TIP3    H153476   4.213   4.343   0.590 -0.5347 -1.0836 -0.2696
10687TIP3    H253477   4.240   4.321   0.442  0.8382  0.0339 -0.2007
10688TIP3   OH253478   2.995   0.008  11.511  0.5423 -0.6322  0.3471
10688TIP3    H153479   3.059   0.019  11.440 -1.0363  1.1777 -0.8750
10688TIP3    H253480   3.003   0.087  11.563 -2.5633  1.0863 -1.4917
10689TIP3   OH253481   6.321   6.625  13.358  0.7530  0.1671  0.7924
10689TIP3    H153482   6.339   6.576  13.438 -0.9702  0.2970  1.3081
10689TIP3    H253483   6.238   6.588  13.326  0.2792  1.6159  0.2896
10690TIP3   OH253484   5.249   5.484  14.853  0.6082 -0.1638  0.2443
10690TIP3    H153485   5.189   5.409  14.852  0.6802 -0.2535  1.1944
10690TIP3    H253486   5.301   5.475  14.773 -0.1148 -0.5235 -0.1886
10691TIP3   OH253487   4.506   0.486  13.668 -0.2090  0.3744 -0.2124
10691TIP3    H153488   4.568   0.541  13.716 -0.2354  0.8247 -0.6803
10691TIP3    H253489   4.474   0.424  13.733  0.7422  0.1222  0.0347
10692TIP3   OH253490   4.435   0.946   0.238 -0.2904  0.6015 -0.1031
10692TIP3    H153491   4.375   0.876   0.213 -2.0167  0.9986  2.4943
10692TIP3    H253492   4.510   0.901   0.277 -0.2709  0.1578 -0.6438
10693TIP3   OH253493   3.054   6.266  15.385  0.1036  0.3526 -0.4207
10693TIP3    H153494   3.119   6.210  15.343  0.4899 -0.9633  1.7866
10693TIP3    H253495   3.104   6.343  15.413  1.0468 -1.0132  2.0086
10694TIP3   OH253496   0.419   3.331  10.934  0.3906 -0.0122 -0.0651
10694TIP3    H153497   0.382   3.243  10.930  0.0373  0.0488  1.4093
10694TIP3    H253498   0.509   3.320  10.903 -0.1786 -0.5442 -1.6296
10695TIP3   OH253499   2.064   0.609   0.985 -0.2718 -0.1497 -0.6901
10695TIP3    H153500   2.078   0.649   1.071 -0.1338 -0.8051 -0.3987
10695TIP3    H253501   2.017   0.675   0.935  1.6044  1.1342 -0.8508
10696TIP3   OH253502   3.580   5.427   4.795  0.0329 -0.6613  0.1874
10696TIP3    H153503   3.642   5.371   4.748 -1.2058 -0.6153 -1.5873
10696TIP3    H253504   3.500   5.374   4.801 -1.4425  1.0765 -2.2407
10697TIP3   OH253505   6.014   3.130   0.096 -0.2772  0.4954  0.3704
10697TIP3    H153506   6.009   3.117   0.002 -1.5331 -0.4362  0.5445
10697TIP3    H253507   6.107   3.150   0.113  0.1667 -0.3909 -0.9176
10698TIP3   OH253508   0.342   5.577  15.142  0.1962 -0.5318  0.0518
10698TIP3    H153509   0.397   5.642  15.186  0.4840 -0.9347  0.2914
10698TIP3    H253510   0.344   5.603  15.050  1.1434 -0.7949 -0.0051
10699TIP3   OH253511   6.093   5.893  16.501  0.3579  0.0592 -0.4975
10699TIP3    H153512   6.171   5.902  16.556  0.7365  0.6852 -1.1164
10699TIP3    H253513   6.049   5.814  16.534  0.8352  0.1424  0.3702
10700TIP3   OH253514   0.472   5.589  11.203  0.1976 -0.0950 -0.1788
10700TIP3    H153515   0.422   5.670  11.219  0.0408 -0.0054 -1.0705
10700TIP3    H253516   0.406   5.521  11.196  0.3891 -0.5391  1.7730
10701TIP3   OH253517   4.278   4.518   1.896  0.2866 -0.0224 -0.0024
10701TIP3    H153518   4.235   4.600   1.870  1.1629  0.3073 -0.4649
10701TIP3    H253519   4.267   4.514   1.991 -1.0711 -0.1316 -0.1507
10702TIP3   OH253520   1.892   0.938   3.309 -0.0920 -0.2830 -0.1113
10702TIP3    H153521   1.845   0.884   3.246  2.1455 -0.3432 -1.8374
10702TIP3    H253522   1.940   0.876   3.363  2.1292 -0.1287 -1.8080
10703TIP3   OH253523   5.829   3.096   1.087  0.2494 -0.7773  0.0523
10703TIP3    H153524   5.875   3.176   1.115  1.3412 -1.4034  0.1035
10703TIP3    H253525   5.825   3.103   0.992 -1.7283  0.4159  0.1595
10704TIP3   OH253526   4.218   0.106  16.731 -0.1676  0.4725 -0.2904
10704TIP3    H153527   4.130   0.144  16.733 -1.3519 -2.0380 -0.2195
10704TIP3    H253528   4.258   0.144  16.653 -2.2048 -0.0194 -1.6652
10705TIP3   OH253529   4.531   6.131  10.390  0.4724 -0.1794 -0.4638
10705TIP3    H153530   4.534   6.044  10.430  0.0001  0.2531  0.5568
10705TIP3    H253531   4.484   6.118  10.308  1.2041 -1.0410 -0.7613
10706TIP3   OH253532   0.281   4.688   4.943  0.0666 -0.2491 -0.7572
10706TIP3    H153533   0.325   4.732   5.015  1.8473 -1.6086 -0.9199
10706TIP3    H253534   0.189   4.708   4.954  0.5815  1.8101  0.2938
10707TIP3   OH253535   6.690   0.680  16.538  0.2024  0.5599 -0.0924
10707TIP3    H153536   6.768   0.723  16.502 -0.3209  1.0739 -0.6359
10707TIP3    H253537   6.722   0.595  16.570  1.2326  1.2868  0.8992
10708TIP3   OH253538   5.665   0.936  16.956 -0.1545  0.0205  0.0388
10708TIP3    H153539   5.733   0.983  17.004  1.8444 -0.1435 -2.3795
10708TIP3    H253540   5.696   0.845  16.955 -0.2978 -0.0291 -1.1975
10709TIP3   OH253541   2.271   4.563   4.653  0.0364  0.5627 -0.0455
10709TIP3    H153542   2.266   4.519   4.568 -0.3628  3.0408 -1.4169
10709TIP3    H253543   2.210   4.637   4.645  0.3292  1.1354  2.2421
10710TIP3   OH253544   6.809   2.734  11.097 -0.4994  0.0034 -0.0886
10710TIP3    H153545   6.821   2.784  11.017 -1.2090  0.3990  0.0348
10710TIP3    H253546   6.852   2.651  11.081 -0.2098  0.2655 -0.6952
10711TIP3   OH253547   6.738   6.683   4.965  0.0349 -0.1886 -0.2721
10711TIP3    H153548   6.660   6.644   4.926 -0.2651 -0.7712  0.8764
10711TIP3    H253549   6.800   6.691   4.892 -0.9303 -0.1287 -1.1048
10712TIP3   OH253550   6.260   1.093  12.005  0.0860 -0.9071 -0.3262
10712TIP3    H153551   6.207   1.017  12.028 -0.4764 -0.3544  0.2154
10712TIP3    H253552   6.304   1.068  11.923  0.4819 -2.0901  0.2334
10713TIP3   OH253553   5.174   2.229   6.348 -0.2341  0.3744 -0.5278
10713TIP3    H153554   5.212   2.316   6.343 -1.6351  0.9751 -1.1170
10713TIP3    H253555   5.105   2.228   6.282  0.9085 -1.7830 -1.8242
10714TIP3   OH253556   5.150   2.329  11.966  0.7667  0.3130 -0.3925
10714TIP3    H153557   5.065   2.307  11.928  0.0874 -0.0071  1.2638
10714TIP3    H253558   5.212   2.311  11.895 -0.2966 -1.8790 -0.8546
10715TIP3   OH253559   6.603   6.056   5.798 -0.4974  0.3910  0.5942
10715TIP3    H153560   6.667   6.127   5.799  1.5627 -1.3698  0.9336
10715TIP3    H253561   6.629   6.000   5.871 -1.5912 -1.1144 -0.1324
10716TIP3   OH253562   2.687   5.559   4.150  0.5974 -0.0392 -0.3441
10716TIP3    H153563   2.780   5.580   4.146  0.2059  1.7258 -1.5472
10716TIP3    H253564   2.680   5.471   4.113  1.9531 -0.9568  1.4595
10717TIP3   OH253565   1.104   0.166   5.048  0.3930 -0.1925  0.3150
10717TIP3    H153566   1.164   0.093   5.034  0.4263 -0.4800  1.8262
10717TIP3    H253567   1.101   0.178   5.143 -1.2188  0.4158  0.2300
10718TIP3   OH253568   0.370   5.804   3.921 -0.1504 -0.3920 -0.1019
10718TIP3    H153569   0.461   5.805   3.952  0.3327 -1.2287 -1.3705
10718TIP3    H253570   0.326   5.742   3.979 -0.2192  0.8506  1.2279
10719TIP3   OH253571   5.531   0.758   2.606  0.3508  0.5805 -0.0938
10719TIP3    H153572   5.626   0.767   2.595  0.6745 -1.1322  0.9525
10719TIP3    H253573   5.514   0.784   2.697  0.2591 -1.6677  0.5894
10720TIP3   OH253574   6.674   6.108  15.888  0.5169  0.0712  0.1048
10720TIP3    H153575   6.732   6.036  15.913  1.0071  0.3505 -0.2008
10720TIP3    H253576   6.722   6.154  15.819  0.8045  1.4810  1.1897
10721TIP3   OH253577   0.362   2.544  11.044  0.3125 -0.5404 -0.1073
10721TIP3    H153578   0.273   2.520  11.019  1.7138 -2.6874 -3.8777
10721TIP3    H253579   0.391   2.473  11.102  0.0754 -0.6311 -0.0997
10722TIP3   OH253580   3.634   0.499  15.027  0.0869 -0.0630 -0.1101
10722TIP3    H153581   3.675   0.566  14.973  0.9857  0.8937  1.6631
10722TIP3    H253582   3.657   0.416  14.984 -0.2230  0.6891 -1.7897
10723TIP3   OH253583   6.720   1.959  13.246  0.4735  0.1624  0.0175
10723TIP3    H153584   6.745   2.040  13.201  0.0125  1.0795  1.3556
10723TIP3    H253585   6.790   1.897  13.224  1.8085  1.4746  0.4181
10724TIP3   OH253586   2.929   1.855   2.775 -0.3830 -0.3046  0.6347
10724TIP3    H153587   2.889   1.859   2.688  0.1596  0.4883  0.4091
10724TIP3    H253588   2.892   1.931   2.821  1.6030  1.0776  0.0768
10725TIP3   OH253589   0.779   3.901  14.087 -0.0035 -0.3396  0.2300
10725TIP3    H153590   0.853   3.846  14.114 -0.5152 -0.4432  1.4809
10725TIP3    H253591   0.703   3.843  14.092 -0.2915 -0.0121 -0.2587
10726TIP3   OH253592   1.068   3.737  14.474  0.2148  0.4533 -0.1673
10726TIP3    H153593   0.980   3.721  14.508 -0.5533 -0.1753 -2.2720
10726TIP3    H253594   1.111   3.652  14.481  0.2344  0.4587 -0.2213
10727TIP3   OH253595   5.246   3.022  13.980 -0.5352  0.1570 -0.4109
10727TIP3    H153596   5.266   3.110  14.011 -2.7162  0.6902 -0.3834
10727TIP3    H253597   5.313   3.004  13.914  1.5685  0.7217  1.4539
10728TIP3   OH253598   2.310   1.522  14.072 -0.0316  0.0883  0.6338
10728TIP3    H153599   2.236   1.489  14.124 -0.6166  0.3261 -0.0400
10728TIP3    H253600   2.368   1.561  14.137 -0.6749  0.2357  1.1373
10729TIP3   OH253601   1.505   0.454  16.880 -0.2969 -0.0646 -0.0424
10729TIP3    H153602   1.416   0.473  16.908  0.3178  0.4706  1.7096
10729TIP3    H253603   1.510   0.359  16.876 -1.1346 -0.0832 -0.8604
10730TIP3   OH253604   4.879   3.278  11.602  0.5901  0.1273  0.3869
10730TIP3    H153605   4.952   3.323  11.561 -0.4579  1.3152 -0.2295
10730TIP3    H253606   4.822   3.347  11.634 -1.0131 -0.7072 -0.4887
10731TIP3   OH253607   4.529   4.925   5.547 -0.1176  0.8116 -0.0273
10731TIP3    H153608   4.544   4.831   5.550 -2.2421  0.3949 -0.6584
10731TIP3    H253609   4.552   4.956   5.635 -1.0788 -0.6009  0.7596
10732TIP3   OH253610   5.571   4.259   3.939 -0.1530 -0.0059  0.2151
10732TIP3    H153611   5.634   4.233   4.006  0.1473  0.7648  0.2479
10732TIP3    H253612   5.579   4.192   3.871  2.0630  1.0321 -0.6481
10733TIP3   OH253613   5.564   3.455   3.034  0.1094 -0.5263  0.1445
10733TIP3    H153614   5.660   3.453   3.040  0.0874 -0.8926  0.4052
10733TIP3    H253615   5.535   3.392   3.100 -0.2751 -1.3307 -0.7606
10734TIP3   OH253616   5.955   0.459   4.499 -0.0793 -0.5585 -0.6424
10734TIP3    H153617   5.964   0.392   4.566 -0.0794  0.0420 -0.0343
10734TIP3    H253618   6.011   0.531   4.529  1.1021 -0.8433 -2.0217
10735TIP3   OH253619   2.902   0.620  12.571  0.5163 -0.0156  0.3430
10735TIP3    H153620   2.959   0.621  12.495  0.3914  0.5607  0.2529
10735TIP3    H253621   2.825   0.671  12.545  1.1224  1.4902  1.3316
10736TIP3   OH253622   6.107   1.353   5.930  0.2857  0.5045 -0.3435
10736TIP3    H153623   6.134   1.313   6.013 -1.6681 -1.9126 -0.7678
10736TIP3    H253624   6.190   1.376   5.887  1.4745 -1.3560  0.8119
10737TIP3   OH253625   5.768   1.216  12.283 -0.8498 -0.0141 -0.1758
10737TIP3    H153626   5.794   1.289  12.227 -2.4244  0.8806  0.2033
10737TIP3    H253627   5.724   1.257  12.357  1.2517 -1.1574  1.8302
10738TIP3   OH253628   4.371   2.300  16.211  0.1856  0.4293 -0.3402
10738TIP3    H153629   4.369   2.374  16.272  2.1479  1.5748 -1.5858
10738TIP3    H253630   4.429   2.328  16.141  0.3545 -2.0064 -1.2556
10739TIP3   OH253631   3.708   6.139  13.369 -0.0193 -0.2179  0.4242
10739TIP3    H153632   3.703   6.149  13.274  1.6238 -1.5762  0.1433
10739TIP3    H253633   3.642   6.073  13.390 -1.3429  1.0734  0.4456
10740TIP3   OH253634   6.324   2.209  15.059 -0.1755  0.5948 -0.0654
10740TIP3    H153635   6.354   2.172  14.976  0.2070 -0.6354  0.5844
10740TIP3    H253636   6.322   2.303  15.045 -0.5320  0.3800 -1.5987
10741TIP3   OH253637   3.928   0.270  11.075  0.9543  0.1616 -0.5162
10741TIP3    H153638   3.889   0.254  11.161  0.6178  0.9062 -0.5208
10741TIP3    H253639   4.008   0.217  11.074  1.6001  1.0621  0.7290
10742TIP3   OH253640   6.251   3.232   1.445  0.2317 -0.4178  0.6567
10742TIP3    H153641   6.192   3.244   1.370 -0.2393 -0.4425  1.0148
10742TIP3    H253642   6.319   3.298   1.432  0.8645 -1.2464 -0.4551
10743TIP3   OH253643   6.269   6.718  13.710  0.0354  0.7416 -0.0931
10743TIP3    H153644   6.300   6.628  13.695  0.1189  0.8143 -0.3565
10743TIP3    H253645   6.294   6.737  13.801 -0.6348  0.2341  0.2119
10744TIP3   OH253646   1.671   2.404   3.304  0.1677  0.2035 -0.1763
10744TIP3    H153647   1.753   2.431   3.261 -0.4035  0.7054 -0.9655
10744TIP3    H253648   1.700   2.352   3.379  1.2112  0.2039 -0.5622
10745TIP3   OH253649   2.931   5.507  16.490 -0.4894 -0.4123 -0.2894
10745TIP3    H153650   2.862   5.478  16.431 -1.5224 -0.8663  1.0767
10745TIP3    H253651   2.966   5.427  16.529 -1.0133 -0.0582  0.9687
10746TIP3   OH253652   4.684   1.288  14.645  0.3076 -0.6290 -0.0679
10746TIP3    H153653   4.617   1.347  14.680  0.4595 -0.7477  0.4272
10746TIP3    H253654   4.639   1.239  14.577  0.1170 -0.1066 -0.3304
10747TIP3   OH253655   1.089   1.852  11.256  0.2012 -0.4101  0.5373
10747TIP3    H153656   1.044   1.777  11.296  0.3162 -0.3642  0.7556
10747TIP3    H253657   1.040   1.870  11.176 -1.4047  0.8846  1.7419
10748TIP3   OH253658   2.946   3.763   2.853 -0.3668 -0.5523  0.3452
10748TIP3    H153659   3.009   3.720   2.796 -0.2714 -0.1430  0.1385
10748TIP3    H253660   2.916   3.839   2.803 -0.2523 -0.1654  0.8533
10749TIP3   OH253661   3.507   5.141  12.568 -0.5880 -0.5854  0.0017
10749TIP3    H153662   3.444   5.118  12.636 -0.5507  0.5182  0.4296
10749TIP3    H253663   3.456   5.142  12.487 -1.3461  1.0376  0.4391
10750TIP3   OH253664   4.577   6.405  13.914 -0.1861 -0.5510  0.0131
10750TIP3    H153665   4.522   6.431  13.840 -1.2709 -3.5114 -0.3457
10750TIP3    H253666   4.666   6.405  13.878 -0.3003  1.0210 -0.3578
10751TIP3   OH253667   1.906   2.533   0.890  0.2649  0.5155  0.2304
10751TIP3    H153668   1.860   2.604   0.936  0.3867 -0.7536  2.4372
10751TIP3    H253669   1.909   2.563   0.799 -2.5541  1.8747  0.4429
10752TIP3   OH253670   5.596   0.654   0.673 -0.8498  0.4814 -0.5754
10752TIP3    H153671   5.508   0.680   0.702  0.0260  1.4987  1.4018
10752TIP3    H253672   5.650   0.731   0.690  0.3605  0.0308 -2.1990
10753TIP3   OH253673   4.257   1.988  14.688  0.3153  0.2645 -0.7072
10753TIP3    H153674   4.226   1.950  14.770  0.0737 -0.4817 -1.1335
10753TIP3    H253675   4.350   1.966  14.685 -0.1321 -1.6935 -1.6765
10754TIP3   OH253676   5.485   3.351   1.392 -0.3960  0.3870 -0.6478
10754TIP3    H153677   5.497   3.257   1.396 -0.0352  0.4498 -0.1742
10754TIP3    H253678   5.566   3.385   1.353  0.4423  0.6857  1.2500
10755TIP3   OH253679   6.753   5.835   2.450 -0.0223  0.1647 -0.0361
10755TIP3    H153680   6.744   5.823   2.356 -0.6450 -1.2897  0.1776
10755TIP3    H253681   6.755   5.930   2.462 -1.2610  0.4035 -1.4075
10756TIP3   OH253682   3.274   0.216  13.762 -0.5749 -0.0010 -0.1690
10756TIP3    H153683   3.335   0.290  13.759 -0.1988 -0.3159 -0.2367
10756TIP3    H253684   3.219   0.229  13.684 -0.6970  0.3655 -0.0256
10757TIP3   OH253685   2.841   0.508  16.579 -0.0261 -0.3038 -0.5050
10757TIP3    H153686   2.850   0.416  16.604 -1.2975 -0.0334  1.0749
10757TIP3    H253687   2.876   0.557  16.654  1.1882  0.5407 -1.5676
10758TIP3   OH253688   5.800   1.632  11.243 -0.4384  0.3781 -0.3440
10758TIP3    H153689   5.852   1.591  11.311 -1.7997 -1.1491 -0.1601
10758TIP3    H253690   5.811   1.726  11.257 -1.0372  0.1239  2.2929
10759TIP3   OH253691   4.743   6.420   2.286 -0.8403 -0.2924 -0.2589
10759TIP3    H153692   4.740   6.444   2.193 -0.5092  0.5249 -0.0626
10759TIP3    H253693   4.833   6.392   2.300 -0.8637 -0.3170 -0.1565
10760TIP3   OH253694   0.677   6.264   5.367  0.9973  0.4179 -0.3214
10760TIP3    H153695   0.628   6.212   5.432  2.5646  0.8116  1.2451
10760TIP3    H253696   0.626   6.344   5.358  0.8134  0.4148  0.5536
10761TIP3   OH253697   4.508   3.318  15.411 -0.1569 -0.0047 -0.2154
10761TIP3    H153698   4.436   3.352  15.464 -0.1795  0.3165 -0.4522
10761TIP3    H253699   4.587   3.341  15.460 -0.2069 -0.2329 -0.0254
10762TIP3   OH253700   0.070   2.858  10.871 -0.5910 -0.1040 -0.5245
10762TIP3    H153701   0.156   2.855  10.829  0.4107 -1.0749  1.4288
10762TIP3    H253702   0.068   2.943  10.915 -1.0893  0.3565 -1.4129
10763TIP3   OH253703   2.661   3.517   0.460  0.4211 -0.5273  0.2622
10763TIP3    H153704   2.615   3.538   0.379 -0.2703 -2.3745  0.1429
10763TIP3    H253705   2.726   3.453   0.435  2.0488  0.8649  0.7334
10764TIP3   OH253706   5.343   2.249   3.892 -0.3019 -0.4887 -0.4817
10764TIP3    H153707   5.394   2.170   3.873  1.6256  0.1670  1.6279
10764TIP3    H253708   5.401   2.321   3.868 -0.2263  0.2813  1.8255
10765TIP3   OH253709   3.286   0.213  15.126  0.2491 -0.4895  0.1192
10765TIP3    H153710   3.291   0.293  15.179 -1.2821 -0.4781  0.3010
10765TIP3    H253711   3.344   0.231  15.051 -2.0458  1.9616 -1.2616
10766TIP3   OH253712   5.293   2.497  13.771 -0.1162  0.1144  0.0856
10766TIP3    H153713   5.374   2.525  13.815  0.3086 -0.2281 -0.4618
10766TIP3    H253714   5.298   2.537  13.684 -0.0703 -0.6717 -0.2857
10767TIP3   OH253715   3.007   0.847  11.187  0.1625  0.3836  0.1001
10767TIP3    H153716   2.962   0.791  11.250  2.0040 -0.2479  0.9441
10767TIP3    H253717   2.994   0.803  11.103  0.6873 -0.7621  0.5951
10768TIP3   OH253718   0.134   1.260  12.661  0.1126  0.5642 -0.3128
10768TIP3    H153719   0.172   1.216  12.737  2.0591 -1.0535 -2.1031
10768TIP3    H253720   0.051   1.215  12.646  1.3311 -1.5548 -1.1525
10769TIP3   OH253721   6.475   1.921  14.524 -0.7542 -0.1701 -0.1442
10769TIP3    H153722   6.399   1.929  14.466 -0.6509  2.3633 -0.0067
10769TIP3    H253723   6.544   1.887  14.467 -1.0455  0.9091 -1.1904
10770TIP3   OH253724   4.555   3.320   0.748  0.7935  0.1061 -0.8863
10770TIP3    H153725   4.491   3.255   0.719  0.6074 -0.0757 -0.0975
10770TIP3    H253726   4.625   3.269   0.787  0.6440  0.3657 -0.2538
10771TIP3   OH253727   1.395   5.032  10.345  0.3527 -1.1192 -0.9186
10771TIP3    H153728   1.387   5.127  10.346 -1.8396 -1.2525 -1.8102
10771TIP3    H253729   1.436   5.012  10.261  0.1808 -1.0190 -1.0240
10772TIP3   OH253730   4.538   4.764   3.278  0.1895 -0.0830  0.1054
10772TIP3    H153731   4.531   4.796   3.369 -2.8699 -2.2887  0.8108
10772TIP3    H253732   4.619   4.713   3.277 -1.1837 -2.5794  2.6293
10773TIP3   OH253733   1.600   2.237  13.726  0.1303 -0.2374 -0.0053
10773TIP3    H153734   1.616   2.260  13.635  2.2415 -0.6177  0.2189
10773TIP3    H253735   1.598   2.141  13.726 -1.7014 -0.2248  0.0987
10774TIP3   OH253736   3.102   1.650  15.395 -0.4888  0.0760  0.4601
10774TIP3    H153737   3.116   1.676  15.304  0.1711 -0.3213  0.4445
10774TIP3    H253738   3.175   1.592  15.415 -1.4637 -1.0953  0.7593
10775TIP3   OH253739   5.120   3.578  10.656 -0.4103 -0.7818 -0.0796
10775TIP3    H153740   5.057   3.601  10.724 -0.9025 -1.2335 -0.3715
10775TIP3    H253741   5.128   3.657  10.602  1.6332  0.3447  1.7151
10776TIP3   OH253742   1.134   0.575   3.708  0.3051  0.4303 -0.0599
10776TIP3    H153743   1.213   0.545   3.664  1.2059  0.4415  1.4591
10776TIP3    H253744   1.070   0.504   3.696  0.5410  0.4126 -1.2737
10777TIP3   OH253745   1.948   5.096   1.947  0.3834 -0.5683 -0.3036
10777TIP3    H153746   1.937   5.177   1.898 -2.5904 -0.3917  0.4612
10777TIP3    H253747   1.871   5.092   2.004  1.7934 -2.6304  1.6027
10778TIP3   OH253748   1.461   0.265  13.263 -0.3940 -0.4286 -0.1656
10778TIP3    H153749   1.537   0.298  13.214 -0.7515 -1.8055 -1.7443
10778TIP3    H253750   1.399   0.338  13.264 -0.2745 -0.2834 -1.6032
10779TIP3   OH253751   6.555   1.777   5.984 -0.0704 -0.6955  0.2970
10779TIP3    H153752   6.521   1.864   5.961  0.1185 -0.7948 -0.3752
10779TIP3    H253753   6.519   1.719   5.917 -1.8550 -1.5105  1.8597
10780TIP3   OH253754   4.699   0.398   4.160 -0.2745  0.2328  0.6781
10780TIP3    H153755   4.726   0.462   4.094 -5.1647 -0.8250 -2.9002
10780TIP3    H253756   4.656   0.449   4.228  0.8155  1.0423  0.7805
10781TIP3   OH253757   2.362   4.066   1.677  0.1708 -0.3572  0.4312
10781TIP3    H153758   2.440   4.047   1.625  0.9667  1.2415  0.9710
10781TIP3    H253759   2.395   4.075   1.767 -0.7162 -0.2034  0.7511
10782TIP3   OH253760   6.672   4.438   1.842 -0.3186  0.0012 -0.2777
10782TIP3    H153761   6.720   4.413   1.922  2.2195  1.0831 -1.3474
10782TIP3    H253762   6.690   4.366   1.781 -1.2750 -0.2538 -0.2701
10783TIP3   OH253763   1.671   3.655  16.046  0.0436 -0.2184 -0.1151
10783TIP3    H153764   1.634   3.740  16.023  1.6941  0.4455 -0.4223
10783TIP3    H253765   1.605   3.615  16.104 -0.8773  1.1353 -0.1904
10784TIP3   OH253766   2.408   2.326   0.813 -0.0674 -0.4741 -0.1753
10784TIP3    H153767   2.354   2.375   0.751 -1.0997 -0.2996  0.8115
10784TIP3    H253768   2.353   2.252   0.839  1.2720 -1.9250 -1.2532
10785TIP3   OH253769   6.234   2.684   5.830  0.2821 -0.3063 -0.0001
10785TIP3    H153770   6.223   2.752   5.763 -0.9649 -0.8947 -0.4088
10785TIP3    H253771   6.192   2.607   5.793 -0.9456 -0.4917  1.6964
10786TIP3   OH253772   6.585   2.733  14.176 -0.0526 -0.5514 -0.3756
10786TIP3    H153773   6.572   2.657  14.120  0.1117 -0.9294  0.0963
10786TIP3    H253774   6.661   2.712  14.229  0.9798  0.5892 -1.3252
10787TIP3   OH253775   2.983   0.661   4.283  0.0996  0.1589 -0.0810
10787TIP3    H153776   3.034   0.741   4.273 -1.5661  1.1450 -1.1371
10787TIP3    H253777   2.901   0.689   4.324 -0.9868 -0.7533 -1.4994
10788TIP3   OH253778   4.861   4.927  14.625  0.0911 -0.1845 -0.6048
10788TIP3    H153779   4.804   4.871  14.572 -0.6049  1.2286 -1.4068
10788TIP3    H253780   4.801   4.980  14.677  0.7159  0.3695 -0.4421
10789TIP3   OH253781   3.366   6.106   6.328 -0.4256  0.0802  0.5677
10789TIP3    H153782   3.347   6.015   6.303  0.8601 -0.2540  0.7220
10789TIP3    H253783   3.454   6.102   6.364 -0.8173  1.2013  1.6863
10790TIP3   OH253784   4.135   1.429   5.275  0.1170 -0.1037  0.5124
10790TIP3    H153785   4.210   1.479   5.307 -0.3285  0.2967  0.9438
10790TIP3    H253786   4.088   1.401   5.354  0.1008 -0.8109  0.2645
10791TIP3   OH253787   5.528   3.652   5.547 -0.1433 -0.2551  0.1868
10791TIP3    H153788   5.548   3.704   5.469  1.3780 -1.0302  0.0160
10791TIP3    H253789   5.497   3.716   5.611  2.3423  1.0312  0.2164
10792TIP3   OH253790   4.626   5.208   4.971  0.3992  0.0642  0.5335
10792TIP3    H153791   4.533   5.184   4.970  0.6093 -0.8213  0.8087
10792TIP3    H253792   4.630   5.286   5.026 -0.0431 -0.5946  1.5484
10793TIP3   OH253793   1.574   6.464   0.643  0.1872  0.0386  0.4037
10793TIP3    H153794   1.544   6.401   0.577 -0.3543 -0.4755  1.1281
10793TIP3    H253795   1.656   6.498   0.607 -0.5701  0.4871 -0.9778
10794TIP3   OH253796   6.470   2.578  15.623 -0.1935  0.6786  0.0277
10794TIP3    H153797   6.534   2.646  15.638  0.2986  0.3908 -0.7207
10794TIP3    H253798   6.496   2.538  15.540 -1.4048  0.6379 -0.3536
10795TIP3   OH253799   6.048   4.910  14.062 -0.2182 -0.6226 -0.0133
10795TIP3    H153800   6.106   4.920  13.987  0.2452 -0.2440  0.3864
10795TIP3    H253801   5.994   4.834  14.041 -2.5713  1.5106 -2.3261
10796TIP3   OH253802   3.130   6.448   3.552 -0.2110  0.3847  0.1460
10796TIP3    H153803   3.116   6.543   3.545 -0.0548  0.3359 -0.9294
10796TIP3    H253804   3.209   6.440   3.606 -0.7318  0.8333  0.9972
10797TIP3   OH253805   1.847   5.953   0.842  0.2626 -0.3623  0.0386
10797TIP3    H153806   1.942   5.937   0.842 -0.0494 -2.6125 -1.5761
10797TIP3    H253807   1.818   5.919   0.927  0.5003 -2.8762 -0.8247
10798TIP3   OH253808   0.218   2.541  14.512 -0.1475  0.0238 -0.0838
10798TIP3    H153809   0.230   2.448  14.492 -0.7918  0.0700 -0.7374
10798TIP3    H253810   0.200   2.543  14.606 -0.6581 -0.5759 -0.1635
10799TIP3   OH253811   2.978   3.035   5.475  0.6795  0.8401  0.0505
10799TIP3    H153812   3.033   2.966   5.513  0.6747  1.2841  0.8692
10799TIP3    H253813   2.952   3.000   5.390 -0.7384 -0.9498  1.1368
10800TIP3   OH253814   1.958   0.319  16.569 -0.1157  0.0801 -0.2621
10800TIP3    H153815   2.025   0.371  16.612  0.2880 -0.2551 -0.4802
10800TIP3    H253816   1.884   0.379  16.558  0.0809  0.4016  0.1328
10801TIP3   OH253817   3.622   5.778   1.844 -0.0851  0.2699 -0.4795
10801TIP3    H153818   3.706   5.783   1.889  0.5255  0.6386 -1.5997
10801TIP3    H253819   3.641   5.727   1.765 -1.1826 -0.6148 -0.1859
10802TIP3   OH253820   0.446   4.471  16.524  0.6030  0.2300 -0.2750
10802TIP3    H153821   0.511   4.475  16.595 -0.2072  1.2270  0.4495
10802TIP3    H253822   0.485   4.524  16.454  0.8926  0.2228 -0.1227
10803TIP3   OH253823   2.946   6.698   2.880  0.1326  0.0447 -0.4305
10803TIP3    H153824   2.876   6.633   2.887  2.8081 -3.0393 -0.0380
10803TIP3    H253825   2.949   6.739   2.966  0.9679 -2.3461  0.7842
10804TIP3   OH253826   3.039   2.092  13.972  0.2923  0.0990 -0.0945
10804TIP3    H153827   3.021   2.166  14.030 -0.3615 -0.0337 -0.1122
10804TIP3    H253828   3.103   2.126  13.910  0.8283  0.3122  0.5608
10805TIP3   OH253829   2.901   2.679   3.398 -0.6832  0.1064 -0.1189
10805TIP3    H153830   2.942   2.765   3.406 -0.0348 -0.0972 -1.1263
10805TIP3    H253831   2.955   2.622   3.454 -0.3656  0.1051 -0.4232
10806TIP3   OH253832   2.806   2.181   1.965 -0.2997 -0.2420  0.4944
10806TIP3    H153833   2.775   2.264   2.002  0.5080  0.4320 -0.2829
10806TIP3    H253834   2.872   2.151   2.028  0.5446  0.5273 -0.0002
10807TIP3   OH253835   0.938   3.100   2.499  0.2809 -0.2530  0.0420
10807TIP3    H153836   0.875   3.029   2.487  0.2671 -0.2012 -0.1924
10807TIP3    H253837   0.955   3.133   2.411  1.4584 -0.9712 -0.0299
10808TIP3   OH253838   6.178   0.090  10.623  0.4210 -0.4843  0.1729
10808TIP3    H153839   6.114   0.061  10.687  1.7510 -3.5898  0.2479
10808TIP3    H253840   6.125   0.120  10.549 -1.1016  0.6558  1.6360
10809TIP3   OH253841   1.695   5.754   1.046  0.2097 -0.0797  0.2637
10809TIP3    H153842   1.682   5.750   1.141  0.7269 -0.6410  0.3168
10809TIP3    H253843   1.612   5.724   1.009 -0.2879  0.9387  0.5208
10810TIP3   OH253844   4.928   6.087   2.789  0.5283 -0.2232  0.0165
10810TIP3    H153845   4.996   6.131   2.839  1.0400  0.8859 -1.5948
10810TIP3    H253846   4.940   6.117   2.699 -1.1346 -1.1864 -0.5796
10811TIP3   OH253847   5.265   0.531   1.809  0.1016  0.2547 -0.4693
10811TIP3    H153848   5.320   0.541   1.731  1.0770 -0.6992  0.0591
10811TIP3    H253849   5.318   0.568   1.880  0.7405 -1.9855  0.2954
10812TIP3   OH253850   2.864   6.348   0.552  0.4671 -0.6273  0.0511
10812TIP3    H153851   2.850   6.442   0.560 -0.7484 -0.7482 -0.3247
10812TIP3    H253852   2.793   6.319   0.494  1.7807 -1.5372 -1.1589
10813TIP3   OH253853   6.069   4.302  14.675  0.3060 -0.3299 -0.5248
10813TIP3    H153854   6.027   4.344  14.750 -0.3889  0.6243 -1.4231
10813TIP3    H253855   6.132   4.366  14.642  1.2096 -1.0648 -0.2741
10814TIP3   OH253856   1.928   1.304   5.416  0.6004  0.1718  0.4472
10814TIP3    H153857   1.838   1.338   5.416  0.0510 -1.2320  0.1729
10814TIP3    H253858   1.982   1.383   5.423 -0.6566  0.9975  1.6273
10815TIP3   OH253859   0.582   2.040  11.238  0.4477  0.2765 -0.3479
10815TIP3    H153860   0.600   1.946  11.231  0.9571  0.0508  2.5127
10815TIP3    H253861   0.536   2.048  11.322 -0.6752  2.4698 -1.1200
10816TIP3   OH253862   2.245   6.787  12.743  0.6901  0.1479 -0.3380
10816TIP3    H153863   2.186   6.860  12.762 -0.9817 -1.2922  0.2475
10816TIP3    H253864   2.283   6.763  12.828  0.7429 -0.0746 -0.4220
10817TIP3   OH253865   4.404   6.236   4.772 -0.4212 -0.5348 -0.1106
10817TIP3    H153866   4.357   6.191   4.703  0.5744 -0.5363 -0.8108
10817TIP3    H253867   4.487   6.190   4.779 -0.3936 -0.3631  0.9040
10818TIP3   OH253868   0.448   5.586   1.754 -0.0486 -0.4396 -0.5202
10818TIP3    H153869   0.516   5.519   1.741  0.6344  0.2182 -0.3541
10818TIP3    H253870   0.494   5.661   1.789 -1.2349 -0.8456  2.1634
10819TIP3   OH253871   4.008   3.363  13.707  0.4949 -0.0114 -0.4363
10819TIP3    H153872   4.087   3.314  13.730  0.4918 -0.1066 -0.6281
10819TIP3    H253873   4.038   3.429  13.645  1.0920  2.2782  2.1240
10820TIP3   OH253874   2.550   0.368   4.723 -0.1349 -0.0114 -0.3246
10820TIP3    H153875   2.507   0.315   4.790  0.5749 -0.2612 -0.0535
10820TIP3    H253876   2.585   0.443   4.770 -1.7482  1.0962 -0.8206
10821TIP3   OH253877   0.299   1.520  15.110 -0.3863  0.1355  0.0469
10821TIP3    H153878   0.253   1.437  15.118  0.2186 -0.2560 -0.4169
10821TIP3    H253879   0.380   1.508  15.159 -1.1874  1.1650  1.7200
10822TIP3   OH253880   3.319   6.584  14.768  0.2314  0.3893  0.4182
10822TIP3    H153881   3.364   6.618  14.691 -0.2524 -1.1721 -0.5966
10822TIP3    H253882   3.286   6.498  14.741 -0.9624  0.3035  2.0018
10823TIP3   OH253883   6.221   4.283  15.926 -0.1753 -0.0858  0.5723
10823TIP3    H153884   6.310   4.306  15.955  0.3311 -1.9317  0.6220
10823TIP3    H253885   6.216   4.188  15.938 -1.8632 -0.1398 -0.2877
10824TIP3   OH253886   2.660   3.322  13.174  0.5828 -0.6764 -0.5041
10824TIP3    H153887   2.756   3.324  13.182  0.5008  0.6331  0.3444
10824TIP3    H253888   2.644   3.341  13.082  1.0938  1.8101 -0.1318
10825TIP3   OH253889   2.199   4.235  16.688 -0.4798  0.0205 -0.3472
10825TIP3    H153890   2.187   4.322  16.650  1.0278  0.0500 -0.8298
10825TIP3    H253891   2.264   4.247  16.757 -0.7793 -0.6045  0.0570
10826TIP3   OH253892   3.898   2.571  12.418 -0.2893  0.0330 -0.2466
10826TIP3    H153893   3.900   2.607  12.329  0.7063  0.9716  0.1292
10826TIP3    H253894   3.973   2.512  12.422 -0.3091  0.0236 -0.0138
10827TIP3   OH253895   5.118   0.415   0.288 -0.2524 -0.3177 -0.0741
10827TIP3    H153896   5.032   0.397   0.249  0.0855  0.6758 -1.3589
10827TIP3    H253897   5.174   0.345   0.254  0.0558  0.5795 -1.5095
10828TIP3   OH253898   1.243   5.738  15.442 -0.2172  0.9297 -0.1298
10828TIP3    H153899   1.183   5.673  15.479  1.5725 -0.8753 -0.2192
10828TIP3    H253900   1.254   5.710  15.351  1.2045  0.8491  0.0568
10829TIP3   OH253901   6.080   0.798  16.133 -0.0154 -0.1602 -0.1875
10829TIP3    H153902   6.003   0.847  16.163  1.0577  0.3841  1.8568
10829TIP3    H253903   6.044   0.732  16.074 -1.7908  1.4979 -1.0963
10830TIP3   OH253904   3.146   5.511  14.759  0.0461 -0.1513 -0.0318
10830TIP3    H153905   3.181   5.458  14.830  2.1419  0.4871 -0.5319
10830TIP3    H253906   3.059   5.475  14.743  0.2390 -1.4572  1.6386
10831TIP3   OH253907   6.510   3.325  10.396  0.2509 -0.9228  0.0683
10831TIP3    H153908   6.498   3.398  10.336  0.5245  0.4830  1.6586
10831TIP3    H253909   6.433   3.269  10.382 -1.6415  1.2804  0.9935
10832TIP3   OH253910   6.216   3.426   5.111 -0.3536 -0.8338 -0.0378
10832TIP3    H153911   6.139   3.448   5.059 -0.1801 -0.5828 -0.1876
10832TIP3    H253912   6.230   3.333   5.094  0.9803 -0.3251 -2.1675
10833TIP3   OH253913   6.319   6.590  13.962  0.2034 -0.4541 -0.3177
10833TIP3    H153914   6.399   6.607  14.013 -0.4472  1.0688  0.2678
10833TIP3    H253915   6.251   6.579  14.028 -0.3798 -0.0076 -0.8379
10834TIP3   OH253916   3.640   0.905  11.665 -0.0195 -0.1287 -0.5859
10834TIP3    H153917   3.694   0.829  11.643  0.2704  0.1956 -1.0143
10834TIP3    H253918   3.551   0.878  11.643 -0.0021 -0.5542 -0.1722
10835TIP3   OH253919   2.157   5.207  16.452  0.5051  0.0434  0.2860
10835TIP3    H153920   2.159   5.174  16.362  2.0675 -0.2825  0.4194
10835TIP3    H253921   2.244   5.189  16.486  0.2731  1.1349  1.5264
10836TIP3   OH253922   1.277   3.224   1.730 -0.1837  0.1285 -0.0053
10836TIP3    H153923   1.326   3.178   1.799 -2.2512  0.3263  1.6808
10836TIP3    H253924   1.262   3.157   1.663  2.6133  0.1481 -0.8032
10837TIP3   OH253925   5.231   1.506  14.071  0.2079  0.3899  0.2377
10837TIP3    H153926   5.213   1.597  14.094  0.9326  0.6529 -0.2086
10837TIP3    H253927   5.290   1.511  13.996 -0.3745 -0.4489 -0.3016
10838TIP3   OH253928   1.173   2.864   2.758  0.5465 -0.6416 -0.0379
10838TIP3    H153929   1.180   2.951   2.720 -1.2129 -0.7802 -0.7797
10838TIP3    H253930   1.263   2.832   2.762  1.2252  1.1717  0.2325
10839TIP3   OH253931   1.879   2.633  14.093 -0.3282  0.1503 -0.4253
10839TIP3    H153932   1.835   2.553  14.066 -0.8294  0.4410 -0.4766
10839TIP3    H253933   1.967   2.625  14.056 -0.9120  0.4074 -1.9561
10840TIP3   OH253934   0.355   2.976  11.421 -0.4319  0.4042 -0.2151
10840TIP3    H153935   0.294   2.943  11.355 -0.3710  1.5678 -0.8726
10840TIP3    H253936   0.342   3.071  11.420  0.9741  0.6130  0.0422
10841TIP3   OH253937   4.329   6.228  13.061  0.4507  0.2762  0.9689
10841TIP3    H153938   4.317   6.181  13.143  1.9422 -0.7379  0.6501
10841TIP3    H253939   4.395   6.177  13.013 -0.4803  0.7323 -0.9272
10842TIP3   OH253940   3.775   1.645  13.737 -0.1805  0.0747  0.3927
10842TIP3    H153941   3.758   1.578  13.671 -1.5798  0.4646  0.3204
10842TIP3    H253942   3.743   1.726  13.698  2.0206  0.9467  0.2417
10843TIP3   OH253943   3.842   5.984   2.283  0.3405  0.4168  0.6631
10843TIP3    H153944   3.906   5.993   2.354  1.2858 -1.8336  0.2038
10843TIP3    H253945   3.785   5.913   2.311 -0.2295  0.5403 -0.1446
10844TIP3   OH253946   6.411   1.786   0.959  0.0099  0.4284  0.4427
10844TIP3    H153947   6.502   1.799   0.932 -0.7083  0.6394 -2.1871
10844TIP3    H253948   6.372   1.734   0.888 -2.5088  2.4424  0.2052
10845TIP3   OH253949   5.438   1.738   3.524  0.6132  0.1576 -0.2457
10845TIP3    H153950   5.446   1.706   3.614 -0.9528 -0.0607 -0.1461
10845TIP3    H253951   5.482   1.823   3.525  0.6557  0.1418  0.7254
10846TIP3   OH253952   5.560   5.608   1.872 -0.2098 -0.0831  0.0780
10846TIP3    H153953   5.649   5.631   1.845 -0.4969  0.2841 -0.6011
10846TIP3    H253954   5.571   5.538   1.936  0.5569 -0.1957 -0.1673
10847TIP3   OH253955   3.743   4.890   4.305  0.1051  0.0836  0.2041
10847TIP3    H153956   3.784   4.867   4.221  0.7535  0.1208  0.5020
10847TIP3    H253957   3.701   4.809   4.334 -1.3996  0.4360 -0.8453
10848TIP3   OH253958   4.496   1.319   1.963 -0.1540 -0.0242 -0.1272
10848TIP3    H153959   4.572   1.377   1.969 -0.3993  0.4378 -1.3002
10848TIP3    H253960   4.441   1.358   1.896 -0.2076 -1.7612 -1.1422
10849TIP3   OH253961   6.374   1.346  13.779 -0.3231 -0.0811 -0.0550
10849TIP3    H153962   6.408   1.324  13.866  0.0760  0.4776 -0.0680
10849TIP3    H253963   6.440   1.403  13.740 -0.2503 -0.7424 -0.9359
10850TIP3   OH253964   2.565   3.549  15.386  0.1306  0.6701 -0.6232
10850TIP3    H153965   2.655   3.577  15.399  0.0481  0.0796  1.5546
10850TIP3    H253966   2.517   3.588  15.459 -1.1658  0.0079 -1.0900
10851TIP3   OH253967   5.501   4.082   2.439  0.6388  0.2954 -0.0364
10851TIP3    H153968   5.442   4.006   2.439 -0.5941  1.2048 -1.4113
10851TIP3    H253969   5.456   4.146   2.494  0.8754  0.6161 -0.2166
10852TIP3   OH253970   1.222   5.676   5.114 -0.7199  0.8681 -0.4675
10852TIP3    H153971   1.134   5.691   5.079 -1.3113  2.4967  1.5205
10852TIP3    H253972   1.212   5.600   5.172 -0.1810 -0.5756 -2.1806
10853TIP3   OH253973   0.335   1.842   0.685  0.2147  0.1944  0.2332
10853TIP3    H153974   0.427   1.822   0.703  0.7738  1.6575 -0.7962
10853TIP3    H253975   0.336   1.934   0.660 -1.3121 -0.1879 -1.3666
10854TIP3   OH253976   0.137   2.498   6.021 -0.1498  0.3217 -0.2103
10854TIP3    H153977   0.212   2.512   6.078 -0.2159  1.2630 -0.3449
10854TIP3    H253978   0.156   2.415   5.977 -0.9402 -1.4179  2.4557
10855TIP3   OH253979   0.599   4.781   3.655  0.1825 -0.0116  0.2553
10855TIP3    H153980   0.580   4.828   3.736  0.1804 -2.6359  1.8935
10855TIP3    H253981   0.683   4.739   3.671 -0.8223 -2.3575 -0.1499
10856TIP3   OH253982   1.385   3.087   1.967  0.7176  0.0014  0.3037
10856TIP3    H153983   1.464   3.060   2.014  0.1226 -2.1244  0.1695
10856TIP3    H253984   1.340   3.145   2.028  0.8126 -1.3422  1.7279
10857TIP3   OH253985   5.761   0.952   4.944 -0.2079 -0.1013 -0.1708
10857TIP3    H153986   5.824   0.942   5.016  0.3762 -0.5002 -0.7284
10857TIP3    H253987   5.810   0.926   4.866 -0.7258  0.6861 -0.7638
10858TIP3   OH253988   0.176   0.295  16.431  0.2381 -0.1289  0.2201
10858TIP3    H153989   0.239   0.233  16.394 -0.0138 -0.4878  0.3768
10858TIP3    H253990   0.135   0.246  16.503  0.6404  0.5154  0.9052
10859TIP3   OH253991   1.509   1.074   0.089  0.0620 -0.1922 -0.4862
10859TIP3    H153992   1.457   1.083   0.169  2.1273  0.6029  0.8448
10859TIP3    H253993   1.517   1.164   0.056  1.6894 -0.1035  0.0917
10860TIP3   OH253994   1.857   3.814  13.587 -0.2452  0.2494 -0.1982
10860TIP3    H153995   1.804   3.746  13.628 -0.0416 -0.0179 -0.3770
10860TIP3    H253996   1.829   3.815  13.496  0.8994 -0.7340 -0.5872
10861TIP3   OH253997   1.369   5.518   3.802 -0.6946 -0.5085  0.2471
10861TIP3    H153998   1.389   5.504   3.709  0.3538 -0.3904  0.4419
10861TIP3    H253999   1.434   5.466   3.849 -1.2292 -0.5783  0.9205
10862TIP3   OH254000   6.378   1.692  11.557 -0.2985 -0.0593 -0.5717
10862TIP3    H154001   6.371   1.760  11.624  1.7744 -0.0134 -0.3533
10862TIP3    H254002   6.417   1.736  11.482 -2.3602 -0.1725 -1.8102
10863TIP3   OH254003   3.864   6.038   5.023  0.1631 -0.3135 -0.4889
10863TIP3    H154004   3.845   6.060   4.932 -0.2749 -0.6901 -0.4908
10863TIP3    H254005   3.858   5.943   5.027  0.5724 -0.3271 -0.1540
10864TIP3   OH254006   5.297   0.634  15.627  0.0338  0.0901  0.1116
10864TIP3    H154007   5.202   0.635  15.616 -0.1230 -0.7146  1.2519
10864TIP3    H254008   5.325   0.555  15.582  0.0120 -0.3480  0.8629
10865TIP3   OH254009   0.346   6.327  14.200  0.2015  0.2818  0.6637
10865TIP3    H154010   0.405   6.303  14.128  0.9075 -0.6763  1.5342
10865TIP3    H254011   0.377   6.412  14.229  0.9643 -0.0798  0.9149
10866TIP3   OH254012   4.429   0.480   3.237  0.0630  0.3494 -0.1479
10866TIP3    H154013   4.377   0.551   3.198  1.0930 -0.0338 -2.3920
10866TIP3    H254014   4.374   0.402   3.228 -0.6367  0.6354  1.3536
10867TIP3   OH254015   5.916   6.414  11.165  0.4886  0.4604 -0.6070
10867TIP3    H154016   5.987   6.473  11.192  0.8672 -0.2259 -0.0707
10867TIP3    H254017   5.843   6.439  11.222  0.4352  0.8601 -0.8447
10868TIP3   OH254018   2.867   1.761   0.289 -0.0142  0.5198 -0.0126
10868TIP3    H154019   2.819   1.681   0.313 -0.7326  0.6016 -1.0736
10868TIP3    H254020   2.830   1.829   0.346  0.0107  0.2647  0.3135
10869TIP3   OH254021   2.102   3.519  13.091  0.3309 -0.0565  0.1925
10869TIP3    H154022   2.118   3.611  13.073  0.0522 -0.4548 -2.5316
10869TIP3    H254023   2.188   3.483  13.112  0.7017  0.5518 -0.2550
10870TIP3   OH254024   5.115   0.842   4.836  0.1602  0.5764  0.0552
10870TIP3    H154025   5.183   0.909   4.839  0.6622  0.0500  0.8209
10870TIP3    H254026   5.128   0.798   4.752  0.6386  0.6016  0.1173
10871TIP3   OH254027   2.181   5.910  13.480 -0.5227  0.4892  0.8264
10871TIP3    H154028   2.160   5.901  13.572 -0.9935 -1.2932  0.5834
10871TIP3    H254029   2.273   5.884  13.474 -0.8199 -0.5746  0.6533
10872TIP3   OH254030   2.091   2.723  12.414 -0.4654 -0.4693 -0.6155
10872TIP3    H154031   2.031   2.700  12.484  0.7933 -1.2160  0.2555
10872TIP3    H254032   2.037   2.769  12.350 -1.2149  2.5085  1.9313
10873TIP3   OH254033   1.534   3.850   0.078 -0.1517 -0.1626 -0.0108
10873TIP3    H154034   1.473   3.817   0.144 -2.8755  1.6537 -1.4345
10873TIP3    H254035   1.551   3.940   0.104 -2.4505  1.0789 -2.3987
10874TIP3   OH254036   1.893   2.364   5.209  0.3080 -0.0802  0.0100
10874TIP3    H154037   1.820   2.396   5.262 -0.3187 -0.2037 -0.7596
10874TIP3    H254038   1.917   2.438   5.153  2.1279  0.6336  1.6364
10875TIP3   OH254039   4.358   4.373  12.527  0.6977  0.3104 -0.1721
10875TIP3    H154040   4.374   4.280  12.541  1.9752  0.4482 -0.5798
10875TIP3    H254041   4.267   4.386  12.553  0.7529 -0.8810  0.7087
10876TIP3   OH254042   2.782   5.813  11.870 -0.8632  0.6304 -0.4427
10876TIP3    H154043   2.822   5.774  11.947 -0.9405  1.8307  0.2410
10876TIP3    H254044   2.704   5.858  11.903 -1.3649  0.4692 -1.3547
10877TIP3   OH254045   1.384   6.337  10.878 -0.2533 -0.0999 -0.7199
10877TIP3    H154046   1.356   6.325  10.787 -0.8956 -1.0480 -0.4156
10877TIP3    H254047   1.479   6.332  10.875 -0.2752 -5.3347 -0.7614
10878TIP3   OH254048   1.282   1.994  13.964 -0.3540  0.4508 -0.2673
10878TIP3    H154049   1.282   2.033  14.051 -2.0476  1.8974 -0.8395
10878TIP3    H254050   1.190   1.980  13.944  0.0231 -0.2318 -1.6735
10879TIP3   OH254051   2.910   4.477   5.841 -0.0186  0.2685  0.1215
10879TIP3    H154052   2.909   4.394   5.794 -0.0950  0.6871 -0.6323
10879TIP3    H254053   2.818   4.502   5.847  0.0688  0.7567 -0.4922
10880TIP3   OH254054   6.637   4.621   2.624 -0.0826 -0.3390  0.4767
10880TIP3    H154055   6.727   4.611   2.658 -0.3936  1.8667  2.1163
10880TIP3    H254056   6.593   4.677   2.688 -2.4269 -0.7034 -0.7211
10881TIP3   OH254057   5.479   1.832  14.016 -0.0022 -0.2976  0.1748
10881TIP3    H154058   5.434   1.809  14.097 -2.5282 -0.8701 -1.2914
10881TIP3    H254059   5.537   1.758  13.998 -0.8174 -1.0317  0.5215
10882TIP3   OH254060   5.953   3.537  12.310 -0.2134 -0.0039  0.8195
10882TIP3    H154061   5.956   3.534  12.406  1.5112 -0.6187  0.7698
10882TIP3    H254062   6.044   3.526  12.282 -0.7268 -0.1714 -0.9101
10883TIP3   OH254063   1.765   3.383   1.293  0.4813 -0.2052 -0.0670
10883TIP3    H154064   1.746   3.328   1.216  0.5741 -0.2243 -0.0764
10883TIP3    H254065   1.823   3.451   1.259  0.9594 -0.5243  0.1003
10884TIP3   OH254066   4.927   3.094   0.038  0.2294  0.3889  0.3259
10884TIP3    H154067   4.987   3.082  -0.036 -1.4346 -1.3313 -0.8260
10884TIP3    H254068   4.867   3.163   0.009  0.2183  0.4568  0.5102
10885TIP3   OH254069   2.807   5.474  12.752  0.0600  0.1085  0.7476
10885TIP3    H154070   2.726   5.523  12.768  0.1247  0.3821  0.2565
10885TIP3    H254071   2.873   5.517  12.807 -0.1775 -0.2640  1.3298
10886TIP3   OH254072   6.049   2.258  12.847 -1.2237  0.4088  0.0464
10886TIP3    H154073   6.060   2.338  12.897 -1.0914  1.4674 -1.6149
10886TIP3    H254074   6.115   2.198  12.883 -0.1858  1.6088  0.2000
10887TIP3   OH254075   3.680   4.728  12.592 -0.5780  0.0798  0.3954
10887TIP3    H154076   3.656   4.662  12.657 -1.4692  0.6949  0.7037
10887TIP3    H254077   3.714   4.677  12.518 -2.4159 -0.8347  0.1222
10888TIP3   OH254078   1.965   5.566  13.809 -1.0502 -0.6196 -0.8773
10888TIP3    H154079   2.031   5.500  13.828 -2.2444 -1.6120  0.0044
10888TIP3    H254080   1.938   5.547  13.719 -0.2981 -0.3443 -1.1633
10889TIP3   OH254081   5.215   3.315  11.354 -0.3703  0.3448  0.1821
10889TIP3    H154082   5.234   3.313  11.260 -0.6069 -1.5529  0.1250
10889TIP3    H254083   5.269   3.386  11.388 -0.7510  1.4878 -1.4657
10890TIP3   OH254084   6.209   2.534   1.524 -0.4434  0.1505 -0.4456
10890TIP3    H154085   6.222   2.497   1.437 -0.5078  1.1577 -0.8896
10890TIP3    H254086   6.212   2.629   1.511  2.2425  0.3555  1.0630
10891TIP3   OH254087   4.794   3.730   6.035 -0.3817  0.1345  0.1399
10891TIP3    H154088   4.761   3.775   6.113  1.4333 -1.7034  2.0977
10891TIP3    H254089   4.721   3.676   6.006 -1.9010  2.6462 -1.0224
10892TIP3   OH254090   6.085   5.578  15.104  0.6442 -0.1637 -0.0373
10892TIP3    H154091   6.098   5.658  15.156 -1.1491  1.8159 -2.4221
10892TIP3    H254092   5.995   5.583  15.072  0.6420 -2.9038 -0.7632
10893TIP3   OH254093   6.082   5.160   3.593 -0.2204  0.6180 -0.0442
10893TIP3    H154094   6.024   5.089   3.567 -0.3666 -0.0140  1.8828
10893TIP3    H254095   6.032   5.240   3.574 -2.0672  0.0791  2.1190
10894TIP3   OH254096   6.257   5.503  13.278  0.4795  0.2136 -0.0002
10894TIP3    H154097   6.278   5.596  13.267 -2.3495  0.7434 -2.1269
10894TIP3    H254098   6.300   5.460  13.204  0.8756 -0.0275  0.3629
10895TIP3   OH254099   4.915   0.349  16.620 -0.0403 -0.9987 -0.0752
10895TIP3    H154100   4.933   0.398  16.540  1.2133 -1.0128  0.1824
10895TIP3    H254101   4.874   0.268  16.590 -0.6775 -0.4823 -0.6117
10896TIP3   OH254102   0.218   0.528   3.043  0.2645 -0.5468 -0.4522
10896TIP3    H154103   0.148   0.576   3.087 -0.5518 -3.2605  1.4502
10896TIP3    H254104   0.175   0.486   2.968  0.4301 -0.2931 -0.6939
10897TIP3   OH254105   1.215   1.530  14.385  0.1403  0.3120  0.5225
10897TIP3    H154106   1.290   1.487  14.425  1.1118  1.7456  0.3170
10897TIP3    H254107   1.142   1.514  14.446  0.7609 -0.5233  1.0580
10898TIP3   OH254108   1.138   3.600   5.572  0.3513  0.2255 -0.0575
10898TIP3    H154109   1.069   3.645   5.622  0.0856 -1.5129  1.2459
10898TIP3    H254110   1.160   3.524   5.625  1.9374 -0.3089 -1.3927
10899TIP3   OH254111   2.464   3.100  16.835  0.3966  0.3920 -0.2532
10899TIP3    H154112   2.534   3.129  16.893 -0.8591 -0.2470  1.7167
10899TIP3    H254113   2.507   3.078  16.753  2.5920 -0.5881  1.0828
10900TIP3   OH254114   5.454   4.216  11.402  0.3833 -0.4224  0.6770
10900TIP3    H154115   5.550   4.212  11.394  0.5659  2.2619  0.7438
10900TIP3    H254116   5.422   4.187  11.317  1.4068  1.5702 -0.4630
10901TIP3   OH254117   5.140   1.816  14.599 -0.2488  0.2693  0.2158
10901TIP3    H154118   5.097   1.794  14.517 -1.2571 -1.0886  1.0722
10901TIP3    H254119   5.218   1.761  14.601  1.2602  2.2360 -1.0186
10902TIP3   OH254120   2.865   6.566   9.954  0.7136 -0.1796  0.0309
10902TIP3    H154121   2.800   6.621   9.995  1.1492 -0.2375  0.8273
10902TIP3    H254122   2.944   6.577  10.008  0.8700 -1.3958  0.0812
10903TIP3   OH254123   0.619   6.793  11.640 -0.3977  0.2115  0.0611
10903TIP3    H154124   0.640   6.739  11.716  0.3526  0.6981  0.2134
10903TIP3    H254125   0.524   6.800  11.640 -0.6432 -2.0792 -0.6208
10904TIP3   OH254126   4.477   1.168  16.824 -0.3846 -0.1016 -0.5256
10904TIP3    H154127   4.552   1.194  16.877  0.9860 -2.2109 -1.2949
10904TIP3    H254128   4.447   1.249  16.783  2.4456  0.6417 -1.3541
10905TIP3   OH254129   4.704   6.593  12.407 -0.1605 -0.5003 -0.3157
10905TIP3    H154130   4.752   6.619  12.328 -0.0362 -0.8100 -0.3450
10905TIP3    H254131   4.639   6.661  12.420  0.4227  0.0365 -0.1620
10906TIP3   OH254132   3.790   0.498   2.100  0.5056  0.4938  0.2998
10906TIP3    H154133   3.831   0.462   2.179  3.2679  1.0206 -0.7736
10906TIP3    H254134   3.747   0.423   2.060 -1.9716  0.4217  2.7774
10907TIP3   OH254135   2.915   3.117  15.459  0.1099 -0.1026  0.4105
10907TIP3    H154136   2.896   3.105  15.366  0.7255  0.3074  0.2304
10907TIP3    H254137   2.887   3.035  15.499 -1.2150  0.1358  0.0289
10908TIP3   OH254138   5.411   4.448  14.773  0.1889 -0.3609  0.0835
10908TIP3    H154139   5.442   4.538  14.776  0.3179 -0.4146  0.3469
10908TIP3    H254140   5.343   4.448  14.706 -0.5278  0.1632  0.7890
10909TIP3   OH254141   2.413   2.941   1.138 -0.3795 -0.2764  0.2715
10909TIP3    H154142   2.355   3.001   1.090  0.6124  1.3535  1.0066
10909TIP3    H254143   2.367   2.922   1.219 -0.2070  0.4579  0.5487
10910TIP3   OH254144   6.187   6.722  15.132 -0.3506  0.1857  1.0604
10910TIP3    H154145   6.240   6.653  15.173  0.1209  0.7303  1.3896
10910TIP3    H254146   6.099   6.685  15.126  0.5131 -1.7526 -1.8593
10911TIP3   OH254147   5.401   4.114  12.773 -0.6457  0.0109 -0.3000
10911TIP3    H154148   5.486   4.149  12.798 -0.3683  0.4767 -1.7478
10911TIP3    H254149   5.344   4.131  12.848 -0.2143  2.5335 -0.4557
10912TIP3   OH254150   6.669   4.583  12.543  0.5372  0.2497  0.0366
10912TIP3    H154151   6.662   4.598  12.637  0.1308 -0.9897  0.2365
10912TIP3    H254152   6.740   4.639  12.514  1.2448  0.0057  1.2429
10913TIP3   OH254153   2.685   4.720  13.200  0.1637  0.0622  0.0701
10913TIP3    H154154   2.676   4.776  13.123 -0.4280  0.6562  0.5515
10913TIP3    H254155   2.649   4.636  13.173 -0.2981  0.3454 -0.2218
10914TIP3   OH254156   1.304   3.017   1.552 -0.1396 -0.1042 -0.2281
10914TIP3    H154157   1.388   3.030   1.507 -0.0365  0.9807  0.2525
10914TIP3    H254158   1.323   2.950   1.618  0.2491 -0.1324 -0.3615
10915TIP3   OH254159   6.033   4.970  16.983 -0.1594 -0.4172  0.2270
10915TIP3    H154160   6.039   4.877  17.006  2.6626 -0.0612  1.2177
10915TIP3    H254161   6.053   4.972  16.890  1.9379 -0.6711  0.6259
10916TIP3   OH254162   5.910   6.777   4.055  0.0468  0.3006  0.3164
10916TIP3    H154163   5.944   6.694   4.089 -0.0755  0.2892  0.4111
10916TIP3    H254164   5.902   6.763   3.961  1.4144  0.6887  0.1195
10917TIP3   OH254165   2.034   1.535  10.961  0.3338  0.2407  0.5403
10917TIP3    H154166   2.001   1.451  10.992  1.3465 -0.8458 -1.1217
10917TIP3    H254167   2.037   1.590  11.039 -2.0489 -0.6543  1.3699
10918TIP3   OH254168   1.477   4.481  13.625 -0.2006  0.2802 -0.1329
10918TIP3    H154169   1.508   4.406  13.574 -0.7127  0.5352 -0.8408
10918TIP3    H254170   1.553   4.538  13.632 -0.4421  0.8865 -1.8155
10919TIP3   OH254171   0.333   2.883  14.987  0.1912  0.0184  1.0443
10919TIP3    H154172   0.379   2.826  14.925  0.3956  0.6563  0.6022
10919TIP3    H254173   0.320   2.828  15.064  1.2301 -0.3493  0.9768
10920TIP3   OH254174   5.719   5.628   0.541  0.0854  0.4398 -0.2249
10920TIP3    H154175   5.753   5.553   0.590 -2.0449 -0.0453  0.6493
10920TIP3    H254176   5.637   5.596   0.503 -0.3667  2.0378 -0.6723
10921TIP3   OH254177   0.154   2.031  15.414 -0.0025 -0.1446 -0.1758
10921TIP3    H154178   0.090   2.066  15.476 -0.1819  1.4214 -1.1923
10921TIP3    H254179   0.102   1.986  15.348  0.0677 -0.2521 -0.1591
10922TIP3   OH254180   1.122   6.417  12.337  0.4333 -0.0143 -0.2231
10922TIP3    H154181   1.056   6.404  12.268 -0.2103 -0.1690  0.4172
10922TIP3    H254182   1.139   6.329  12.370 -1.3923  0.3074  1.7709
10923TIP3   OH254183   0.295   1.650  16.750  0.2485  0.0416  0.3043
10923TIP3    H154184   0.290   1.590  16.824  0.4820 -0.0374  0.2562
10923TIP3    H254185   0.212   1.699  16.753 -0.3659 -0.9237 -0.2065
10924TIP3   OH254186   5.698   2.173   3.951 -0.7484  0.2823 -0.0256
10924TIP3    H154187   5.781   2.125   3.946 -0.9157 -0.1869  1.3442
10924TIP3    H254188   5.634   2.115   3.908 -0.8776 -0.5950  1.2921
10925TIP3   OH254189   0.365   3.003   5.365 -0.0118  0.4469  0.3058
10925TIP3    H154190   0.277   3.037   5.347 -0.9990 -1.5990  0.9262
10925TIP3    H254191   0.356   2.958   5.449  1.5821 -0.0293  0.2541
10926TIP3   OH254192   1.934   2.531   3.353  0.4197  0.6038 -0.2796
10926TIP3    H154193   1.898   2.595   3.292 -2.3772 -0.7143 -0.1738
10926TIP3    H254194   1.907   2.563   3.439  0.0250 -0.0808 -0.1417
10927TIP3   OH254195   1.556   3.973   0.440 -0.0307 -0.0209 -0.8338
10927TIP3    H154196   1.587   4.049   0.490 -1.7866  1.1363 -1.3605
10927TIP3    H254197   1.617   3.903   0.461  0.6630  1.0713  1.0516
10928TIP3   OH254198   1.789   2.377  17.032  0.1281  0.1981  0.2416
10928TIP3    H154199   1.811   2.285  17.039 -0.3242  0.0747  0.0710
10928TIP3    H254200   1.839   2.419  17.103  1.8822  0.1224 -0.8850
10929TIP3   OH254201   2.173   5.835  16.233 -0.3853  0.3551  0.4319
10929TIP3    H154202   2.203   5.832  16.142  1.4644 -1.3122  1.0214
10929TIP3    H254203   2.098   5.775  16.236  0.1389 -0.3259  0.1760
10930TIP3   OH254204   4.432   3.271  14.458 -0.0632  0.0840  0.0322
10930TIP3    H154205   4.353   3.323  14.444 -1.5820 -1.8824  0.6789
10930TIP3    H254206   4.481   3.318  14.525 -0.1246  1.8889 -1.1396
10931TIP3   OH254207   2.183   1.510  13.604 -0.1854  0.2358 -0.0947
10931TIP3    H154208   2.167   1.576  13.537 -1.0196  0.0047 -0.1342
10931TIP3    H254209   2.191   1.560  13.685  0.4697  0.4846 -0.3085
10932TIP3   OH254210   6.599   6.514   1.667 -0.7486 -0.5513 -0.1235
10932TIP3    H154211   6.522   6.537   1.719 -0.0320 -1.6178  1.4917
10932TIP3    H254212   6.664   6.485   1.731  0.2823 -1.6660 -1.5991
10933TIP3   OH254213   4.993   2.524   1.477  0.2177 -0.0611  0.6838
10933TIP3    H154214   4.982   2.595   1.541  2.7788  0.5706  0.5555
10933TIP3    H254215   5.072   2.549   1.429  0.3920 -2.3463 -0.3006
10934TIP3   OH254216   3.067   4.280   3.155  0.3708 -0.3722 -0.0774
10934TIP3    H154217   2.990   4.280   3.098  2.1295 -0.5428 -2.6506
10934TIP3    H254218   3.102   4.191   3.148  1.0579 -0.1672  0.6355
10935TIP3   OH254219   5.457   3.917  15.131 -0.2188 -0.0437  0.2033
10935TIP3    H154220   5.386   3.907  15.068 -0.8454  1.3855  0.6302
10935TIP3    H254221   5.533   3.941  15.078  0.3803 -2.9410 -0.4106
10936TIP3   OH254222   6.293   4.687   5.741  0.9398 -0.1972  0.5400
10936TIP3    H154223   6.387   4.686   5.725  0.8681 -0.9374  0.0972
10936TIP3    H254224   6.275   4.603   5.783  0.3929 -0.3268  0.0699
10937TIP3   OH254225   2.332   4.070   1.141 -0.8029  0.4098 -0.2868
10937TIP3    H154226   2.294   4.122   1.071  0.1587 -0.0940 -1.2078
10937TIP3    H254227   2.297   3.982   1.128 -0.3879  0.2464 -0.3195
10938TIP3   OH254228   3.144   0.962   5.152  0.4362  0.2537 -0.8094
10938TIP3    H154229   3.090   1.040   5.141  0.1758 -0.0615 -1.9150
10938TIP3    H254230   3.145   0.946   5.246 -0.8093  0.6843 -0.7086
10939TIP3   OH254231   3.920   2.334  14.600  0.3617  0.0552 -0.3993
10939TIP3    H154232   3.875   2.297  14.524 -1.5199 -1.1987  1.2297
10939TIP3    H254233   3.947   2.422  14.572 -0.9917 -0.0666 -2.2397
10940TIP3   OH254234   2.814   2.005  10.621 -0.2116 -0.2902  0.5276
10940TIP3    H154235   2.724   1.982  10.646  0.0272 -0.6190  1.0691
10940TIP3    H254236   2.870   1.960  10.683  0.3385 -0.0598  0.2117
10941TIP3   OH254237   3.650   6.437  11.226 -0.0653 -1.2953 -0.0932
10941TIP3    H154238   3.679   6.361  11.176  1.4698 -1.5557  1.1066
10941TIP3    H254239   3.731   6.480  11.253 -0.8635 -0.4900  1.1162
10942TIP3   OH254240   2.954   3.440  12.389 -0.2194 -0.0589 -0.8339
10942TIP3    H154241   2.872   3.489  12.384  1.0355  2.1432 -0.8378
10942TIP3    H254242   3.017   3.500  12.428  1.4669 -1.6181 -0.9821
10943TIP3   OH254243   0.403   1.414  11.082 -0.0803  0.0353 -0.7710
10943TIP3    H154244   0.353   1.486  11.118 -0.7233 -0.0239 -1.5204
10943TIP3    H254245   0.389   1.342  11.143 -0.1281  0.2956 -0.4714
10944TIP3   OH254246   5.405   4.128  11.051  0.5268  0.0305 -1.0377
10944TIP3    H154247   5.484   4.167  11.015  0.1109  1.2881 -0.6335
10944TIP3    H254248   5.334   4.185  11.022  0.0090  0.1694  0.4030
10945TIP3   OH254249   6.233   2.241   0.716  0.3652 -0.2166 -0.1527
10945TIP3    H154250   6.289   2.319   0.712  0.0602  0.0494  0.5340
10945TIP3    H254251   6.151   2.268   0.674 -0.3935  0.4328  1.6222
10946TIP3   OH254252   6.166   3.681   4.463  0.1651  0.2370  1.1906
10946TIP3    H154253   6.121   3.699   4.380  0.9410 -0.6582  0.5556
10946TIP3    H254254   6.197   3.591   4.454 -2.7485 -1.2307  3.8360
10947TIP3   OH254255   4.024   6.803  11.342 -0.3599  0.1982 -0.8253
10947TIP3    H154256   4.082   6.728  11.350 -1.9598 -1.0128 -0.0951
10947TIP3    H254257   4.015   6.817  11.248  0.7698  0.1760 -0.9560
10948TIP3   OH254258   0.575   4.479   3.379  0.0583  0.2207  0.2897
10948TIP3    H154259   0.564   4.384   3.384 -0.3822  0.2478 -0.0422
10948TIP3    H254260   0.529   4.513   3.456  0.5992  0.1407  0.6511
10949TIP3   OH254261   5.676   3.497   4.763 -0.3587 -0.0341 -0.8738
10949TIP3    H154262   5.655   3.570   4.822  0.3745 -0.6931  0.2488
10949TIP3    H254263   5.754   3.526   4.716  1.7673 -1.1181  1.6850
10950TIP3   OH254264   2.324   6.694  10.724  0.4413 -0.2623  0.0904
10950TIP3    H154265   2.359   6.782  10.717  0.9597 -0.3910  1.0190
10950TIP3    H254266   2.374   6.653  10.794 -1.5519 -0.4411  1.5125
10951TIP3   OH254267   3.581   2.873   5.382 -0.9083 -0.0526  0.0538
10951TIP3    H154268   3.595   2.938   5.452  0.7158 -0.0902 -0.1962
10951TIP3    H254269   3.649   2.893   5.318  2.5247 -4.4947  1.8235
10952TIP3   OH254270   6.513   4.985  13.287 -0.6408  0.6781  0.0018
10952TIP3    H154271   6.465   5.067  13.277 -0.7023  0.7976  1.1115
10952TIP3    H254272   6.501   4.961  13.379  1.0758  0.5032  0.2143
10953TIP3   OH254273   5.360   5.993   4.299  0.0521 -0.5857  0.6268
10953TIP3    H154274   5.304   5.923   4.268  0.2511 -0.9867  1.1677
10953TIP3    H254275   5.415   5.953   4.366  0.6029 -0.0678  0.4975
10954TIP3   OH254276   6.520   4.554  11.804 -0.0139  0.6632  0.4768
10954TIP3    H154277   6.534   4.461  11.824  1.4593  0.4536 -1.2753
10954TIP3    H254278   6.605   4.595  11.821 -0.4480  1.5613  0.5110
10955TIP3   OH254279   1.667   6.121   4.813 -0.4003  0.2338  0.4050
10955TIP3    H154280   1.639   6.041   4.857 -0.4549  0.7805  1.3919
10955TIP3    H254281   1.599   6.138   4.748 -0.1410 -0.7709 -0.1507
10956TIP3   OH254282   1.470   0.302   0.445  0.0749  0.4520  0.8793
10956TIP3    H154283   1.424   0.224   0.475 -0.3960  0.0542 -0.7773
10956TIP3    H254284   1.508   0.276   0.361  1.0457  1.6142  0.9320
10957TIP3   OH254285   1.395   1.941   2.714  0.3331 -0.1006 -0.3575
10957TIP3    H154286   1.378   1.977   2.801  0.7440 -1.8350  0.4915
10957TIP3    H254287   1.487   1.914   2.716  0.6566  0.8095 -1.7150
10958TIP3   OH254288   6.573   0.621  12.582  0.0684 -0.3586 -0.4077
10958TIP3    H154289   6.514   0.685  12.543 -0.8267 -1.1774 -0.4301
10958TIP3    H254290   6.516   0.551  12.614  1.0175 -1.1928 -0.4680
10959TIP3   OH254291   1.587   1.428   1.456 -0.8025  0.4987 -0.1626
10959TIP3    H154292   1.624   1.379   1.530 -1.2378  0.2820 -0.0864
10959TIP3    H254293   1.492   1.422   1.468 -0.8999 -0.2627 -1.2194
10960TIP3   OH254294   6.484   3.421  12.575 -0.2374 -0.0019 -0.7133
10960TIP3    H154295   6.433   3.483  12.523  0.6617  0.0524 -1.5751
10960TIP3    H254296   6.453   3.335  12.547 -0.3766  0.0397 -0.6862
10961TIP3   OH254297   5.005   4.610   4.477 -0.0124  0.1735  0.6477
10961TIP3    H154298   5.062   4.610   4.400  0.5070  1.1285  1.0171
10961TIP3    H254299   5.014   4.699   4.513 -0.6511 -0.1045  1.5075
10962TIP3   OH254300   4.644   4.230   1.397 -0.1633  0.7660  0.0189
10962TIP3    H154301   4.563   4.268   1.431 -0.6408 -0.1769 -0.0545
10962TIP3    H254302   4.619   4.188   1.315  0.2262 -0.2054  0.3784
10963TIP3   OH254303   6.751   3.161  10.448  0.2384 -0.0939 -0.1794
10963TIP3    H154304   6.794   3.152  10.363 -0.2974 -3.3090 -0.2212
10963TIP3    H254305   6.666   3.200  10.427  0.7057  0.6169 -0.8592
10964TIP3   OH254306   5.353   2.440   6.319  0.0866  0.2526  0.4174
10964TIP3    H154307   5.449   2.440   6.327  0.0983 -1.1384  0.4999
10964TIP3    H254308   5.336   2.401   6.234 -0.4017  1.1501  0.0978
10965TIP3   OH254309   1.673   6.131  12.735  0.0244 -0.8186 -0.3212
10965TIP3    H154310   1.582   6.148  12.709  0.1160 -0.4454 -0.3986
10965TIP3    H254311   1.722   6.206  12.701  0.4506 -1.2908 -0.7637
10966TIP3   OH254312   3.498   0.240   0.818  0.1057 -0.0035 -0.5001
10966TIP3    H154313   3.528   0.250   0.728  0.4097 -0.5905 -0.4717
10966TIP3    H254314   3.471   0.148   0.824 -1.4099  0.4149 -0.4336
10967TIP3   OH254315   5.458   4.229   4.249  0.1953 -0.1325  0.1219
10967TIP3    H154316   5.540   4.254   4.207 -0.7285 -1.7235 -2.9845
10967TIP3    H254317   5.469   4.136   4.270  0.2879  0.4002  2.7971
10968TIP3   OH254318   5.209   5.915   5.425  0.2458 -0.1579 -0.2240
10968TIP3    H154319   5.144   5.986   5.424 -1.0235 -1.2134  1.5550
10968TIP3    H254320   5.168   5.843   5.377  0.8217 -0.2869 -0.5409
10969TIP3   OH254321   2.677   0.234   6.488  0.0357 -0.0268 -0.1304
10969TIP3    H154322   2.595   0.274   6.517  0.1970  0.9179 -0.9106
10969TIP3    H254323   2.745   0.283   6.533  0.2639  1.0828 -1.6244
10970TIP3   OH254324   6.124   5.204   5.410  0.0132  0.3675  0.0012
10970TIP3    H154325   6.156   5.225   5.322  1.0468 -1.1265 -0.0008
10970TIP3    H254326   6.198   5.162   5.453 -0.9575 -0.2696  1.0918
10971TIP3   OH254327   2.489   3.323  14.160  0.0228 -0.2702  0.1622
10971TIP3    H154328   2.440   3.323  14.078  1.9091  2.3010 -1.1244
10971TIP3    H254329   2.437   3.377  14.219 -0.2271 -0.1833 -0.1319
10972TIP3   OH254330   6.203   5.880  16.237  1.0300 -0.1944 -0.0294
10972TIP3    H154331   6.173   5.888  16.328 -0.5981  2.0252 -0.6917
10972TIP3    H254332   6.168   5.958  16.193  1.1223 -1.5966 -2.7640
10973TIP3   OH254333   1.262   1.649   3.473 -0.2102 -0.3742 -0.2618
10973TIP3    H154334   1.191   1.683   3.527 -0.8422 -2.5630  0.4127
10973TIP3    H254335   1.234   1.665   3.383 -0.8924  0.0713  0.0239
10974TIP3   OH254336   4.599   3.484  13.234  0.6488 -0.1717  0.0344
10974TIP3    H154337   4.548   3.504  13.155 -0.9698 -0.0288  1.0739
10974TIP3    H254338   4.649   3.564  13.251 -0.5676  0.5571  0.2943
10975TIP3   OH254339   4.426   6.701  15.257 -0.2132  0.0767  0.0012
10975TIP3    H154340   4.424   6.625  15.315 -0.2206  0.2760  0.2620
10975TIP3    H254341   4.412   6.776  15.314 -1.1215  0.2124 -0.3804
10976TIP3   OH254342   1.070   3.042  14.456 -0.4979  0.3645  0.2287
10976TIP3    H154343   1.002   3.110  14.459  1.3530  2.3900 -0.8572
10976TIP3    H254344   1.031   2.967  14.501 -3.5671  1.2922 -0.6376
10977TIP3   OH254345   2.105   3.857   1.897 -0.5262 -0.2345 -0.2741
10977TIP3    H154346   2.089   3.763   1.891  0.1268 -0.5640  1.9712
10977TIP3    H254347   2.041   3.887   1.961  0.1696  0.5832  0.0468
10978TIP3   OH254348   5.872   5.612   4.332  0.3882 -0.6411  0.1507
10978TIP3    H154349   5.844   5.572   4.414  0.4340 -0.9406  0.0187
10978TIP3    H254350   5.870   5.541   4.268 -0.5374 -0.2085 -0.3168
10979TIP3   OH254351   3.632   6.438  10.919 -0.4189 -0.3717  0.3153
10979TIP3    H154352   3.720   6.457  10.952 -0.5531  1.6954 -0.4171
10979TIP3    H254353   3.647   6.378  10.846  0.4254  0.2496 -0.0365
10980TIP3   OH254354   5.724   3.430   0.476  0.8815  0.0484 -0.5378
10980TIP3    H154355   5.804   3.378   0.483 -1.2487 -3.3193  2.2861
10980TIP3    H254356   5.677   3.392   0.401  1.6817  1.8164 -2.0021
10981TIP3   OH254357   0.930   1.499  16.810  1.0600 -0.4414  0.1000
10981TIP3    H154358   0.840   1.525  16.793  0.9443 -0.5497  0.5490
10981TIP3    H254359   0.924   1.408  16.840  1.2808 -0.3215  0.5119
10982TIP3   OH254360   4.379   2.643  11.304  0.0362 -0.4639  0.2352
10982TIP3    H154361   4.372   2.665  11.397  1.5837 -1.8835  0.7209
10982TIP3    H254362   4.292   2.665  11.269 -1.2396 -1.6279  2.3867
10983TIP3   OH254363   0.561   6.574  13.658 -0.0402 -0.3337 -0.0467
10983TIP3    H154364   0.548   6.592  13.565 -0.8745  0.1490  0.1565
10983TIP3    H254365   0.517   6.645  13.703 -1.2073 -1.5169  0.7494
10984TIP3   OH254366   5.318   6.109   4.054  0.3102  0.5945 -0.2580
10984TIP3    H154367   5.347   6.063   4.133 -0.4609 -3.1427 -1.9513
10984TIP3    H254368   5.245   6.163   4.084  0.2588 -0.4301  1.6704
10985TIP3   OH254369   1.168   0.284  12.043 -0.6583  0.2650  0.5629
10985TIP3    H154370   1.182   0.242  11.958 -0.1890  0.9171  0.3133
10985TIP3    H254371   1.191   0.216  12.107  2.2189  0.7679  0.1775
10986TIP3   OH254372   4.067   5.318   0.737 -0.8099 -0.0600 -0.0326
10986TIP3    H154373   4.096   5.331   0.827 -1.7031  0.7396  0.1594
10986TIP3    H254374   4.124   5.250   0.703  0.2215  0.3462  0.8145
10987TIP3   OH254375   1.099   3.670   1.290  0.1497 -0.0884 -0.2221
10987TIP3    H154376   1.186   3.658   1.328  1.6102  2.6485 -2.3257
10987TIP3    H254377   1.110   3.644   1.198 -0.2248  3.2451 -1.3457
10988TIP3   OH254378   1.433   2.439   4.607  0.7275 -0.3024  0.2693
10988TIP3    H154379   1.520   2.436   4.646  1.2084  0.4836 -0.6854
10988TIP3    H254380   1.448   2.424   4.514 -0.2768 -1.1383  0.2179
10989TIP3   OH254381   3.120   6.828   1.093  0.0987 -0.2641 -0.0062
10989TIP3    H154382   3.202   6.875   1.106  0.2484 -0.4114 -0.3720
10989TIP3    H254383   3.121   6.758   1.158  1.0085 -1.2283 -1.0071
10990TIP3   OH254384   2.166   1.739  14.204 -0.7062  0.2305  0.2487
10990TIP3    H154385   2.241   1.683  14.226 -0.9405 -0.4960 -0.7250
10990TIP3    H254386   2.194   1.827  14.229  0.6671  0.0511 -0.5620
10991TIP3   OH254387   4.866   2.568  15.395 -0.1221 -0.9486  0.1925
10991TIP3    H154388   4.861   2.521  15.478  1.9220 -1.8191 -0.1070
10991TIP3    H254389   4.904   2.653  15.416 -0.7908 -0.6735  0.3045
10992TIP3   OH254390   5.569   3.620  11.784 -0.1350 -0.3978 -0.3350
10992TIP3    H154391   5.633   3.550  11.800 -0.3039 -0.7463 -1.1408
10992TIP3    H254392   5.610   3.675  11.718 -0.0588  0.2082  0.2055
10993TIP3   OH254393   0.069   5.728  16.481 -0.1045  0.2441 -0.3853
10993TIP3    H154394   0.018   5.648  16.468  1.0269 -0.7337  0.8972
10993TIP3    H254395   0.016   5.782  16.540 -0.5873  0.1451 -0.7337
10994TIP3   OH254396   4.189   2.090  12.047 -0.3649  0.3026 -0.5746
10994TIP3    H154397   4.218   2.160  11.989  0.1300  1.1781  0.7024
10994TIP3    H254398   4.117   2.128  12.098  1.7729  0.9437  2.2092
10995TIP3   OH254399   3.147   4.187  14.814  0.9162 -0.2968  0.2054
10995TIP3    H154400   3.068   4.180  14.760 -0.1886 -0.9325  1.7966
10995TIP3    H254401   3.218   4.157  14.758  0.4519  2.4113 -2.0396
10996TIP3   OH254402   2.891   2.950  11.476 -0.0964  0.3784 -0.2717
10996TIP3    H154403   2.834   2.996  11.537  0.0581  0.0562  0.1202
10996TIP3    H254404   2.832   2.900  11.421 -0.4944  2.9760 -2.4233
10997TIP3   OH254405   4.577   4.304   5.907 -0.7771  0.7075 -0.2507
10997TIP3    H154406   4.592   4.352   5.988 -0.2720  0.4351 -0.1727
10997TIP3    H254407   4.665   4.285   5.875 -0.9765  0.7716 -0.8388
10998TIP3   OH254408   2.688   0.280  12.259  0.6231  0.5487  0.7352
10998TIP3    H154409   2.677   0.291  12.165  1.0629  1.3647  0.7731
10998TIP3    H254410   2.623   0.214  12.284 -1.3225  2.2180  0.3107
10999TIP3   OH254411   0.168   5.934   5.734  0.5239 -0.5772  0.4157
10999TIP3    H154412   0.106   5.936   5.806  1.0486  0.7172  0.8544
10999TIP3    H254413   0.166   5.843   5.703 -2.0073 -0.4427  0.0093
11000TIP3   OH254414   4.560   6.350  16.341  0.1969 -0.2526  0.3597
11000TIP3    H154415   4.607   6.432  16.327 -0.2162  0.1898  1.4558
11000TIP3    H254416   4.610   6.304  16.408 -0.7442  0.0928  1.3294
11001TIP3   OH254417   2.579   4.854  11.700  0.0160 -0.1912 -0.3606
11001TIP3    H154418   2.644   4.785  11.715 -1.0175 -0.7295  2.0994
11001TIP3    H254419   2.608   4.897  11.620  2.1913 -1.7686 -0.5078
11002TIP3   OH254420   4.374   6.499  13.128  0.0087 -0.6729  0.2697
11002TIP3    H154421   4.374   6.403  13.133 -1.0736 -0.7500 -0.7601
11002TIP3    H254422   4.413   6.527  13.211 -0.0631 -1.9902  0.7794
11003TIP3   OH254423   1.370   3.330   5.528 -0.2048 -0.5252  0.5797
11003TIP3    H154424   1.466   3.330   5.534 -0.2853  0.5374  4.1168
11003TIP3    H254425   1.352   3.357   5.438  2.8239  0.5005  0.1562
11004TIP3   OH254426   4.702   2.769   5.138  0.1487  0.7931  0.3217
11004TIP3    H154427   4.743   2.694   5.095  1.0809  1.1908  0.4830
11004TIP3    H254428   4.767   2.839   5.130 -0.3474  1.3352  0.9368
11005TIP3   OH254429   0.975   2.036   3.270 -0.0255  0.5147 -0.3030
11005TIP3    H154430   0.900   1.986   3.238  0.6041 -0.7755  0.1651
11005TIP3    H254431   0.938   2.102   3.328 -0.7536 -0.6957  0.6547
11006TIP3   OH254432   2.660   5.280   2.436  0.9261 -0.2509  0.1248
11006TIP3    H154433   2.599   5.258   2.507  0.3670 -1.0177 -0.5791
11006TIP3    H254434   2.692   5.195   2.405  0.6401  0.0375 -0.9898
11007TIP3   OH254435   2.430   5.992  10.999  0.2100 -0.0554  0.0769
11007TIP3    H154436   2.509   5.947  10.972  0.1972  0.0672 -0.1618
11007TIP3    H254437   2.419   5.968  11.091 -0.3894 -1.4162 -0.3232
11008TIP3   OH254438   5.514   2.237  13.788  0.0100 -0.4469 -0.9290
11008TIP3    H154439   5.485   2.325  13.764 -0.4204 -0.6169 -1.0542
11008TIP3    H254440   5.508   2.187  13.706  0.1036 -0.6322 -0.8240
11009TIP3   OH254441   5.780   0.093  12.878  0.0906 -0.0484  0.2756
11009TIP3    H154442   5.736   0.093  12.793  2.0017  0.8337 -0.7900
11009TIP3    H254443   5.741   0.166  12.926 -0.4573 -0.0602 -0.1427
11010TIP3   OH254444   0.964   5.855   3.674 -0.0944  0.2321  0.2413
11010TIP3    H154445   0.908   5.855   3.596  1.1705  0.8434 -0.7038
11010TIP3    H254446   0.995   5.945   3.681 -0.0709  0.1527  1.3845
11011TIP3   OH254447   5.619   4.375   0.214  0.0229  0.1829 -0.5023
11011TIP3    H154448   5.700   4.419   0.239 -0.3031 -0.2349  1.4550
11011TIP3    H254449   5.568   4.442   0.168  1.1700  0.6428 -1.1370
11012TIP3   OH254450   5.455   5.155  16.373 -0.0237 -0.0289 -0.0450
11012TIP3    H154451   5.527   5.176  16.314  0.7367 -2.0527  0.0564
11012TIP3    H254452   5.451   5.228  16.434  1.3838  0.5459 -0.5913
11013TIP3   OH254453   0.106   0.263   0.272  0.3202 -0.3086 -0.0689
11013TIP3    H154454   0.169   0.329   0.300  0.3618 -1.3428  2.5944
11013TIP3    H254455   0.035   0.270   0.336 -0.2758 -1.9556 -0.5067
11014TIP3   OH254456   5.209   1.460  12.458 -0.1814 -0.4103 -0.5268
11014TIP3    H154457   5.205   1.526  12.389  0.2354  0.6491  0.4515
11014TIP3    H254458   5.270   1.495  12.522 -1.0804 -1.0462  0.7238
11015TIP3   OH254459   5.190   5.984   0.564  0.0944 -0.2228 -0.0977
11015TIP3    H154460   5.171   5.907   0.617 -0.3008 -1.9516 -2.5965
11015TIP3    H254461   5.152   5.964   0.478  0.3379  2.6001 -0.9604
11016TIP3   OH254462   5.307   3.067  10.824  0.4964 -0.2098  0.0227
11016TIP3    H154463   5.225   3.019  10.839  0.1333 -0.5147 -2.4155
11016TIP3    H254464   5.336   3.036  10.738  1.3712  2.3946 -0.6937
11017TIP3   OH254465   1.220   6.172   4.362 -0.3929  0.0199  0.8018
11017TIP3    H154466   1.157   6.218   4.307  1.9448 -0.3670 -2.4833
11017TIP3    H254467   1.275   6.240   4.399 -0.3037  0.1393  0.4462
11018TIP3   OH254468   1.518   0.194   4.899  0.0008  0.0298 -0.1043
11018TIP3    H154469   1.537   0.205   4.806 -1.8906  3.1885 -0.2456
11018TIP3    H254470   1.432   0.154   4.902 -1.8482  3.6052  0.0272
11019TIP3   OH254471   4.438   2.491   2.269 -0.5077 -0.1706 -0.1678
11019TIP3    H154472   4.408   2.456   2.352  1.9317  1.7080  1.6845
11019TIP3    H254473   4.509   2.432   2.242 -0.8476 -0.3963 -0.5779
11020TIP3   OH254474   6.189   6.793   0.951  0.3871 -0.1291  0.0684
11020TIP3    H154475   6.264   6.771   1.007  0.8626  0.7746 -0.1952
11020TIP3    H254476   6.117   6.808   1.012  0.5242 -0.5763  0.3494
11021TIP3   OH254477   6.240   1.130   2.427  0.5232  0.3678  0.2210
11021TIP3    H154478   6.225   1.053   2.372 -1.9604  0.3387  0.8229
11021TIP3    H254479   6.161   1.183   2.415  2.3142  3.0375 -0.4506
11022TIP3   OH254480   1.108   4.910  14.899 -0.1688 -0.2903 -0.0144
11022TIP3    H154481   1.144   4.822  14.911  1.0064  0.0422 -0.9018
11022TIP3    H254482   1.013   4.897  14.894  0.0211 -1.5779 -0.7093
11023TIP3   OH254483   2.828   2.999   4.418  0.1409  0.4599 -0.0924
11023TIP3    H154484   2.821   3.046   4.335  0.5243  1.7935  0.6048
11023TIP3    H254485   2.810   2.908   4.395  0.0398  0.8283 -1.6004
11024TIP3   OH254486   0.089   2.632   3.096  0.1123 -0.1463  0.5157
11024TIP3    H154487   0.161   2.672   3.047  0.6246  0.0385  1.3963
11024TIP3    H254488   0.118   2.542   3.112  1.3653  0.6104  3.0919
11025TIP3   OH254489   0.886   3.616  10.658 -0.0264  0.4155 -0.3308
11025TIP3    H154490   0.832   3.623  10.579 -0.8845  2.1240  0.3469
11025TIP3    H254491   0.835   3.558  10.716 -0.0655  0.2594 -0.5207
11026TIP3   OH254492   4.642   6.328   4.496  0.0411  0.4142  0.1368
11026TIP3    H154493   4.720   6.339   4.551  0.2360  0.3787 -0.1344
11026TIP3    H254494   4.592   6.408   4.509  1.2280  1.4589 -1.4808
11027TIP3   OH254495   6.442   5.980  15.972  0.2898  0.3300 -0.5058
11027TIP3    H154496   6.509   6.049  15.975 -0.3479  0.9299  0.8147
11027TIP3    H254497   6.486   5.903  16.008  0.6464  0.3719 -0.8425
11028TIP3   OH254498   3.600   3.290  14.142 -0.1818 -0.4993  0.3786
11028TIP3    H154499   3.656   3.286  14.065  0.8807 -1.8881  1.1695
11028TIP3    H254500   3.654   3.330  14.209 -1.0765  0.6480  0.4404
11029TIP3   OH254501   4.105   6.179   3.848  0.2798 -0.8276 -0.3652
11029TIP3    H154502   4.123   6.178   3.754 -0.3309  0.3602 -0.5220
11029TIP3    H254503   4.098   6.087   3.873  2.3579 -1.2122 -1.0839
11030TIP3   OH254504   1.171   0.184  15.819 -0.7622 -0.1945 -0.4377
11030TIP3    H154505   1.195   0.111  15.762 -1.0433  1.5098 -2.8824
11030TIP3    H254506   1.092   0.154  15.864 -0.4161 -1.6832 -0.7679
11031TIP3   OH254507   6.082   1.921  11.603  0.2061  0.2757  0.4727
11031TIP3    H154508   6.147   1.894  11.539 -2.2473 -1.2849 -1.5588
11031TIP3    H254509   6.046   2.002  11.569 -1.0346 -0.5027 -0.1634
11032TIP3   OH254510   2.820   5.406  15.711 -0.7293 -0.2873  0.2963
11032TIP3    H154511   2.864   5.467  15.771 -1.4429 -1.1756  1.7878
11032TIP3    H254512   2.726   5.421  15.726 -0.9295 -0.2446 -0.9179
11033TIP3   OH254513   3.032   0.238   0.948 -0.7457 -0.1960 -0.1994
11033TIP3    H154514   3.035   0.155   0.996 -2.7211  0.1715  0.6956
11033TIP3    H254515   2.947   0.237   0.904 -0.4244  0.9634 -0.8919
11034TIP3   OH254516   3.915   6.328   4.032 -0.9300 -0.0216  0.6300
11034TIP3    H154517   3.961   6.331   3.948 -1.6123 -1.1115  0.2081
11034TIP3    H254518   3.860   6.250   4.027  0.2715 -1.0980  2.7474
11035TIP3   OH254519   0.704   1.311   0.067  0.4011 -0.1590 -0.1208
11035TIP3    H154520   0.613   1.300   0.040  1.0123 -2.0429 -1.6534
11035TIP3    H254521   0.701   1.378   0.135 -1.7946  1.8502 -2.0206
11036TIP3   OH254522   3.312   4.404  13.546 -0.1920  0.3355 -0.2472
11036TIP3    H154523   3.293   4.331  13.604 -1.1237 -0.0313 -0.9871
11036TIP3    H254524   3.227   4.443  13.527  0.0847  0.4389 -1.3748
11037TIP3   OH254525   3.345   3.464  11.647  0.1993 -0.2313 -0.0745
11037TIP3    H154526   3.360   3.558  11.654 -0.2253 -0.1543 -0.1435
11037TIP3    H254527   3.354   3.445  11.553 -0.7823 -0.0590 -0.2221
11038TIP3   OH254528   3.688   3.136   0.483  0.1709  0.3011 -0.1188
11038TIP3    H154529   3.696   3.155   0.390  1.3992  0.1324 -0.0611
11038TIP3    H254530   3.767   3.085   0.504 -0.2210  0.1178  0.9547
11039TIP3   OH254531   2.088   1.090   5.083 -0.1495 -0.2425 -0.8129
11039TIP3    H154532   2.146   1.156   5.121 -0.1357  0.4428 -1.9942
11039TIP3    H254533   2.135   1.059   5.005 -1.5132  0.6326 -2.0357
11040TIP3   OH254534   5.574   1.191  14.267  0.0935 -0.1168  0.0774
11040TIP3    H154535   5.622   1.168  14.188 -0.8574  0.0098 -0.5555
11040TIP3    H254536   5.634   1.171  14.339  2.1175  2.5519 -0.7616
11041TIP3   OH254537   3.108   2.144   5.708  0.4739 -0.0303  0.3423
11041TIP3    H154538   3.146   2.137   5.795  0.2802 -1.1394  0.3502
11041TIP3    H254539   3.015   2.160   5.724  0.2812 -1.0749  0.3701
11042TIP3   OH254540   0.189   2.493   1.712 -0.0774  0.0441  0.3353
11042TIP3    H154541   0.249   2.556   1.751  0.0174  0.0872  0.1262
11042TIP3    H254542   0.146   2.541   1.641  0.4241 -0.2780 -0.2053
11043TIP3   OH254543   6.551   0.404   0.775 -0.0123  0.9687 -0.1793
11043TIP3    H154544   6.540   0.412   0.870 -0.2818  3.1163 -0.3376
11043TIP3    H254545   6.464   0.380   0.743  0.2375 -0.4756  0.1339
11044TIP3   OH254546   5.124   6.833  11.916  0.3768 -0.2802 -0.2247
11044TIP3    H154547   5.080   6.755  11.951 -0.4282 -0.4395 -1.5215
11044TIP3    H254548   5.096   6.904  11.973 -0.6014 -0.5956 -0.2922
11045TIP3   OH254549   6.356   1.379   5.582 -0.2163 -0.0619  0.3073
11045TIP3    H154550   6.362   1.295   5.536 -0.5212  0.5294 -0.8364
11045TIP3    H254551   6.409   1.366   5.661 -1.3623 -1.7795  0.8526
11046TIP3   OH254552   3.514   6.011  15.436  0.4851 -0.4400 -0.3471
11046TIP3    H154553   3.539   6.102  15.422 -0.2528 -0.1704 -0.0129
11046TIP3    H254554   3.420   6.008  15.415  0.5662 -1.1908 -0.6473
11047TIP3   OH254555   5.483   1.254   4.860  0.1897 -0.1615 -0.4111
11047TIP3    H154556   5.502   1.335   4.813 -2.7889  0.6310 -0.3892
11047TIP3    H254557   5.494   1.276   4.952  2.2441 -0.6728 -0.4724
11048TIP3   OH254558   3.813   2.598  10.786 -0.2883  0.8739  0.0827
11048TIP3    H154559   3.801   2.570  10.695  1.5855 -0.1349  0.0836
11048TIP3    H254560   3.768   2.532  10.838  1.4946 -0.5543 -0.0445
11049TIP3   OH254561   6.198   4.332  13.922  0.1092  0.0402 -0.7702
11049TIP3    H154562   6.255   4.382  13.864  1.4100 -0.6261 -0.1141
11049TIP3    H254563   6.247   4.327  14.005 -0.7498 -0.8473 -0.2964
11050TIP3   OH254564   6.088   6.017   2.522  0.1654  0.6189 -0.1282
11050TIP3    H154565   6.100   5.932   2.564 -2.0799  1.0884  1.6582
11050TIP3    H254566   6.086   5.997   2.428  0.2241 -1.2265  0.2176
11051TIP3   OH254567   3.402   1.348  11.139 -0.1307  0.0458  0.1257
11051TIP3    H154568   3.467   1.287  11.173 -0.9521 -0.7137  0.3522
11051TIP3    H254569   3.450   1.431  11.131  1.1947 -0.7530 -0.8351
11052TIP3   OH254570   0.569   1.566  15.598  0.5418  0.0370 -0.1116
11052TIP3    H154571   0.493   1.599  15.646  2.1293  1.0610  1.8188
11052TIP3    H254572   0.583   1.631  15.529  0.8082  0.9208  0.7493
11053TIP3   OH254573   4.764   4.992   1.154  0.5131  1.1318  0.4939
11053TIP3    H154574   4.767   4.967   1.062  1.2502  1.8834  0.3033
11053TIP3    H254575   4.848   5.034   1.170  0.2202  1.3839  1.4036
11054TIP3   OH254576   3.642   1.114   0.196 -0.1021  0.6730 -0.3931
11054TIP3    H154577   3.587   1.131   0.119 -0.2364  1.0787 -0.2059
11054TIP3    H254578   3.711   1.056   0.163 -1.2136 -0.6863 -0.3962
11055TIP3   OH254579   5.277   1.974   1.018  0.2864 -0.0873 -0.0510
11055TIP3    H154580   5.205   2.023   0.977 -0.6938 -0.0154  1.6612
11055TIP3    H254581   5.279   1.890   0.971 -1.7330 -0.5673  0.6240
11056TIP3   OH254582   1.173   0.515   0.886 -0.2951  0.7202 -0.0716
11056TIP3    H154583   1.092   0.475   0.916 -0.1819 -0.2694 -1.0263
11056TIP3    H254584   1.147   0.600   0.851 -0.5343  1.5629  2.0117
11057TIP3   OH254585   2.549   5.715   2.829 -0.4168  0.9853 -0.0182
11057TIP3    H154586   2.478   5.658   2.800  1.1276 -0.9973 -0.0684
11057TIP3    H254587   2.578   5.677   2.912  1.3224  1.0522 -0.5591
11058TIP3   OH254588   3.042   2.447  16.198  0.0373  0.0144 -0.9480
11058TIP3    H154589   2.956   2.415  16.170 -0.3617  1.7054 -1.7683
11058TIP3    H254590   3.064   2.394  16.275 -2.2972  0.3461  0.0174
11059TIP3   OH254591   5.513   2.362  12.706  0.3026  0.3394  0.5487
11059TIP3    H154592   5.543   2.387  12.618 -1.0624 -4.1990 -1.5350
11059TIP3    H254593   5.556   2.278  12.722 -0.2548  0.5716  3.9017
11060TIP3   OH254594   0.457   0.658   5.531 -0.5250  0.8380 -0.1132
11060TIP3    H154595   0.456   0.597   5.605  0.0107 -0.2226 -0.9545
11060TIP3    H254596   0.546   0.654   5.498 -1.4611 -1.1302 -2.7235
11061TIP3   OH254597   5.010   0.804  10.419 -0.3059 -0.0976  0.1566
11061TIP3    H154598   4.949   0.735  10.393 -0.8487 -0.0476  1.2509
11061TIP3    H254599   4.964   0.885  10.401 -0.0787 -0.0278 -0.1336
11062TIP3   OH254600   5.390   5.787  15.762 -0.5951  0.0187  0.0781
11062TIP3    H154601   5.440   5.754  15.837  0.6723  0.7804 -0.4042
11062TIP3    H254602   5.347   5.709  15.726  0.8233 -0.8067  0.0979
11063TIP3   OH254603   6.724   2.812   3.125  0.2296  0.5507 -0.2998
11063TIP3    H154604   6.691   2.787   3.038 -0.5880  0.1157  0.1225
11063TIP3    H254605   6.803   2.759   3.136 -0.9117 -1.1372  0.1510
11064TIP3   OH254606   4.659   3.007  14.578  0.5171  0.4386 -0.3803
11064TIP3    H154607   4.666   2.926  14.528 -0.7200  0.1762 -0.1638
11064TIP3    H254608   4.721   2.996  14.650  0.4294 -0.2776 -0.4055
11065TIP3   OH254609   5.339   6.578   0.960  0.0510 -0.2905 -0.5912
11065TIP3    H154610   5.407   6.526   0.916 -0.0769 -1.1547  0.1914
11065TIP3    H254611   5.260   6.562   0.908  0.2348 -0.0238 -0.9625
11066TIP3   OH254612   0.468   5.295   5.019 -0.2114 -0.5231 -0.1365
11066TIP3    H154613   0.550   5.309   5.065 -0.7467  0.2283  0.6275
11066TIP3    H254614   0.407   5.268   5.088 -1.3671  1.9021 -0.1275
11067TIP3   OH254615   2.941   3.216   3.374 -0.2808 -0.3601 -0.2571
11067TIP3    H154616   3.004   3.156   3.334 -1.7645 -1.5841 -0.8216
11067TIP3    H254617   2.923   3.280   3.305  0.3041 -0.0222 -0.1036
11068TIP3   OH254618   5.919   6.645   1.962  0.9284  0.7731 -0.2770
11068TIP3    H154619   5.934   6.726   1.914 -1.2391  1.8548  0.7342
11068TIP3    H254620   5.950   6.664   2.051  0.1997  0.5888  0.0215
11069TIP3   OH254621   2.588   3.250  16.376  0.4399 -0.5023  0.3462
11069TIP3    H154622   2.561   3.178  16.319  1.2430 -0.5605  0.0267
11069TIP3    H254623   2.584   3.327  16.319  1.1936 -0.5520  0.2177
11070TIP3   OH254624   0.483   1.041   3.910 -0.3364  0.9462 -0.6328
11070TIP3    H154625   0.451   1.044   3.820  1.3042  0.8309 -1.2398
11070TIP3    H254626   0.543   0.967   3.912  1.2112  2.1648 -0.0009
11071TIP3   OH254627   4.439   5.895  14.497 -0.2176  0.9737 -0.1098
11071TIP3    H154628   4.475   5.812  14.467 -0.4842  1.1060 -0.8265
11071TIP3    H254629   4.397   5.932  14.420  1.4389  2.6285 -0.2903
11072TIP3   OH254630   2.554   6.196  12.196  0.1943  0.9221  0.3612
11072TIP3    H154631   2.615   6.270  12.190 -0.8911  1.9236  1.3101
11072TIP3    H254632   2.567   6.161  12.284  0.7353 -0.0788 -0.1000
11073TIP3   OH254633   4.636   0.950  15.367 -0.1576 -0.3344 -0.0624
11073TIP3    H154634   4.552   0.992  15.387 -1.0454 -2.4092  0.7482
11073TIP3    H254635   4.701   1.014  15.395 -1.4496  0.2548  1.8149
11074TIP3   OH254636   0.241   3.887  14.996  0.4559 -0.1753 -0.0765
11074TIP3    H154637   0.283   3.805  15.024 -0.2700 -0.3819  0.4278
11074TIP3    H254638   0.272   3.900  14.907  0.8796 -0.8036 -0.0297
11075TIP3   OH254639   6.389   6.672   1.074  0.4801 -0.0004 -0.0326
11075TIP3    H154640   6.429   6.695   1.158 -1.3693  0.7450  0.7120
11075TIP3    H254641   6.323   6.606   1.097 -2.1288  2.3196 -0.3332
11076TIP3   OH254642   4.637   1.629   5.004  0.0761  0.5520 -0.3504
11076TIP3    H154643   4.609   1.670   4.922  0.1427 -0.0995 -0.7032
11076TIP3    H254644   4.621   1.696   5.071  1.0971  1.5375 -1.0469
11077TIP3   OH254645   2.729   5.725  13.820  0.7457  0.0507 -0.2879
11077TIP3    H154646   2.684   5.687  13.895 -0.2141 -0.5731 -1.1497
11077TIP3    H254647   2.792   5.787  13.858  0.4492 -0.4292  1.0211
11078TIP3   OH254648   4.672   0.720  16.281  0.0314  0.1083 -0.6650
11078TIP3    H154649   4.757   0.692  16.314 -0.8853 -0.7745  1.1010
11078TIP3    H254650   4.685   0.810  16.253  1.2435  0.4139  0.8009
11079TIP3   OH254651   3.935   6.507  12.183 -0.0069 -0.5141  0.5174
11079TIP3    H154652   3.945   6.508  12.088  0.7263 -1.0730  0.5801
11079TIP3    H254653   4.007   6.452  12.215 -0.2633 -0.3674  1.3935
11080TIP3   OH254654   1.829   6.566   0.051  0.0639 -0.1701 -0.5456
11080TIP3    H154655   1.741   6.538   0.026 -0.0115 -0.9515  0.5534
11080TIP3    H254656   1.885   6.492   0.029  0.1429 -0.4718  0.6293
11081TIP3   OH254657   4.317   1.132  16.432 -0.6864  0.7568  0.2109
11081TIP3    H154658   4.264   1.089  16.498 -0.6230 -0.1947 -0.3352
11081TIP3    H254659   4.311   1.225  16.452 -1.0407  0.5137  1.2629
11082TIP3   OH254660   6.540   4.872  14.061  0.1636  0.6754  0.2534
11082TIP3    H154661   6.630   4.897  14.037  0.2793  0.0537  0.0248
11082TIP3    H254662   6.540   4.777  14.057 -0.6583  0.6888 -0.3019
11083TIP3   OH254663   4.047   0.302   4.329  0.2569  0.3019  0.1382
11083TIP3    H154664   4.078   0.288   4.240 -0.6796 -1.4841  0.0458
11083TIP3    H254665   4.083   0.229   4.379 -1.7078 -0.4625  0.5246
11084TIP3   OH254666   2.639   3.918   0.474  0.5009  0.6413 -0.2774
11084TIP3    H154667   2.664   3.934   0.383 -1.2826  1.2759 -0.6941
11084TIP3    H254668   2.546   3.894   0.469  0.7690 -0.9020  1.2296
11085TIP3   OH254669   5.180   5.029   4.073 -0.0147 -0.1228  0.0646
11085TIP3    H154670   5.261   5.049   4.026  0.4070 -0.1762  0.7636
11085TIP3    H254671   5.116   5.013   4.004  1.2283 -2.9005 -0.5849
11086TIP3   OH254672   5.267   1.338  11.427  0.2847 -0.2205 -0.2458
11086TIP3    H154673   5.326   1.352  11.353 -0.3177  2.2122 -0.3600
11086TIP3    H254674   5.262   1.424  11.470  0.6437 -1.5485  2.6885
11087TIP3   OH254675   3.971   4.549  10.741  0.1506 -0.6402 -0.3064
11087TIP3    H154676   4.034   4.614  10.771 -0.7583  1.2519 -2.2004
11087TIP3    H254677   4.018   4.501  10.672 -0.1235  0.1298 -1.0530
11088TIP3   OH254678   2.738   5.097   4.287  0.3002 -0.4397 -0.0568
11088TIP3    H154679   2.728   5.075   4.195  0.8352 -2.4558  0.3059
11088TIP3    H254680   2.798   5.171   4.287 -1.1758  0.8143 -1.3794
11089TIP3   OH254681   0.866   5.338  16.778  0.0256  0.7500  0.0246
11089TIP3    H154682   0.782   5.297  16.800  0.0032  0.6641 -0.2229
11089TIP3    H254683   0.848   5.389  16.699  0.2853  0.4729 -0.2118
11090TIP3   OH254684   6.607   0.182   1.452  0.4689 -0.3660 -0.9253
11090TIP3    H154685   6.669   0.109   1.452 -0.2227 -0.9897 -2.2318
11090TIP3    H254686   6.662   0.260   1.456  1.2362 -0.9271  0.2133
11091TIP3   OH254687   4.468   4.800  16.793 -0.5409  0.2476 -0.0176
11091TIP3    H154688   4.461   4.813  16.888 -0.7194  0.8417 -0.1094
11091TIP3    H254689   4.401   4.734  16.774 -0.0658 -0.3500  0.3610
11092TIP3   OH254690   1.089   5.356  15.686  0.2931  0.6517 -0.4763
11092TIP3    H154691   1.120   5.386  15.601 -0.3092  1.5088 -0.4089
11092TIP3    H254692   1.061   5.436  15.731  0.5539  0.2114  0.5061
11093TIP3   OH254693   2.441   0.216  10.129 -0.0984 -0.1226  1.4581
11093TIP3    H154694   2.423   0.126  10.103 -2.2715  1.1793 -2.4948
11093TIP3    H254695   2.509   0.245  10.068 -1.6993  1.7028  0.4310
11094TIP3   OH254696   0.944   4.894   2.465 -0.1122 -0.5780 -0.3451
11094TIP3    H154697   0.861   4.912   2.421  0.2768 -0.3765 -1.0124
11094TIP3    H254698   0.919   4.862   2.551 -0.8663  1.3870  0.2256
11095TIP3   OH254699   0.737   3.233  15.567  0.1555  0.2622  0.5200
11095TIP3    H154700   0.669   3.167  15.582  1.8033 -1.7081 -0.0919
11095TIP3    H254701   0.778   3.245  15.652  0.0116  0.3168  0.5827
11096TIP3   OH254702   0.562   2.592   5.273 -0.4943 -0.2209  0.4826
11096TIP3    H154703   0.467   2.584   5.275 -0.5217  0.0907  0.4340
11096TIP3    H254704   0.585   2.626   5.360 -0.2434 -2.2262  1.2605
11097TIP3   OH254705   1.058   0.990  16.213 -0.1914 -0.4343 -0.1705
11097TIP3    H154706   1.138   1.043  16.209  0.0765 -0.7125  0.9890
11097TIP3    H254707   0.989   1.053  16.233 -0.2355 -0.2275 -0.9377
11098TIP3   OH254708   3.729   2.177   3.468  0.4313 -0.0819 -0.1707
11098TIP3    H154709   3.702   2.090   3.499 -2.4337  1.3683  1.8822
11098TIP3    H254710   3.706   2.177   3.375 -0.8507 -1.1250  0.1110
11099TIP3   OH254711   5.104   4.408   4.636  0.5140 -0.3792  0.1321
11099TIP3    H154712   5.179   4.370   4.589  1.2023  0.5089  0.4642
11099TIP3    H254713   5.067   4.471   4.574 -0.9661 -1.9130 -0.6303
11100TIP3   OH254714   3.803   4.023   3.613  0.4430 -0.2308 -0.3746
11100TIP3    H154715   3.757   3.939   3.616  1.2150 -0.8052 -2.4458
11100TIP3    H254716   3.894   4.001   3.633  0.1053  0.7268  2.6261
11101TIP3   OH254717   1.099   1.992  14.947  0.6782  0.4248  0.2622
11101TIP3    H154718   1.125   2.005  14.855  2.7865  0.3068  0.7955
11101TIP3    H254719   1.154   2.052  14.996  0.5737 -0.5131  1.5707
11102TIP3   OH254720   4.241   5.731  16.968  0.5231  0.1136  0.3059
11102TIP3    H154721   4.305   5.761  16.904  1.0079 -1.1246  0.1776
11102TIP3    H254722   4.286   5.661  17.016  0.0028  0.7083  1.6868
11103TIP3   OH254723   0.274   5.109  10.427  0.4100 -0.0695  0.4561
11103TIP3    H154724   0.298   5.189  10.473  1.6914  0.5948 -1.2656
11103TIP3    H254725   0.248   5.138  10.340 -2.2614 -1.2551  0.7536
11104TIP3   OH254726   0.032   2.074  10.340  0.2453  0.1102 -0.4230
11104TIP3    H154727   0.074   2.061  10.255 -0.8196 -0.0247 -0.9340
11104TIP3    H254728   0.095   2.128  10.389  2.3365 -2.4078 -0.1181
11105TIP3   OH254729   3.979   1.293   0.083  0.0480  0.0675 -0.0536
11105TIP3    H154730   3.949   1.328  -0.001  0.2438  0.7489  0.1562
11105TIP3    H254731   4.067   1.261   0.066  0.1653  0.3889 -0.0684
11106TIP3   OH254732   5.050   5.947   4.064  0.0114 -0.6308 -0.0567
11106TIP3    H154733   5.020   5.921   3.977 -0.0767  0.7827 -0.4800
11106TIP3    H254734   4.978   5.999   4.100  1.0136  0.8806 -0.1636
11107TIP3   OH254735   5.705   0.233   5.279  0.3911  0.3267 -0.0547
11107TIP3    H154736   5.688   0.328   5.283 -0.6497  0.2545 -1.6568
11107TIP3    H254737   5.625   0.197   5.240  1.5595 -0.9538 -1.3965
11108TIP3   OH254738   4.466   4.451   0.890 -0.0524 -0.3617 -0.6269
11108TIP3    H154739   4.391   4.393   0.875 -0.9621  0.9334 -1.2787
11108TIP3    H254740   4.461   4.515   0.820  0.9645  0.4681  0.0305
11109TIP3   OH254741   4.790   3.268  15.522 -0.3953  0.3788  0.3381
11109TIP3    H154742   4.846   3.234  15.592  0.8209  1.6803  0.0310
11109TIP3    H254743   4.845   3.266  15.444 -1.0855  0.8254 -0.1704
11110TIP3   OH254744   5.600   5.530   1.029  0.6677 -0.4295  0.3871
11110TIP3    H154745   5.573   5.532   1.121 -0.2050  0.1033  0.1345
11110TIP3    H254746   5.637   5.442   1.016  0.1784 -0.7457  1.0797
11111TIP3   OH254747   3.379   6.778  15.175 -0.2105  0.4223 -0.0623
11111TIP3    H154748   3.428   6.793  15.094 -0.5898 -1.3965 -0.6592
11111TIP3    H254749   3.336   6.862  15.192  0.4532  1.0529 -1.3436
11112TIP3   OH254750   6.760   0.510  10.686  0.0819 -0.2451 -0.2124
11112TIP3    H154751   6.713   0.521  10.603 -1.6597 -2.1976  0.4509
11112TIP3    H254752   6.732   0.425  10.719  0.7686  0.4434  2.3808
11113TIP3   OH254753   6.444   3.577  14.988 -0.2332  0.5522 -0.3811
11113TIP3    H154754   6.484   3.661  15.008  0.4752  0.0537  0.3416
11113TIP3    H254755   6.504   3.536  14.925  0.0567  0.0877  0.1893
11114TIP3   OH254756   2.008   2.201  11.197 -0.6448  0.3022 -0.7896
11114TIP3    H154757   2.067   2.137  11.237 -1.0801  0.4377  0.0802
11114TIP3    H254758   2.038   2.285  11.231 -2.0854  0.2696  0.6317
11115TIP3   OH254759   2.869   3.732  11.389 -1.0462  0.0657 -0.8785
11115TIP3    H154760   2.840   3.814  11.428 -1.3188 -1.1398  1.6401
11115TIP3    H254761   2.964   3.741  11.381 -1.1320  0.8026 -1.1336
11116TIP3   OH254762   3.106   2.417  11.519  0.3001 -0.2353 -0.4674
11116TIP3    H154763   3.045   2.488  11.498  1.4541  0.6090 -1.0364
11116TIP3    H254764   3.078   2.344  11.463 -2.2026 -1.0055  1.6050
11117TIP3   OH254765   1.731   0.108  11.262 -0.5841  0.5145  0.0900
11117TIP3    H154766   1.757   0.015  11.264 -0.6862  0.4780 -0.2780
11117TIP3    H254767   1.642   0.107  11.227 -0.7880  0.7095  0.5997
11118TIP3   OH254768   4.133   6.432   3.749 -0.0124 -0.2256  0.5624
11118TIP3    H154769   4.131   6.366   3.819  0.6031 -2.4050 -1.3604
11118TIP3    H254770   4.224   6.460   3.746  0.2867 -1.2434 -0.3052
11119TIP3   OH254771   4.048   6.407   5.241 -0.2236 -0.3708  0.2191
11119TIP3    H154772   4.027   6.315   5.229  1.5908 -1.2498  3.0208
11119TIP3    H254773   4.121   6.408   5.302  0.0219  2.9358  0.0613
11120TIP3   OH254774   5.780   1.234   1.669  0.6961  0.3578  0.3187
11120TIP3    H154775   5.752   1.224   1.578  1.6719  0.5288 -0.0139
11120TIP3    H254776   5.703   1.269   1.714 -0.0122 -0.3699 -0.2948
11121TIP3   OH254777   5.854   0.161  15.369 -0.3144 -0.3999  0.1813
11121TIP3    H154778   5.831   0.096  15.435  0.1515 -0.0366  0.7209
11121TIP3    H254779   5.893   0.111  15.297  0.7546 -0.6708  0.9198
11122TIP3   OH254780   4.532   5.483  14.645  0.0948  0.3682  0.0893
11122TIP3    H154781   4.446   5.519  14.620 -0.6740 -1.3131  0.1954
11122TIP3    H254782   4.515   5.433  14.725  0.9086 -1.0021 -0.5576
11123TIP3   OH254783   4.806   6.133   0.789  0.2962  0.1925  0.3830
11123TIP3    H154784   4.723   6.088   0.776  0.2133  0.3212  0.4721
11123TIP3    H254785   4.782   6.226   0.800  0.5990  0.5864 -1.8286
11124TIP3   OH254786   0.581   4.882  16.109  0.1466 -0.1346  0.1044
11124TIP3    H154787   0.504   4.839  16.147  0.7143 -0.2456  1.1542
11124TIP3    H254788   0.570   4.872  16.014 -1.1689 -0.0741  0.2350
11125TIP3   OH254789   4.514   4.057  13.634  0.4962 -0.1998  0.1591
11125TIP3    H154790   4.532   4.135  13.686  0.1884 -0.5191  0.7529
11125TIP3    H254791   4.600   4.026  13.606  0.5500  1.7529 -2.2230
11126TIP3   OH254792   2.432   1.166   2.564  0.8664 -0.1067  0.3580
11126TIP3    H154793   2.444   1.089   2.509 -1.0872  0.1344 -0.5033
11126TIP3    H254794   2.376   1.135   2.636  0.6109  0.3586  0.3605
11127TIP3   OH254795   6.198   0.139   4.469  0.0062  0.3818 -0.5657
11127TIP3    H154796   6.212   0.223   4.426  1.0684 -0.1464 -1.2738
11127TIP3    H254797   6.157   0.084   4.401 -3.0286  1.0080  0.5897
11128TIP3   OH254798   6.096   1.894  12.134  0.1209 -0.0288 -0.4520
11128TIP3    H154799   6.117   1.972  12.082 -0.4902  0.8843  0.6379
11128TIP3    H254800   6.170   1.835  12.120  0.4613  0.6230 -1.5192
11129TIP3   OH254801   0.708   2.733  15.512  0.7130  0.4559  0.1679
11129TIP3    H154802   0.698   2.637  15.517  1.3809  0.3333 -0.6891
11129TIP3    H254803   0.733   2.750  15.422  1.1188  1.4048  0.4475
11130TIP3   OH254804   5.608   0.902   3.307 -0.4794  0.0450  0.6515
11130TIP3    H154805   5.673   0.903   3.236 -0.7192  0.9039  0.4254
11130TIP3    H254806   5.548   0.973   3.284 -0.9477 -0.1163  1.3638
11131TIP3   OH254807   1.339   1.234   5.168  0.1633  0.1101  0.3553
11131TIP3    H154808   1.321   1.327   5.159 -2.0827 -0.2188  0.8820
11131TIP3    H254809   1.329   1.216   5.261 -0.9320 -0.9161  0.0635
11132TIP3   OH254810   4.186   0.852   3.664 -0.0868  0.0659  0.4168
11132TIP3    H154811   4.104   0.830   3.709 -0.5815  2.4173  0.8130
11132TIP3    H254812   4.254   0.838   3.730  0.0206 -2.8922 -0.2245
11133TIP3   OH254813   6.059   5.094  16.155  0.6424 -0.3982 -0.1547
11133TIP3    H154814   6.115   5.171  16.153  0.9040 -0.5845 -0.1087
11133TIP3    H254815   6.063   5.058  16.066 -0.2829  0.2058 -0.4526
11134TIP3   OH254816   4.140   1.182   5.752  0.0770  0.3652 -0.2013
11134TIP3    H154817   4.182   1.101   5.726 -1.8146 -0.4893 -0.7966
11134TIP3    H254818   4.161   1.192   5.845 -0.0812 -1.0859  0.0054
11135TIP3   OH254819   1.889   2.767   1.945  0.6210 -0.7327 -0.2718
11135TIP3    H154820   1.984   2.783   1.946  0.3882  1.0768 -1.7549
11135TIP3    H254821   1.874   2.723   1.861 -0.2453  2.5711 -2.0269
11136TIP3   OH254822   6.705   6.007  11.827 -0.2510 -0.1223 -0.2949
11136TIP3    H154823   6.615   6.010  11.859 -0.4254  1.4620 -0.8352
11136TIP3    H254824   6.718   5.917  11.799 -0.9173 -0.9629  1.8545
11137TIP3   OH254825   2.874   6.156   1.912  0.4495  0.0048  0.7117
11137TIP3    H154826   2.811   6.097   1.953  0.1916 -1.8222 -2.0317
11137TIP3    H254827   2.875   6.233   1.968 -0.9164 -1.6714  3.2316
11138TIP3   OH254828   6.671   3.407  15.424 -0.0129 -0.1958  0.6334
11138TIP3    H154829   6.609   3.462  15.473  0.6401  0.7960  0.3605
11138TIP3    H254830   6.626   3.323  15.416 -1.0591  0.3092  1.0003
11139TIP3   OH254831   5.238   2.493  13.377 -0.1980  0.0678 -0.1355
11139TIP3    H154832   5.254   2.426  13.443 -0.9802  0.7628  0.7894
11139TIP3    H254833   5.144   2.487  13.359 -0.3037  1.0072  0.0686
11140TIP3   OH254834   0.386   0.191  15.480 -0.6376  0.0748 -0.3778
11140TIP3    H154835   0.479   0.171  15.467 -0.5968  1.1068 -1.8588
11140TIP3    H254836   0.347   0.106  15.500  0.3510 -0.6936 -1.5066
11141TIP3   OH254837   5.646   4.488  15.024 -0.3996 -0.0746 -0.1144
11141TIP3    H154838   5.712   4.540  15.071  0.7152 -2.7307  1.5102
11141TIP3    H254839   5.676   4.487  14.934  1.6425 -0.8926  0.5121
11142TIP3   OH254840   1.189   6.086   5.898  0.4027 -0.6575 -0.1848
11142TIP3    H154841   1.115   6.111   5.952  2.2788 -0.9491  2.7262
11142TIP3    H254842   1.156   6.015   5.843 -1.8197  0.2250 -0.0750
11143TIP3   OH254843   0.017   6.104   4.471  0.6147  0.4982 -0.5061
11143TIP3    H154844  -0.022   6.098   4.558 -0.4315  0.8946 -0.9414
11143TIP3    H254845   0.111   6.091   4.486  0.4430  0.5465  0.6739
11144TIP3   OH254846   3.160   4.214  13.964  0.0331 -0.1386  0.2772
11144TIP3    H154847   3.120   4.137  14.004  0.9808 -0.4899  0.5699
11144TIP3    H254848   3.219   4.248  14.032  0.3177  0.3020 -0.1890
11145TIP3   OH254849   0.103   6.118   3.812  0.5107 -0.1481  0.1714
11145TIP3    H154850   0.193   6.086   3.804  0.5004 -0.0607 -0.3724
11145TIP3    H254851   0.110   6.213   3.809  0.4764 -0.1089  1.0651
11146TIP3   OH254852   4.143   1.029   4.718 -0.0485  0.1817  0.3811
11146TIP3    H154853   4.232   1.008   4.747  0.0220  0.8670  0.6870
11146TIP3    H254854   4.087   0.995   4.788 -0.1478 -1.5215 -0.4678
11147TIP3   OH254855   6.476   3.879  16.723  0.0091  0.1222 -0.3345
11147TIP3    H154856   6.461   3.852  16.813  2.4810  0.5254  0.2605
11147TIP3    H254857   6.434   3.965  16.716 -2.0939 -0.8366 -0.2841
11148TIP3   OH254858   0.695   2.665  14.843 -0.9493 -0.3751  0.1882
11148TIP3    H154859   0.640   2.704  14.775  0.7911 -0.8419 -1.5864
11148TIP3    H254860   0.744   2.596  14.798  0.2072 -0.7973  1.9560
11149TIP3   OH254861   0.007   4.149   2.954  0.0509 -0.6862  0.1840
11149TIP3    H154862  -0.047   4.192   3.020  1.0399 -1.7007  1.7057
11149TIP3    H254863   0.059   4.220   2.916 -2.0685  0.2721 -1.1291
11150TIP3   OH254864   5.369   4.516  12.063  0.1087 -0.2356 -0.2088
11150TIP3    H154865   5.400   4.460  12.133  2.2757 -1.9776 -2.3630
11150TIP3    H254866   5.441   4.579  12.049 -2.0580  2.9976  1.8408
11151TIP3   OH254867   0.860   1.349  13.049  0.8022 -0.2383  0.2854
11151TIP3    H154868   0.790   1.299  13.008 -0.4418 -1.3592  3.4209
11151TIP3    H254869   0.841   1.440  13.027 -0.6194 -0.6655 -0.3479
11152TIP3   OH254870   2.052   2.127   5.998  0.5084 -0.7440  0.2227
11152TIP3    H154871   2.031   2.179   6.076 -0.9298 -1.0075  0.0448
11152TIP3    H254872   2.147   2.128   5.994  0.6656 -1.1779  2.3019
11153TIP3   OH254873   4.374   2.278   0.746 -0.1713  0.0431  0.0126
11153TIP3    H154874   4.300   2.266   0.806 -1.0390 -1.4196 -1.2672
11153TIP3    H254875   4.435   2.208   0.768  0.0951  0.2821  0.0326
11154TIP3   OH254876   5.163   6.145   5.856 -0.2948  0.6690 -0.0311
11154TIP3    H154877   5.227   6.214   5.836  0.2678  0.3897  0.7470
11154TIP3    H254878   5.216   6.068   5.876 -0.7857  0.7596  1.9174
11155TIP3   OH254879   4.591   3.975  13.022  0.6655  0.0188  0.6065
11155TIP3    H154880   4.634   4.061  13.028  1.3946 -0.2222 -0.6790
11155TIP3    H254881   4.664   3.913  13.016  0.1387 -0.5871  0.3794
11156TIP3   OH254882   4.829   2.863  11.682 -0.1177  0.0162  0.3356
11156TIP3    H154883   4.869   2.875  11.596 -0.8852 -0.3789 -0.0822
11156TIP3    H254884   4.903   2.842  11.740  0.3139 -0.4705 -0.3734
11157TIP3   OH254885   3.459   5.051   5.321 -0.4596  0.5236 -0.1094
11157TIP3    H154886   3.501   4.967   5.306  0.3543  0.9708 -0.3756
11157TIP3    H254887   3.372   5.029   5.354 -0.6842 -0.4376 -1.2963
11158TIP3   OH254888   4.629   2.514  13.542  1.0859  0.3398  0.0426
11158TIP3    H154889   4.654   2.553  13.458  2.2482  1.6133  0.9348
11158TIP3    H254890   4.707   2.467  13.571  0.1930 -1.4111 -0.2792
11159TIP3   OH254891   5.383   3.252   3.603 -0.3409 -0.2659 -0.2856
11159TIP3    H154892   5.390   3.232   3.696 -0.2934 -1.6238 -0.5622
11159TIP3    H254893   5.331   3.332   3.600 -1.0740 -0.6624  0.8729
11160TIP3   OH254894   4.356   0.407  15.863  0.0624 -0.7869 -0.8394
11160TIP3    H154895   4.430   0.446  15.909 -0.2463 -1.9966  0.7767
11160TIP3    H254896   4.383   0.405  15.772  1.4221  0.1173 -0.4867
11161TIP3   OH254897   4.460   6.539   4.710  0.3845 -0.3154  0.4333
11161TIP3    H154898   4.466   6.446   4.733 -0.5323 -0.4327  0.2194
11161TIP3    H254899   4.511   6.583   4.779  1.0437 -0.9836  0.3976
11162TIP3   OH254900   1.544   6.794  14.182 -0.2003  0.1424  0.3849
11162TIP3    H154901   1.564   6.820  14.092 -2.6633 -0.0436 -0.2989
11162TIP3    H254902   1.488   6.864  14.216 -2.3163 -1.4698  0.4378
11163TIP3   OH254903   4.327   1.694   0.441 -0.4718  0.0361  0.0490
11163TIP3    H154904   4.258   1.698   0.508 -2.1163  1.1599 -1.5994
11163TIP3    H254905   4.369   1.780   0.445  0.2879 -0.3388  0.4432
11164TIP3   OH254906   2.669   0.629  12.184  0.4609  0.2781  0.0596
11164TIP3    H154907   2.719   0.614  12.264  1.0735  0.5879 -0.2580
11164TIP3    H254908   2.589   0.672  12.214  0.5046  0.0305  0.5442
11165TIP3   OH254909   5.758   4.240  10.404 -0.6478 -0.2324  0.1131
11165TIP3    H154910   5.846   4.271  10.381 -0.2825 -1.1140  0.2440
11165TIP3    H254911   5.739   4.173  10.339 -0.7821 -0.7652  0.6883
11166TIP3   OH254912   0.404   5.375   2.650  0.1742 -1.0738  0.0162
11166TIP3    H154913   0.417   5.382   2.555  0.7855 -2.6149 -0.0507
11166TIP3    H254914   0.385   5.464   2.678 -2.2938 -0.9022 -1.8618
11167TIP3   OH254915   5.288   0.889  16.036 -0.2714  0.0642  0.0641
11167TIP3    H154916   5.203   0.910  15.999  0.3839  1.2356 -0.8315
11167TIP3    H254917   5.297   0.948  16.111  1.0320  2.2480 -1.7004
11168TIP3   OH254918   1.187   2.538   4.681  0.2385 -0.0749 -0.0494
11168TIP3    H154919   1.267   2.507   4.639  0.4268  0.0295  0.2327
11168TIP3    H254920   1.200   2.522   4.774  0.0970  0.3148  0.0403
11169TIP3   OH254921   6.800   1.251   1.122  0.5632 -0.5474  0.2681
11169TIP3    H154922   6.805   1.180   1.058 -0.4477 -1.5377  1.2583
11169TIP3    H254923   6.812   1.331   1.070  0.6606 -1.3782 -1.0141
11170TIP3   OH254924   0.989   1.759  14.943  0.3705  0.1030  0.3185
11170TIP3    H154925   1.026   1.843  14.971  0.0273  0.1732  0.5650
11170TIP3    H254926   0.895   1.774  14.939  0.3630 -0.0779 -0.3047
11171TIP3   OH254927   6.570   3.718  12.450 -0.1738 -0.2753 -0.3274
11171TIP3    H154928   6.573   3.809  12.480 -1.5124 -0.5515  0.7735
11171TIP3    H254929   6.587   3.667  12.529  1.3009 -0.9870 -1.0836
11172TIP3   OH254930   3.895   0.503   4.070 -0.2428  0.0824 -0.5057
11172TIP3    H154931   3.844   0.571   4.027  0.3877  0.7935 -0.1410
11172TIP3    H254932   3.973   0.493   4.015  0.4302  0.7931  0.2847
11173TIP3   OH254933   4.574   6.143  13.257  0.0991 -0.2645 -0.0372
11173TIP3    H154934   4.514   6.207  13.296 -2.2622 -1.1896 -1.9526
11173TIP3    H254935   4.645   6.196  13.221 -2.2334  1.4862 -2.3917
11174TIP3   OH254936   3.235   1.043   1.386  0.2867  0.3355 -0.3428
11174TIP3    H154937   3.160   1.072   1.439 -0.9135 -0.3333 -1.6215
11174TIP3    H254938   3.300   1.014   1.450 -1.6505 -1.7706  0.7819
11175TIP3   OH254939   1.235   6.020   3.239 -0.3481  0.0810  0.0922
11175TIP3    H154940   1.174   6.034   3.167 -0.8645  0.2202  0.5499
11175TIP3    H254941   1.223   6.096   3.296  1.3190  0.8792 -0.5463
11176TIP3   OH254942   1.012   2.610   0.257 -0.5634  0.3796 -0.5484
11176TIP3    H154943   1.006   2.582   0.165 -2.6236  0.0843 -0.3557
11176TIP3    H254944   1.068   2.545   0.298 -0.3404  0.0196 -1.4031
11177TIP3   OH254945   0.093   6.809  15.764 -0.5392  0.0381  0.3794
11177TIP3    H154946   0.114   6.887  15.815 -1.5371 -0.8568  2.2405
11177TIP3    H254947   0.000   6.792  15.782 -0.7993 -0.6326 -1.3410
11178TIP3   OH254948   4.730   4.298  13.589  0.6150 -0.1734  0.3081
11178TIP3    H154949   4.771   4.245  13.521 -0.6719 -2.5087  1.2329
11178TIP3    H254950   4.787   4.286  13.666  0.0873 -0.5908  0.6396
11179TIP3   OH254951   6.783   6.766   0.363 -0.3965 -0.1966  0.3032
11179TIP3    H154952   6.767   6.777   0.456 -0.8057 -1.8307  0.4664
11179TIP3    H254953   6.878   6.767   0.355 -0.2682 -2.0093  1.0708
11180TIP3   OH254954   0.292   3.159   1.097  0.0494 -0.1712 -0.4093
11180TIP3    H154955   0.247   3.078   1.120 -2.4668  1.2769  0.1220
11180TIP3    H254956   0.356   3.171   1.167 -0.9863 -0.6573  0.6585
11181TIP3   OH254957   5.115   6.769  17.020  0.2004 -0.5012 -0.4602
11181TIP3    H154958   5.143   6.705  16.954  0.7515  0.4362 -1.1676
11181TIP3    H254959   5.196   6.791  17.066 -0.0283 -0.4800 -0.0718
11182TIP3   OH254960   0.005   0.094  12.729 -0.1307  0.0091 -0.2509
11182TIP3    H154961   0.055   0.037  12.670 -0.6165 -0.5639 -0.1203
11182TIP3    H254962   0.071   0.151  12.769  0.1275  0.9361 -1.9041
11183TIP3   OH254963   6.296   5.039  13.513 -1.0464 -0.9159 -0.1765
11183TIP3    H154964   6.291   5.054  13.607  1.0167 -0.8081 -0.0527
11183TIP3    H254965   6.244   5.109  13.474 -0.1155  0.3376  0.7961
11184TIP3   OH254966   5.324   4.733   3.579  0.6619  0.1146  0.6158
11184TIP3    H154967   5.242   4.727   3.529  0.4054 -1.2578  1.1447
11184TIP3    H254968   5.319   4.816   3.625 -1.0751 -0.5269  1.6848
11185TIP3   OH254969   1.836   4.999   4.041  0.0464  0.1926  0.4482
11185TIP3    H154970   1.835   5.051   4.121  0.8457 -0.4083  0.8678
11185TIP3    H254971   1.902   5.041   3.986 -0.4881  0.5932  0.1098
11186TIP3   OH254972   5.709   3.853  16.564 -0.3055 -0.0304  0.2717
11186TIP3    H154973   5.758   3.828  16.485 -1.0054  1.8507 -0.8037
11186TIP3    H254974   5.768   3.913  16.611 -0.6804  0.4433  0.1404
11187TIP3   OH254975   3.237   3.162  12.013  0.0053 -0.5206 -0.2155
11187TIP3    H154976   3.153   3.130  12.045 -0.6883 -2.4991 -3.5026
11187TIP3    H254977   3.223   3.256  12.000 -0.3874 -0.0907  2.6781
11188TIP3   OH254978   5.341   6.782  12.336 -0.4784  0.3769  0.4076
11188TIP3    H154979   5.414   6.740  12.289  0.7562  1.1561  1.5578
11188TIP3    H254980   5.358   6.876  12.326 -2.3274  0.6281 -0.7885
11189TIP3   OH254981   1.612   6.272  15.107  0.2473 -0.4460 -0.0205
11189TIP3    H154982   1.557   6.271  15.185  0.4231 -0.7634  0.0998
11189TIP3    H254983   1.700   6.289  15.140 -0.0899  2.8505 -0.4136
11190TIP3   OH254984   3.202   5.835  14.897  0.6370 -0.1402  0.1367
11190TIP3    H154985   3.253   5.913  14.919 -0.4490  1.1721 -1.6972
11190TIP3    H254986   3.183   5.844  14.803 -1.4562 -1.4634  0.3626
11191TIP3   OH254987   2.882   5.927  13.733  0.2065  0.3591 -0.2362
11191TIP3    H154988   2.839   5.923  13.648 -1.2135  3.6208  0.1692
11191TIP3    H254989   2.952   5.990  13.722  0.3209  0.4476  0.8671
11192TIP3   OH254990   1.647   6.482  11.756  0.2637  0.1063 -0.2756
11192TIP3    H154991   1.654   6.455  11.665 -1.8746 -1.2608 -0.1010
11192TIP3    H254992   1.655   6.401  11.806 -0.1155  0.6401  0.6690
11193TIP3   OH254993   1.956   4.691  10.881 -0.2606 -0.7183  0.1032
11193TIP3    H154994   2.013   4.702  10.805 -0.1705  0.7429  0.3679
11193TIP3    H254995   1.876   4.651  10.845 -0.1896 -0.1129 -0.7570
11194TIP3   OH254996   1.965   3.389  12.890 -0.1753  0.1076  0.7369
11194TIP3    H154997   1.896   3.339  12.934 -1.6382  3.1334  2.2391
11194TIP3    H254998   2.017   3.426  12.961  0.5463  1.0772 -0.2520
11195TIP3   OH254999   1.519   4.090   1.570 -0.1978 -0.5841  0.3594
11195TIP3    H155000   1.545   4.075   1.478  0.2072 -0.4119  0.4407
11195TIP3    H255001   1.592   4.054   1.621 -0.7531 -1.3393  0.6369
11196TIP3   OH255002   3.872   3.648  10.971  0.6242  0.2119 -0.2281
11196TIP3    H155003   3.895   3.722  11.027  0.0144 -0.9841  1.6918
11196TIP3    H255004   3.953   3.599  10.960  0.0136 -1.9632  3.4304
11197TIP3   OH255005   4.456   0.776  15.135  0.0030 -0.2527 -0.0322
11197TIP3    H155006   4.400   0.851  15.156  1.1584  0.1394  1.8033
11197TIP3    H255007   4.396   0.701  15.134 -0.4324 -0.0925  3.4071
11198TIP3   OH255008   1.728   1.794   1.681  0.4221 -0.0396  0.1574
11198TIP3    H155009   1.780   1.839   1.748  0.7705 -0.3581  0.1074
11198TIP3    H255010   1.652   1.759   1.728 -0.6026  1.8061 -0.0590
11199TIP3   OH255011   5.052   2.571   6.009  0.3109 -0.6072 -0.2194
11199TIP3    H155012   5.135   2.529   5.985 -0.1970 -2.0892  0.5182
11199TIP3    H255013   5.076   2.633   6.078  1.0593  0.3235 -1.2669
11200TIP3   OH255014   2.358   2.919   0.021  0.5125  0.3673 -0.0349
11200TIP3    H155015   2.302   2.865  -0.034  0.1272 -1.0125  1.6332
11200TIP3    H255016   2.434   2.939  -0.035  0.8811 -2.2822 -0.6101
11201TIP3   OH255017   1.625   4.137  11.485 -0.3381  0.0879  0.3474
11201TIP3    H155018   1.535   4.109  11.499 -0.9398  0.7820 -1.8420
11201TIP3    H255019   1.627   4.229  11.510 -0.1516  0.0089  0.6369
11202TIP3   OH255020   4.224   6.075  14.060 -0.0397  0.3380  0.0064
11202TIP3    H155021   4.165   6.039  13.994 -0.0285  0.3131  0.0100
11202TIP3    H255022   4.306   6.090  14.014  1.3651 -3.4986  0.8784
11203TIP3   OH255023   3.152   3.776  13.186 -0.3524 -0.6907  0.3441
11203TIP3    H155024   3.155   3.864  13.225  0.9138 -1.2867  1.7128
11203TIP3    H255025   3.070   3.774  13.138 -1.2729  0.6554  1.7415
11204TIP3   OH255026   5.819   0.907  15.949  0.0485  0.1803 -0.3614
11204TIP3    H155027   5.739   0.949  15.981  0.0338 -0.1296  0.0332
11204TIP3    H255028   5.889   0.946  16.001  0.0479 -0.1904 -0.0791
11205TIP3   OH255029   3.401   2.538  16.741  0.0088 -0.0541  0.3090
11205TIP3    H155030   3.471   2.561  16.802  0.3556 -1.2511  0.3944
11205TIP3    H255031   3.432   2.568  16.656 -0.2611  1.1920  0.6383
11206TIP3   OH255032   1.287   0.046  12.113  0.3046 -0.2469  0.4899
11206TIP3    H155033   1.312  -0.017  12.046  2.0547 -0.6357  1.4418
11206TIP3    H255034   1.218   0.003  12.164 -0.6891 -0.1366 -0.7134
11207TIP3   OH255035   1.311   4.897   0.846  0.6530 -0.5303 -0.4567
11207TIP3    H155036   1.385   4.942   0.888  1.0125 -0.6354 -0.9686
11207TIP3    H255037   1.337   4.887   0.755 -0.2453 -0.0575 -0.7749
11208TIP3   OH255038   1.491   3.848  12.468  0.4930  0.4615 -0.0210
11208TIP3    H155039   1.460   3.860  12.558  0.6412  0.1007  0.0801
11208TIP3    H255040   1.438   3.776  12.434  0.5863  0.4548 -0.1545
11209TIP3   OH255041   0.619   1.132  16.394  0.4147  0.2919  0.2113
11209TIP3    H155042   0.707   1.124  16.356 -0.7187 -0.5998 -2.4822
11209TIP3    H255043   0.585   1.214  16.359 -0.3854 -0.1669 -0.1258
11210TIP3   OH255044   5.435   2.841  12.506 -0.6222  0.6502 -0.2497
11210TIP3    H155045   5.393   2.912  12.555 -2.8866 -2.1936  2.2292
11210TIP3    H255046   5.368   2.773  12.500  1.7938 -1.7825 -1.5022
11211TIP3   OH255047   2.820   1.464   1.935 -0.7347 -0.3627 -0.3626
11211TIP3    H155048   2.727   1.447   1.952 -0.4698 -0.6913  0.8302
11211TIP3    H255049   2.858   1.378   1.919 -0.4782 -0.3119 -0.0317
11212TIP3   OH255050   2.939   5.037  10.840 -0.0643 -0.0467  0.2586
11212TIP3    H155051   2.936   5.114  10.783  0.6331  0.1426  0.4652
11212TIP3    H255052   2.865   4.983  10.812  0.7914 -0.3942 -1.4480
11213TIP3   OH255053   3.923   0.147   0.739  0.1599  0.3183 -0.0524
11213TIP3    H155054   3.868   0.103   0.804 -0.1025 -1.9408 -1.6863
11213TIP3    H255055   3.863   0.166   0.667  1.1135 -0.3582 -1.0406
11214TIP3   OH255056   0.427   6.658  13.367  0.2258 -0.6507  0.1851
11214TIP3    H155057   0.492   6.716  13.328  0.0096 -0.3479  0.2738
11214TIP3    H255058   0.347   6.673  13.316  0.7667 -2.6596 -1.4220
11215TIP3   OH255059   0.168   0.966  15.335 -0.1677 -0.7022 -0.4243
11215TIP3    H155060   0.106   0.993  15.402  0.1570 -0.0853 -0.3625
11215TIP3    H255061   0.129   0.995  15.252  0.1940  0.0252 -0.3566
11216TIP3   OH255062   2.299   6.499  11.631 -0.4989 -0.0380 -0.2316
11216TIP3    H155063   2.340   6.573  11.585  0.4095 -1.4793 -1.8933
11216TIP3    H255064   2.304   6.427  11.568 -2.0968 -1.3119  1.0254
11217TIP3   OH255065   3.457   2.378   5.884  0.3386 -0.5638 -0.5316
11217TIP3    H155066   3.457   2.456   5.938 -0.1764 -1.1235  0.2988
11217TIP3    H255067   3.366   2.366   5.859  0.4458 -0.7864 -0.8197
11218TIP3   OH255068   2.038   5.926   2.080  0.5804 -0.2739  0.3824
11218TIP3    H155069   2.101   5.868   2.036 -1.3547 -1.1731 -1.3669
11218TIP3    H255070   1.955   5.879   2.076 -0.5296  1.4959  1.3131
11219TIP3   OH255071   5.950   3.692   3.029  0.0411  0.2104 -0.3633
11219TIP3    H155072   5.892   3.740   3.089  1.2540  1.3189 -0.0275
11219TIP3    H255073   5.981   3.617   3.079 -1.3013 -0.5768 -0.6481
11220TIP3   OH255074   2.428   2.242   1.167  0.3111  0.1612 -0.1328
11220TIP3    H155075   2.472   2.258   1.250  1.5704 -0.5047 -0.6522
11220TIP3    H255076   2.413   2.329   1.130 -1.0808  0.5201  1.1733
11221TIP3   OH255077   1.756   3.387   4.997  0.2322 -0.9734 -0.0053
11221TIP3    H155078   1.737   3.295   4.981 -0.9563 -0.7496  0.0004
11221TIP3    H255079   1.779   3.422   4.910 -0.3936 -1.0380 -0.1988
11222TIP3   OH255080   3.602   1.625  16.597  0.0265 -0.5281 -0.0909
11222TIP3    H155081   3.637   1.710  16.571  1.0950 -1.2889 -1.2213
11222TIP3    H255082   3.582   1.636  16.690 -0.5409  1.1664 -0.3660
11223TIP3   OH255083   2.133   6.186   3.973 -0.3340 -0.0669 -0.1395
11223TIP3    H155084   2.113   6.148   3.887  0.6245 -2.1501  0.4796
11223TIP3    H255085   2.090   6.127   4.036  0.8702  0.0769  0.8662
11224TIP3   OH255086   3.942   1.772  15.898  0.2168 -0.1618 -0.6020
11224TIP3    H155087   4.016   1.833  15.907 -0.0638  0.1527 -0.3964
11224TIP3    H255088   3.975   1.704  15.840  0.2990  0.5644 -1.4343
11225TIP3   OH255089   6.174   4.021  16.972 -0.3915  0.2659  0.0355
11225TIP3    H155090   6.146   4.047  16.884 -0.4619  1.2699  0.3449
11225TIP3    H255091   6.119   4.073  17.031  0.2841  0.2749  0.6680
11226TIP3   OH255092   3.282   4.582   4.232  0.0519 -0.0667 -0.3098
11226TIP3    H155093   3.362   4.537   4.207 -0.2965 -0.7182 -0.2808
11226TIP3    H255094   3.223   4.569   4.157 -0.4815 -0.7502  0.2108
11227TIP3   OH255095   1.063   2.122   5.460 -0.6451  0.0627  0.0954
11227TIP3    H155096   1.149   2.111   5.502 -0.4129 -0.7980 -0.5576
11227TIP3    H255097   1.018   2.187   5.513  0.3367  0.3702  0.5779
11228TIP3   OH255098   6.507   1.434  13.167  0.1837 -0.0345  0.2071
11228TIP3    H155099   6.431   1.485  13.192 -0.4380 -0.8725  0.0709
11228TIP3    H255100   6.582   1.483  13.202 -0.5537 -0.4727  2.6160
11229TIP3   OH255101   6.463   3.679   2.466  0.2661 -0.2008 -0.0269
11229TIP3    H155102   6.528   3.725   2.520  1.4911 -0.4597 -1.2238
11229TIP3    H255103   6.481   3.710   2.377 -1.0011 -0.5986 -0.4283
11230TIP3   OH255104   3.088   0.701   0.275 -0.1488 -0.4620 -0.1067
11230TIP3    H155105   3.175   0.681   0.238  0.8540  0.1781  1.7904
11230TIP3    H255106   3.100   0.783   0.322 -1.2110 -1.4470  2.0160
11231TIP3   OH255107   0.500   6.444   0.364  0.0377 -0.3919  0.9800
11231TIP3    H155108   0.425   6.385   0.375 -0.1647 -0.2087  0.5946
11231TIP3    H255109   0.576   6.388   0.380 -0.1757 -0.5675  1.4253
11232TIP3   OH255110   1.639   1.774  16.080 -0.1611  0.2321  0.2386
11232TIP3    H155111   1.570   1.713  16.107 -0.4816  0.8821  0.9113
11232TIP3    H255112   1.720   1.734  16.112 -0.4350  0.4706  1.2672
11233TIP3   OH255113   0.401   2.558  14.979  0.1947 -0.4224 -0.3277
11233TIP3    H155114   0.329   2.552  15.041 -0.1657 -1.8555 -0.8375
11233TIP3    H255115   0.480   2.555  15.032 -0.1108  0.1949  0.1690
11234TIP3   OH255116   0.101   4.450   4.196 -0.4891  0.4551 -0.3917
11234TIP3    H155117   0.170   4.493   4.246  0.1832  2.0137 -2.5118
11234TIP3    H255118   0.050   4.521   4.159 -2.7389 -0.6667  0.3740
11235TIP3   OH255119   3.004   3.283  16.782  0.4150 -0.2821 -0.0887
11235TIP3    H155120   3.090   3.305  16.747  1.0267  0.0819  1.5534
11235TIP3    H255121   2.949   3.271  16.705  2.1803 -1.5873 -1.2163
11236TIP3   OH255122   1.106   1.995   0.634 -0.3197  0.5967  0.3439
11236TIP3    H155123   1.169   2.005   0.705 -0.8955  1.3630  0.7624
11236TIP3    H255124   1.020   1.994   0.678 -0.6205 -0.2138 -0.2322
11237TIP3   OH255125   2.196   3.346  16.447 -0.0918 -0.2462 -0.2185
11237TIP3    H155126   2.159   3.427  16.412  0.5260  0.4307  0.6604
11237TIP3    H255127   2.258   3.374  16.514  0.8865 -1.4124 -0.5891
11238TIP3   OH255128   6.146   6.455  16.122 -0.0842 -0.4273  0.6383
11238TIP3    H155129   6.210   6.510  16.167  0.1938 -0.8375  0.7510
11238TIP3    H255130   6.189   6.370  16.113 -0.7006 -0.7845  0.9413
11239TIP3   OH255131   5.188   2.653  10.805  0.2223  0.3239  0.1779
11239TIP3    H155132   5.163   2.745  10.810  1.3859  0.6263  0.8920
11239TIP3    H255133   5.283   2.655  10.791 -0.1284 -0.7504 -3.3617
11240TIP3   OH255134   4.569   2.220  12.766 -0.1232 -0.3442  0.0049
11240TIP3    H155135   4.572   2.309  12.732 -2.0620 -0.2980 -0.1351
11240TIP3    H255136   4.547   2.166  12.689  1.6753 -1.0686 -0.0588
11241TIP3   OH255137   1.471   4.190   4.039  0.0142 -0.0799 -0.0239
11241TIP3    H155138   1.383   4.153   4.033 -0.2696  0.7598 -1.7211
11241TIP3    H255139   1.485   4.232   3.954  0.8611  2.4837  1.2806
11242TIP3   OH255140   5.923   2.922   0.379  0.2233  0.2115  0.8168
11242TIP3    H155141   5.969   2.849   0.337  1.5617  2.0402 -1.1464
11242TIP3    H255142   5.835   2.918   0.343  0.3974 -0.2224  0.4200
11243TIP3   OH255143   1.435   6.050  14.939 -0.0083 -0.2787 -0.0423
11243TIP3    H155144   1.450   6.143  14.959  0.3211 -0.5315  0.9246
11243TIP3    H255145   1.378   6.051  14.862  0.1707  0.7236 -0.1765
11244TIP3   OH255146   3.321   2.895  16.178  0.3873  0.1292  0.4612
11244TIP3    H155147   3.304   2.820  16.234  1.4854 -0.5426 -0.0604
11244TIP3    H255148   3.395   2.868  16.124 -0.2921  0.9457 -0.9447
11245TIP3   OH255149   2.253   1.296  11.475 -0.1958 -0.2350 -0.4258
11245TIP3    H155150   2.284   1.254  11.395 -0.9137 -0.4662 -0.5853
11245TIP3    H255151   2.184   1.237  11.508 -1.7808  1.2048 -1.0657
11246TIP3   OH255152   1.157   3.409  16.299 -0.4042 -0.0422  0.1967
11246TIP3    H155153   1.177   3.370  16.384 -0.4936  2.5731  1.5341
11246TIP3    H255154   1.242   3.435  16.264 -0.5001  0.4288  0.3094
11247TIP3   OH255155   4.218   4.623   0.950 -0.5571 -0.0478  0.1213
11247TIP3    H155156   4.204   4.543   0.899  1.0517 -1.8750  2.3094
11247TIP3    H255157   4.211   4.594   1.041 -0.0974  2.3645  0.9828
11248TIP3   OH255158   5.411   3.194  14.257  0.0721  0.1053 -0.0079
11248TIP3    H155159   5.353   3.199  14.332 -1.0789  0.3830 -0.8840
11248TIP3    H255160   5.473   3.266  14.269 -0.3081  0.3475  0.5001
11249TIP3   OH255161   4.881   1.227  11.603  0.5391  0.2238  0.0101
11249TIP3    H155162   4.868   1.132  11.598  1.7841  0.0751 -0.8367
11249TIP3    H255163   4.876   1.246  11.696 -1.3764 -0.3972  0.0840
11250TIP3   OH255164   0.920   0.019  11.295 -0.0963 -0.1200 -0.2257
11250TIP3    H155165   0.883   0.107  11.299 -1.5879 -0.6647 -1.2094
11250TIP3    H255166   0.870  -0.032  11.359  1.5755 -0.0054  1.2270
11251TIP3   OH255167   3.769   6.260  12.042  0.2960  0.2376 -0.0923
11251TIP3    H155168   3.748   6.245  11.950  4.4574 -1.8198 -0.9360
11251TIP3    H255169   3.826   6.337  12.043  1.9219 -0.9055  0.3687
11252TIP3   OH255170   3.454   2.153  12.629  0.3606 -0.2169 -0.0848
11252TIP3    H155171   3.470   2.079  12.571 -1.1699  1.4399 -2.8522
11252TIP3    H255172   3.361   2.147  12.651  0.2565  0.7623 -0.1984
11253TIP3   OH255173   5.475   3.282   2.681  0.0628 -0.1006 -0.7481
11253TIP3    H155174   5.417   3.264   2.754 -0.4712  0.4046 -1.0426
11253TIP3    H255175   5.560   3.249   2.709 -0.3386 -0.7413 -0.2715
11254TIP3   OH255176   1.437   2.101  14.769 -0.0488 -0.3748  0.3670
11254TIP3    H155177   1.484   2.102  14.852  0.1012  0.7426  0.2824
11254TIP3    H255178   1.437   2.192  14.740 -0.2836 -0.7153 -0.7561
11255TIP3   OH255179   2.976   2.526   6.370  0.0719  0.0380  0.1145
11255TIP3    H155180   3.052   2.568   6.410 -0.3695  0.4075  0.5852
11255TIP3    H255181   2.958   2.450   6.426 -1.0138  0.9824  1.1179
11256TIP3   OH255182   6.695   2.971   3.895 -0.4743 -0.7353 -0.4524
11256TIP3    H155183   6.698   2.901   3.829  1.2037 -1.1225 -0.0152
11256TIP3    H255184   6.663   2.927   3.974 -1.0265 -0.6189 -0.6088
11257TIP3   OH255185   5.259   0.427  15.330  0.7914 -0.1104  0.2608
11257TIP3    H155186   5.260   0.449  15.237 -0.2412 -0.0975  0.2463
11257TIP3    H255187   5.167   0.432  15.356  0.9080 -1.2536  1.0061
11258TIP3   OH255188   3.212   1.991   0.314 -0.7115  0.2492  0.1176
11258TIP3    H155189   3.273   2.064   0.326 -1.6997  1.0333  0.4458
11258TIP3    H255190   3.268   1.913   0.319  0.2238  0.9302  0.7164
11259TIP3   OH255191   2.189   3.425   2.633 -0.1174  0.1767 -0.3769
11259TIP3    H155192   2.268   3.372   2.631  0.0236  0.3874 -0.5865
11259TIP3    H255193   2.119   3.364   2.656  0.0670 -0.0624 -0.4455
11260TIP3   OH255194   1.457   4.232  14.295 -0.2194 -0.0174 -0.4103
11260TIP3    H155195   1.470   4.192  14.209  0.0724 -2.5239  0.6844
11260TIP3    H255196   1.545   4.251  14.327  0.0017 -2.4520  0.6932
11261TIP3   OH255197   3.424   5.318   3.963 -0.0832 -0.2962 -0.0652
11261TIP3    H155198   3.495   5.259   3.988 -0.4741 -0.4833  0.6418
11261TIP3    H255199   3.468   5.398   3.933  0.4241 -0.0059  1.3926
11262TIP3   OH255200   6.466   4.525  10.736 -0.2185 -0.5339  0.2435
11262TIP3    H155201   6.548   4.500  10.694 -1.0342  0.3073 -1.9702
11262TIP3    H255202   6.435   4.444  10.778  1.6407 -0.8852  1.0483
11263TIP3   OH255203   0.321   2.289   2.938  0.6210  0.8253 -0.3416
11263TIP3    H155204   0.237   2.279   2.892  0.5933  0.7002 -0.2640
11263TIP3    H255205   0.382   2.317   2.870  0.0545  3.0759 -0.0006
11264TIP3   OH255206   4.236   1.410  11.149  0.7677  0.1109 -0.5233
11264TIP3    H155207   4.272   1.387  11.063 -2.1300 -0.3398 -1.7094
11264TIP3    H255208   4.188   1.491  11.135 -0.9330 -0.6984  0.2951
11265TIP3   OH255209   3.342   3.315   3.049  0.5005  0.0442  0.5155
11265TIP3    H155210   3.348   3.385   2.984  0.6002  0.3672  0.8751
11265TIP3    H255211   3.370   3.236   3.001 -1.5329 -0.1373 -0.4735
11266TIP3   OH255212   0.013   0.374  16.954  0.0255  1.0763  0.4720
11266TIP3    H155213   0.096   0.344  16.915  0.4903 -0.2344  2.3292
11266TIP3    H255214   0.031   0.463  16.983  0.2390  1.3995 -0.5845
11267TIP3   OH255215   1.330   4.077  13.951  0.6726 -0.0333  0.0142
11267TIP3    H155216   1.327   4.022  14.029 -0.3050  1.3937  1.0496
11267TIP3    H255217   1.419   4.112  13.948  0.8235 -0.3994  0.2562
11268TIP3   OH255218   1.496   1.828   5.147  0.4886 -0.8732  0.1688
11268TIP3    H155219   1.410   1.830   5.189  0.1413  0.6952 -0.5525
11268TIP3    H255220   1.489   1.889   5.074  2.2566 -0.5931  0.1766
11269TIP3   OH255221   1.428   1.547   5.101 -0.2732 -0.3275 -0.8915
11269TIP3    H155222   1.449   1.640   5.100 -0.7089 -0.1630  0.8370
11269TIP3    H255223   1.489   1.510   5.165 -1.9426 -0.6721  0.6150
11270TIP3   OH255224   4.540   3.947  10.872  0.0678 -0.2853  0.1692
11270TIP3    H155225   4.633   3.926  10.861 -0.0969 -1.1657  0.3621
11270TIP3    H255226   4.495   3.877  10.824 -0.4735  1.7791 -2.5488
11271TIP3   OH255227   1.862   1.573  14.873 -0.2601 -0.2090  0.2462
11271TIP3    H155228   1.846   1.485  14.908  0.9622 -0.2700  0.6956
11271TIP3    H255229   1.904   1.558  14.788 -1.6528 -0.0447 -0.5084
11272TIP3   OH255230   2.185   6.543  11.322 -0.2785  0.0356 -0.2664
11272TIP3    H155231   2.254   6.576  11.380 -0.4091 -0.0766 -0.0428
11272TIP3    H255232   2.156   6.462  11.364 -2.3213  1.3564  1.0621
11273TIP3   OH255233   0.791   4.146   1.394  0.0414  0.3254  0.3845
11273TIP3    H155234   0.741   4.075   1.354  0.1110 -0.1593  1.1217
11273TIP3    H255235   0.794   4.215   1.328  0.6490 -0.6601 -0.6521
11274TIP3   OH255236   1.920   0.370   0.716  0.0597  0.3182 -0.0059
11274TIP3    H155237   2.008   0.390   0.749 -0.0230  0.4719  0.1242
11274TIP3    H255238   1.926   0.280   0.684 -0.5469 -0.8625  2.8768
11275TIP3   OH255239   2.225   5.814   2.684 -0.1737 -0.6127  0.0102
11275TIP3    H155240   2.314   5.848   2.695 -0.5180  0.3826 -0.1513
11275TIP3    H255241   2.178   5.885   2.640 -0.6837 -1.6821 -1.2491
11276TIP3   OH255242   0.156   3.362  14.853 -0.6182  0.4659 -0.2538
11276TIP3    H155243   0.100   3.289  14.880 -1.4198  0.3498 -2.0639
11276TIP3    H255244   0.212   3.325  14.784  2.5730  0.2727  2.1760
11277TIP3   OH255245   4.198   6.490  10.139 -0.2718 -0.4523 -0.0129
11277TIP3    H155246   4.283   6.452  10.115 -0.0423  0.1081 -0.1181
11277TIP3    H255247   4.215   6.584  10.144 -0.1557 -0.5554  2.9298
11278TIP3   OH255248   3.302   1.996   4.788  0.1938 -0.0167  0.1385
11278TIP3    H155249   3.317   2.064   4.722 -0.4038  0.6300  0.6482
11278TIP3    H255250   3.282   2.044   4.868 -1.9333 -0.7538  0.1315
11279TIP3   OH255251   2.592   3.805  14.117  0.7428 -0.2444 -0.0483
11279TIP3    H155252   2.571   3.898  14.112  1.2064 -0.1587 -0.5483
11279TIP3    H255253   2.673   3.800  14.166 -0.1825 -0.5409  1.5112
11280TIP3   OH255254   0.968   5.446   1.756  0.3849 -0.1139 -0.6686
11280TIP3    H155255   0.991   5.430   1.847  1.0721 -0.2833 -0.8696
11280TIP3    H255256   1.038   5.405   1.705 -0.4587 -0.8223 -1.3008
11281TIP3   OH255257   2.426   1.817   0.864  0.8073  0.2033  0.0344
11281TIP3    H155258   2.338   1.792   0.836  0.7199  0.6961 -0.1426
11281TIP3    H255259   2.473   1.734   0.872  0.0619 -0.1317  1.0544
11282TIP3   OH255260   4.085   2.392   0.095 -0.0480 -0.2130  0.6723
11282TIP3    H155261   4.094   2.302   0.065  0.2519 -0.2218  0.7816
11282TIP3    H255262   3.991   2.404   0.108 -0.1082 -0.4407  0.4504
11283TIP3   OH255263   1.725   0.612   5.954  0.1937 -0.3093  0.2331
11283TIP3    H155264   1.810   0.570   5.968  0.0820 -1.3747 -1.8984
11283TIP3    H255265   1.724   0.633   5.861 -0.9915  1.7827  0.6415
11284TIP3   OH255266   1.096   6.813  12.300 -0.2410  0.0195 -0.0158
11284TIP3    H155267   1.016   6.766  12.275  0.9339 -1.7009 -0.7087
11284TIP3    H255268   1.070   6.865  12.376 -1.7429 -1.3895  0.4933
11285TIP3   OH255269   6.831   2.283  13.489 -0.3726 -0.4362  0.3395
11285TIP3    H155270   6.824   2.275  13.584 -0.4540 -0.4943  0.3292
11285TIP3    H255271   6.743   2.260  13.457 -0.3211 -0.5038  0.2457
11286TIP3   OH255272   5.073   3.570   4.490 -0.3827  0.1948  0.1121
11286TIP3    H155273   5.042   3.501   4.432 -0.0726  0.3014 -0.1861
11286TIP3    H255274   5.166   3.578   4.470 -0.5992  1.3423 -0.5275
11287TIP3   OH255275   4.339   1.898  11.030 -0.3274  0.3124  0.3900
11287TIP3    H155276   4.353   1.886  10.936  0.6296 -2.0810  0.7665
11287TIP3    H255277   4.423   1.877  11.070 -1.3861 -1.3660  1.9083
11288TIP3   OH255278   2.847   4.768  12.229 -0.0397  0.8538 -0.2218
11288TIP3    H155279   2.927   4.720  12.250 -1.2184 -1.1031 -0.0224
11288TIP3    H255280   2.812   4.725  12.151 -0.6439  2.0139 -0.6220
11289TIP3   OH255281   3.412   3.088  14.504  0.1234  0.0028  0.4389
11289TIP3    H155282   3.450   3.033  14.436 -0.1395  0.0944  0.2120
11289TIP3    H255283   3.347   3.033  14.546 -1.1699  0.5595 -0.7389
11290TIP3   OH255284   5.088   1.639  10.369  0.3876 -0.5427 -0.4529
11290TIP3    H155285   5.038   1.716  10.392  0.9170 -0.3469  0.0852
11290TIP3    H255286   5.029   1.565  10.387 -0.2152 -0.2613 -1.2362
11291TIP3   OH255287   0.873   1.151   0.714  0.6066  0.4743 -0.9356
11291TIP3    H155288   0.917   1.236   0.711 -0.8370  1.4776  2.0285
11291TIP3    H255289   0.791   1.165   0.666 -0.6042  1.5214  1.2897
11292TIP3   OH255290   4.698   3.320  11.993 -0.2316 -0.3159  0.4641
11292TIP3    H155291   4.628   3.260  12.014  1.3456 -1.7536  1.9398
11292TIP3    H255292   4.698   3.383  12.065  1.3421 -1.6640  1.7297
11293TIP3   OH255293   2.281   1.888   4.803 -0.5912 -0.2293  0.1205
11293TIP3    H155294   2.269   1.794   4.802 -1.8676 -0.1592  2.0962
11293TIP3    H255295   2.368   1.901   4.842 -0.5441 -0.5883  0.1340
11294TIP3   OH255296   6.107   5.211  12.852  0.0434 -0.4359  0.2730
11294TIP3    H155297   6.182   5.156  12.829  0.4802  0.5707 -0.8086
11294TIP3    H255298   6.031   5.161  12.822  0.4303 -0.4747 -0.6802
11295TIP3   OH255299   0.119   1.810  12.087  0.4931  0.4233 -0.1277
11295TIP3    H155300   0.088   1.725  12.056  1.3697  0.5784 -1.5663
11295TIP3    H255301   0.040   1.863  12.095  0.2047  0.6626 -3.2021
11296TIP3   OH255302   3.675   5.151  14.638  0.2388  0.2293 -0.2169
11296TIP3    H155303   3.689   5.094  14.562 -0.2640  0.2029 -0.2947
11296TIP3    H255304   3.641   5.093  14.706 -0.3532  0.4357 -0.3231
11297TIP3   OH255305   4.067   1.632   0.865  0.4073 -0.2014  0.4114
11297TIP3    H155306   4.088   1.592   0.949  0.2723 -1.7473 -0.2651
11297TIP3    H255307   3.972   1.642   0.866  0.2814 -1.2217  0.0394
11298TIP3   OH255308   0.724   5.738  10.496 -0.2018  0.6189 -0.0541
11298TIP3    H155309   0.709   5.643  10.492 -1.5721  0.8637 -1.5409
11298TIP3    H255310   0.763   5.760  10.411 -0.6240  1.4871 -0.0387
11299TIP3   OH255311   5.830   3.233   5.956  0.0937  0.0844  0.9576
11299TIP3    H155312   5.899   3.297   5.975 -0.2729  0.4895  0.9565
11299TIP3    H255313   5.837   3.168   6.026  1.9346 -1.1288 -0.2646
11300TIP3   OH255314   5.522   6.743   4.683 -0.7317 -0.0510  0.2875
11300TIP3    H155315   5.565   6.792   4.753 -0.0373 -0.3044  0.0465
11300TIP3    H255316   5.429   6.759   4.696 -0.5206  1.6837 -0.0296
11301TIP3   OH255317   1.508   2.325  13.272  0.2493  0.7410  0.1283
11301TIP3    H155318   1.415   2.319  13.293  0.6161  0.9981  1.9536
11301TIP3    H255319   1.552   2.284  13.346  1.5808 -0.1002 -1.0726
11302TIP3   OH255320   6.602   1.589   0.619 -0.4309  0.0020  0.0241
11302TIP3    H155321   6.634   1.658   0.678 -0.1368 -0.4443  0.3926
11302TIP3    H255322   6.676   1.529   0.610 -1.1934 -1.1049  0.9654
11303TIP3   OH255323   5.618   1.381   3.251  0.1231  0.1632  0.6026
11303TIP3    H155324   5.705   1.388   3.290  0.7108  3.4225 -1.0183
11303TIP3    H255325   5.567   1.450   3.293 -1.2295 -0.6229  0.3273
11304TIP3   OH255326   4.951   0.460  11.868  0.2253  0.1627 -0.2685
11304TIP3    H155327   5.035   0.499  11.845 -0.1904  0.9440 -0.4935
11304TIP3    H255328   4.938   0.482  11.960  0.2514  0.0720 -0.2423
11305TIP3   OH255329   3.233   4.470  11.913 -0.4619 -0.0322 -0.3651
11305TIP3    H155330   3.158   4.526  11.892  0.4397  0.8166 -1.5165
11305TIP3    H255331   3.292   4.526  11.963  0.0548 -0.2194 -0.7488
11306TIP3   OH255332   5.274   2.365   0.828 -0.0384  0.4125 -0.0355
11306TIP3    H155333   5.336   2.313   0.778  1.0210 -0.4883  2.0961
11306TIP3    H255334   5.323   2.444   0.851 -0.4598  0.7443 -0.2636
11307TIP3   OH255335   2.440   1.687  16.501  0.0189  0.2837  0.0704
11307TIP3    H155336   2.373   1.747  16.467  0.5056  1.0628  0.4398
11307TIP3    H255337   2.499   1.744  16.550 -0.7163 -0.8045  2.3453
11308TIP3   OH255338   4.690   3.261   3.760  0.3557  0.6039 -0.2820
11308TIP3    H155339   4.667   3.179   3.803  2.9364  1.2500  2.7644
11308TIP3    H255340   4.685   3.242   3.667  0.2277 -2.8264  0.2981
11309TIP3   OH255341   4.463   0.192   3.481 -0.6584 -0.2064  0.1668
11309TIP3    H155342   4.396   0.260   3.478  0.6543  1.1185 -0.2824
11309TIP3    H255343   4.440   0.133   3.409 -1.1787  0.3688 -0.1508
11310TIP3   OH255344   0.078   3.600  11.363  0.4701  0.3673  0.3725
11310TIP3    H155345  -0.011   3.590  11.329  1.2846 -0.7177 -1.5953
11310TIP3    H255346   0.104   3.689  11.337  0.5758  0.0438 -0.6878
11311TIP3   OH255347   3.953   2.256   3.829  0.6352  0.1112 -0.3198
11311TIP3    H155348   3.969   2.242   3.735  0.2162  0.9228 -0.5210
11311TIP3    H255349   4.026   2.310   3.858  0.9591 -0.4411 -0.0868
11312TIP3   OH255350   2.909   1.189   1.945 -0.0061 -0.6102 -0.0719
11312TIP3    H155351   2.981   1.136   1.911 -1.2324 -2.3933 -0.0127
11312TIP3    H255352   2.910   1.174   2.039 -0.4969 -0.6910 -0.0766
11313TIP3   OH255353   5.006   6.670  14.248 -0.2132  0.3592  0.5955
11313TIP3    H155354   4.950   6.741  14.278 -0.7465  0.2731 -0.1666
11313TIP3    H255355   4.945   6.601  14.222  0.2904 -0.2805  1.0824
11314TIP3   OH255356   4.829   1.345  14.354  0.0285 -0.0881 -0.1887
11314TIP3    H155357   4.888   1.384  14.418  0.9963  0.7930 -1.5854
11314TIP3    H255358   4.765   1.297  14.407  0.9390  0.4123  1.4171
11315TIP3   OH255359   1.051   0.841   2.303 -0.0336 -0.0617  0.2729
11315TIP3    H155360   1.037   0.856   2.209 -0.7280 -0.8178  0.2484
11315TIP3    H255361   1.143   0.815   2.309  0.3923  1.2933 -0.0258
11316TIP3   OH255362   2.208   5.946   0.269  0.0698  0.2144  0.3648
11316TIP3    H155363   2.247   5.974   0.352  1.8257  0.3237 -0.4405
11316TIP3    H255364   2.181   6.028   0.226  1.4694  0.4073 -0.2199
11317TIP3   OH255365   6.090   6.490  12.346 -0.2689  0.3279  0.0620
11317TIP3    H155366   6.169   6.500  12.292  0.0479 -0.8301  0.2927
11317TIP3    H255367   6.108   6.541  12.425  0.1324  0.2829 -0.0004
11318TIP3   OH255368   6.324   1.396  11.331  0.3183  0.5619 -0.2156
11318TIP3    H155369   6.308   1.467  11.393 -0.3903 -0.5668  0.9588
11318TIP3    H255370   6.238   1.358  11.314  0.4983  0.8598 -1.9531
11319TIP3   OH255371   0.316   1.632  16.023 -0.1870 -0.6536 -0.2191
11319TIP3    H155372   0.368   1.594  16.094  0.7136  1.5310  0.3661
11319TIP3    H255373   0.232   1.586  16.028  0.3174 -1.4860  1.3797
11320TIP3   OH255374   0.374   1.529  13.069  0.4821  0.0244  0.4094
11320TIP3    H155375   0.440   1.476  13.024  1.0831  0.5346  0.6600
11320TIP3    H255376   0.290   1.493  13.042  0.8814 -1.5200  1.1572
11321TIP3   OH255377   3.573   0.886  10.569 -0.1731  0.8791  0.0104
11321TIP3    H155378   3.499   0.902  10.510  0.4204 -0.0389 -1.0256
11321TIP3    H255379   3.645   0.935  10.529 -0.6360  3.5658  2.1572
11322TIP3   OH255380   0.358   1.475   2.473 -0.4781 -0.5004  0.4782
11322TIP3    H155381   0.366   1.436   2.385 -0.4059  0.6222 -0.0255
11322TIP3    H255382   0.436   1.443   2.519  0.3038  0.1086 -0.3664
11323TIP3   OH255383   4.931   4.641  11.944 -0.0483 -0.2695 -0.2965
11323TIP3    H155384   5.004   4.699  11.969  0.1231  0.2953 -1.9949
11323TIP3    H255385   4.863   4.701  11.914 -0.4348 -0.8934 -0.6622
11324TIP3   OH255386   1.430   3.396   2.064  0.3251 -0.2474 -0.2829
11324TIP3    H155387   1.516   3.380   2.025  1.0859  0.2613  1.1217
11324TIP3    H255388   1.403   3.480   2.028  0.2057 -0.6017 -1.0495
11325TIP3   OH255389   5.004   3.929  14.248  0.2622 -0.7456  0.3731
11325TIP3    H155390   4.947   3.942  14.173  0.7773 -0.2049  0.0730
11325TIP3    H255391   5.020   3.834  14.251 -0.8352 -0.9322  0.6064
11326TIP3   OH255392   1.124   5.767  16.303 -0.1532  0.5015 -0.4352
11326TIP3    H155393   1.035   5.786  16.331 -0.0891  0.0781  0.0990
11326TIP3    H255394   1.172   5.756  16.385 -0.0243 -1.1110 -0.6956
11327TIP3   OH255395   1.557   6.299  12.143 -0.3164  0.1537  0.0735
11327TIP3    H155396   1.539   6.339  12.228  0.7618  1.6783 -0.3703
11327TIP3    H255397   1.570   6.207  12.162 -3.0904 -0.1245  1.1318
11328TIP3   OH255398   3.679   0.520  16.247  0.7465  0.0075 -0.1690
11328TIP3    H155399   3.588   0.521  16.218  0.4025  1.9370  0.7887
11328TIP3    H255400   3.729   0.543  16.169  0.0437  2.5498  0.0172
11329TIP3   OH255401   6.191   2.192  16.489 -0.0701  0.1764  0.7112
11329TIP3    H155402   6.236   2.276  16.491 -0.4795  0.4055  0.4136
11329TIP3    H255403   6.227   2.147  16.412  0.5377 -0.1447  1.1737
11330TIP3   OH255404   3.094   3.433  12.700  0.2584 -0.1327 -0.1925
11330TIP3    H155405   3.097   3.341  12.727 -0.3344  0.4605  2.2128
11330TIP3    H255406   3.070   3.480  12.780  2.7846  2.3633 -0.7296
11331TIP3   OH255407   6.027   3.094   3.651 -0.1239 -0.2016  0.2769
11331TIP3    H155408   6.103   3.065   3.700 -0.7621 -0.4375  1.1417
11331TIP3    H255409   6.057   3.096   3.560  0.1139 -3.0709  0.2093
11332TIP3   OH255410   2.765   5.426  12.296 -0.2769  0.4126 -0.0664
11332TIP3    H155411   2.765   5.331  12.287 -0.9829  0.1802  1.9792
11332TIP3    H255412   2.714   5.443  12.375 -0.0204  2.4902 -0.2930
11333TIP3   OH255413   5.590   6.835  12.172  0.1987  0.1747  0.1505
11333TIP3    H155414   5.642   6.916  12.174  2.3942 -1.1738  0.7285
11333TIP3    H255415   5.654   6.765  12.159 -1.3674 -1.6833  1.7169
11334TIP3   OH255416   0.508   3.793   2.158  0.5116  0.0832 -0.2727
11334TIP3    H155417   0.469   3.808   2.244  0.6978  0.1343 -0.1982
11334TIP3    H255418   0.558   3.712   2.168  3.1330  1.6850  0.5589
11335TIP3   OH255419   5.883   3.514   0.044 -0.0566  0.0586  0.4814
11335TIP3    H155420   5.885   3.506   0.139 -0.3680  0.1102  0.4933
11335TIP3    H255421   5.796   3.550   0.025 -0.1480 -0.3419  0.1474
11336TIP3   OH255422   5.932   1.649   1.425  0.0418 -0.1008  0.3465
11336TIP3    H155423   5.893   1.622   1.341  0.5696 -0.6069  0.2588
11336TIP3    H255424   6.020   1.677   1.402  0.6480 -1.4671  0.9002
11337TIP3   OH255425   4.037   1.089  16.125  0.1280 -0.8525 -0.1990
11337TIP3    H155426   4.069   1.016  16.178  1.6511  0.3839  0.6865
11337TIP3    H255427   4.116   1.128  16.088 -0.7912 -0.7037 -2.1246
11338TIP3   OH255428   4.174   3.800   1.485 -0.5312 -0.2046  0.0960
11338TIP3    H155429   4.179   3.875   1.545  0.2963 -0.3869  0.2761
11338TIP3    H255430   4.120   3.831   1.412 -0.1358  0.5958  0.1263
11339TIP3   OH255431   0.605   2.986  12.166 -0.0181  0.5747  0.4156
11339TIP3    H155432   0.675   3.000  12.231 -0.2007  1.3994  0.4478
11339TIP3    H255433   0.541   3.055  12.185  1.1666  2.6327 -2.3203
11340TIP3   OH255434   4.962   0.660  16.196  0.0639 -0.5307  0.1219
11340TIP3    H155435   4.954   0.755  16.201  1.4892 -0.4127  0.4658
11340TIP3    H255436   4.955   0.640  16.102  2.6993  0.2568 -0.3332
11341TIP3   OH255437   5.734   5.039   4.041  0.9245 -0.5858 -0.5065
11341TIP3    H155438   5.755   5.020   4.132  0.8375  0.6048 -0.2261
11341TIP3    H255439   5.815   5.074   4.004  0.8000 -0.5274 -0.7257
11342TIP3   OH255440   2.293   2.534  10.617 -0.2225  0.3556  0.0510
11342TIP3    H155441   2.226   2.602  10.613  1.3699  2.0749  0.8367
11342TIP3    H255442   2.305   2.506  10.527 -0.9108  1.1201 -0.2892
11343TIP3   OH255443   2.650   0.945  11.074  0.4460 -0.1747  0.4585
11343TIP3    H155444   2.664   0.883  11.145  0.5232  0.8999  1.3993
11343TIP3    H255445   2.622   0.891  11.000 -1.7407 -1.1205  1.8941
11344TIP3   OH255446   0.062   0.777   0.979 -0.1946  0.0721 -0.1725
11344TIP3    H155447   0.008   0.700   0.960  0.9633 -0.5327 -1.1866
11344TIP3    H255448   0.053   0.790   1.073 -2.0617 -0.0177 -0.3072
11345TIP3   OH255449   6.083   3.500   2.615 -0.1934  0.1075  0.0957
11345TIP3    H155450   6.112   3.490   2.706 -0.1489  0.7301  0.1575
11345TIP3    H255451   6.129   3.579   2.584  1.7130 -1.4398 -1.2374
11346TIP3   OH255452   2.712   6.078  13.884  0.3140  0.1545 -0.3193
11346TIP3    H155453   2.756   6.024  13.819 -0.4497 -0.4454 -0.3508
11346TIP3    H255454   2.774   6.149  13.902  1.4585 -0.8860 -0.0500
11347TIP3   OH255455   3.209   2.534  11.889  0.5437  0.3598  0.3205
11347TIP3    H155456   3.278   2.496  11.836 -0.2445  0.5452 -0.8727
11347TIP3    H255457   3.239   2.523  11.979  1.0369 -1.7316 -0.0349
11348TIP3   OH255458   6.554   5.482  15.098 -0.0141 -0.2381  0.1458
11348TIP3    H155459   6.515   5.493  15.012  0.3686 -0.4655 -0.0624
11348TIP3    H255460   6.648   5.494  15.084  0.0443 -0.1992  0.5443
11349TIP3   OH255461   1.477   1.700   1.822  0.4206  0.9369 -0.3269
11349TIP3    H155462   1.472   1.611   1.858 -1.2370  0.8061 -0.8034
11349TIP3    H255463   1.429   1.754   1.884  0.1426  1.2284 -0.7902
11350TIP3   OH255464   6.023   4.679  12.646  0.9863  0.5164  0.6698
11350TIP3    H155465   5.987   4.660  12.732  0.6834  0.2715  0.4933
11350TIP3    H255466   6.100   4.623  12.639 -0.0158 -0.8623  0.0702
11351TIP3   OH255467   3.627   1.860   5.364  0.2550 -0.0813  0.1354
11351TIP3    H155468   3.594   1.809   5.439  0.5738  0.7851  0.8720
11351TIP3    H255469   3.696   1.805   5.327 -0.3892 -0.8454  0.0177
11352TIP3   OH255470   4.450   1.558  13.206  0.3512  0.2128 -0.1498
11352TIP3    H155471   4.392   1.494  13.165 -0.9835  1.7943 -0.8299
11352TIP3    H255472   4.419   1.565  13.296  1.7393 -1.4604  0.5221
11353TIP3   OH255473   0.270   4.676   0.181 -0.0661  0.4692 -0.0708
11353TIP3    H155474   0.186   4.675   0.227 -0.5820 -1.8268 -0.8995
11353TIP3    H255475   0.332   4.640   0.244 -0.3593 -0.7458 -0.4535
11354TIP3   OH255476   6.727   0.804  10.742 -0.0521 -0.3141 -0.1498
11354TIP3    H155477   6.765   0.838  10.823 -2.9587 -1.2969  1.7634
11354TIP3    H255478   6.742   0.709  10.746 -3.1307 -0.8758  1.1053
11355TIP3   OH255479   5.828   2.190   0.686  0.2809 -0.1250  0.3401
11355TIP3    H155480   5.732   2.197   0.677  0.2549 -0.9395 -0.0729
11355TIP3    H255481   5.848   2.099   0.665  1.3723  0.5221 -1.7712
11356TIP3   OH255482   0.229   3.627  16.894  0.1878 -0.1098 -0.1645
11356TIP3    H155483   0.249   3.632  16.987 -0.4654 -1.5808  0.0796
11356TIP3    H255484   0.182   3.708  16.875  2.1330  1.1859  0.2885
11357TIP3   OH255485   2.572   1.803   3.501 -0.4704 -0.1031 -0.2681
11357TIP3    H155486   2.659   1.822   3.535 -0.3837  1.2130 -1.1774
11357TIP3    H255487   2.582   1.721   3.452  0.1407 -0.1958  0.0093
11358TIP3   OH255488   0.330   1.530   6.230 -0.0339  0.2253 -0.5060
11358TIP3    H155489   0.394   1.526   6.301  0.5490  1.2254 -0.9425
11358TIP3    H255490   0.383   1.545   6.151 -0.8496  2.3541 -0.7171
11359TIP3   OH255491   1.191   1.331   5.975  0.4249 -0.1327  0.1278
11359TIP3    H155492   1.189   1.237   5.960  2.8879 -0.0758 -0.9569
11359TIP3    H255493   1.283   1.351   5.992 -0.1725  1.9648  1.3156
11360TIP3   OH255494   1.951   5.716  11.661 -0.0550 -0.9549  0.5353
11360TIP3    H155495   2.030   5.757  11.696 -0.4976  0.7836 -0.3727
11360TIP3    H255496   1.906   5.681  11.738  0.1848  0.6083  1.4250
11361TIP3   OH255497   3.995   2.475   4.467  0.2163 -0.1545 -0.5117
11361TIP3    H155498   4.061   2.544   4.461  0.5229 -0.4294 -0.2910
11361TIP3    H255499   4.004   2.427   4.385 -0.2163  0.2569 -0.8095
11362TIP3   OH255500   1.852   5.624  12.923  0.0546 -1.1000 -0.5312
11362TIP3    H155501   1.883   5.626  12.832  3.3647 -0.1590  0.4547
11362TIP3    H255502   1.799   5.544  12.928  0.0777 -1.3892 -3.1687
11363TIP3   OH255503   1.377   0.855   3.275 -0.3085 -0.0500 -0.3319
11363TIP3    H155504   1.363   0.768   3.237 -0.2577 -0.1153 -0.2005
11363TIP3    H255505   1.411   0.838   3.363  2.1829  0.0692 -1.1739
11364TIP3   OH255506   5.922   3.256  13.730  0.8586  0.5687  0.4631
11364TIP3    H155507   5.827   3.259  13.740  0.8375  1.0202  0.1562
11364TIP3    H255508   5.953   3.208  13.806  0.3668  0.2527  0.4647
11365TIP3   OH255509   6.348   5.547   5.901 -0.5004  0.2335 -1.0288
11365TIP3    H155510   6.423   5.607   5.893 -1.6611  2.0595  0.8009
11365TIP3    H255511   6.311   5.543   5.813 -0.2792  2.1352 -1.2504
11366TIP3   OH255512   4.081   0.969   4.456  0.1161  0.3798 -0.0802
11366TIP3    H155513   4.089   0.975   4.551  0.8428  0.3390 -0.1368
11366TIP3    H255514   4.031   0.889   4.441 -1.1437  1.0658  0.3073
11367TIP3   OH255515   4.269   5.569   2.189  0.5362  0.0258  0.4629
11367TIP3    H155516   4.276   5.619   2.107  0.4807 -0.9262 -0.1350
11367TIP3    H255517   4.251   5.635   2.256 -1.2980  0.6250 -0.5644
11368TIP3   OH255518   1.869   6.325  12.406 -0.5826  1.1914 -0.4749
11368TIP3    H155519   1.822   6.340  12.488 -0.6647 -0.1128 -0.2611
11368TIP3    H255520   1.823   6.252  12.365  0.5051  0.6902 -0.8458
11369TIP3   OH255521   1.160   4.644   2.623  0.4029 -0.3429 -0.1534
11369TIP3    H155522   1.154   4.593   2.704 -0.9400 -1.1328 -0.7157
11369TIP3    H255523   1.173   4.734   2.653  0.8725 -0.7363  0.9086
11370TIP3   OH255524   0.617   4.499   2.234 -0.0562  0.1421  0.1632
11370TIP3    H155525   0.576   4.552   2.166  1.2856 -0.9749 -1.5944
11370TIP3    H255526   0.656   4.564   2.293 -2.0724  1.1466  0.4713
11371TIP3   OH255527   3.118   2.565  11.224  0.1675  0.5513 -0.3484
11371TIP3    H155528   3.024   2.582  11.230  0.1860  0.5075  0.1550
11371TIP3    H255529   3.157   2.625  11.287  0.3656 -0.2331  0.2940
11372TIP3   OH255530   6.744   2.019  16.973 -0.3764  0.0439  0.3902
11372TIP3    H155531   6.670   2.048  17.026 -1.2658 -0.2544 -0.6441
11372TIP3    H255532   6.821   2.056  17.017 -1.2367  1.5635  0.7106
11373TIP3   OH255533   0.603   3.338  12.157  0.0554 -0.4931 -0.7192
11373TIP3    H155534   0.691   3.315  12.184 -0.8197 -0.3709  2.6537
11373TIP3    H255535   0.546   3.283  12.211 -1.9352  1.9954 -0.1171
11374TIP3   OH255536   0.105   5.452  12.392 -0.2217  0.0369 -0.3785
11374TIP3    H155537   0.170   5.432  12.459 -0.6669 -0.4993 -0.0995
11374TIP3    H255538   0.065   5.368  12.371 -3.7177  0.7178  2.4663
11375TIP3   OH255539   6.796   3.436  14.570  0.7809  0.2517  0.1228
11375TIP3    H155540   6.752   3.448  14.655  1.5172 -0.1935  0.5777
11375TIP3    H255541   6.825   3.345  14.571  2.5472  0.7762  0.2524
11376TIP3   OH255542   5.331   4.290  11.909 -0.3508 -0.1316 -0.6344
11376TIP3    H155543   5.381   4.328  11.837  0.6999 -0.7219 -0.2397
11376TIP3    H255544   5.341   4.351  11.981 -1.2302  0.3553 -0.9103
11377TIP3   OH255545   3.604   1.037  15.084 -0.5575 -0.4185  0.0954
11377TIP3    H155546   3.567   1.006  15.167 -1.3118 -0.7207 -0.3404
11377TIP3    H255547   3.681   1.087  15.109 -0.7834 -0.5005  0.9833
11378TIP3   OH255548   1.465   1.789   0.160  0.7290 -0.4385 -0.0345
11378TIP3    H155549   1.383   1.806   0.206  1.1833  0.9582  0.3182
11378TIP3    H255550   1.445   1.810   0.069  0.7077 -0.0236  0.0627
11379TIP3   OH255551   3.760   3.036  11.917 -0.1562 -0.2116  0.2793
11379TIP3    H155552   3.671   3.044  11.951 -0.1462  1.3791  0.0154
11379TIP3    H255553   3.813   3.092  11.975  0.7478 -1.3704  0.6185
11380TIP3   OH255554   0.711   2.863   3.565 -0.0751  0.0403 -0.1389
11380TIP3    H155555   0.737   2.938   3.619  1.4245 -0.5464 -0.0028
11380TIP3    H255556   0.642   2.820   3.615 -0.0899  0.6295  0.3615
11381TIP3   OH255557   1.646   4.719  11.561  0.0968 -0.5270  0.0879
11381TIP3    H155558   1.598   4.750  11.638  0.6429  1.0488 -0.1634
11381TIP3    H255559   1.635   4.789  11.497  0.7146 -1.2430 -0.8213
11382TIP3   OH255560   0.721   1.887   4.427 -0.7559 -0.4055 -0.4528
11382TIP3    H155561   0.698   1.960   4.484  3.0613  0.0519  0.7878
11382TIP3    H255562   0.779   1.926   4.362  1.0216 -2.1908 -0.0112
11383TIP3   OH255563   5.139   6.739   1.399 -0.3288 -0.2788 -0.0863
11383TIP3    H155564   5.056   6.786   1.402  0.9113  2.0058  0.6634
11383TIP3    H255565   5.175   6.760   1.312  0.0039 -0.2409  0.0579
11384TIP3   OH255566   0.626   0.382   2.309 -0.2414  0.1534  0.4417
11384TIP3    H155567   0.695   0.448   2.302 -2.1935  2.1767 -0.9266
11384TIP3    H255568   0.583   0.383   2.224 -2.1645 -0.7910  1.3555
11385TIP3   OH255569   0.281   2.198  12.093  0.2554 -0.1662 -0.1788
11385TIP3    H155570   0.223   2.191  12.169  0.5803 -0.0230  0.0842
11385TIP3    H255571   0.273   2.290  12.066  3.0165  0.8914  2.0205
11386TIP3   OH255572   1.286   4.911  10.561  0.6849 -0.5235 -0.0122
11386TIP3    H155573   1.335   4.958  10.493 -0.6519 -0.7560 -1.1791
11386TIP3    H255574   1.197   4.944  10.554  0.4718 -0.7062  1.5204
11387TIP3   OH255575   0.418   6.280  11.433  0.4577  0.0158  0.4054
11387TIP3    H155576   0.460   6.361  11.404  0.6617 -0.1593  0.2165
11387TIP3    H255577   0.324   6.297  11.423  0.5306 -0.0955 -0.4822
11388TIP3   OH255578   2.041   2.296   5.776  0.0100  0.6069 -0.1822
11388TIP3    H155579   2.047   2.380   5.822 -0.1521  0.1545  0.6784
11388TIP3    H255580   2.030   2.231   5.845 -0.8495 -0.0326 -0.9024
11389TIP3   OH255581   6.601   2.197   5.497  0.5863 -0.1084  0.9492
11389TIP3    H155582   6.581   2.151   5.578 -3.7192  2.7393  1.8538
11389TIP3    H255583   6.639   2.281   5.525 -2.1811  1.4824  0.3502
11390TIP3   OH255584   4.524   2.608  16.821 -0.3559  0.1037 -0.2396
11390TIP3    H155585   4.451   2.577  16.875 -0.2641 -1.4263 -0.9484
11390TIP3    H255586   4.569   2.528  16.794  0.0764  0.8841 -1.9179
11391TIP3   OH255587   0.538   0.337   3.756  0.6808  0.3206  0.2560
11391TIP3    H155588   0.493   0.388   3.689  2.1769 -0.0485 -1.0993
11391TIP3    H255589   0.519   0.246   3.735 -0.4822  0.2240  1.5776
11392TIP3   OH255590   0.503   0.586  13.455  0.3327 -0.5738 -0.2757
11392TIP3    H155591   0.514   0.680  13.464  0.6618 -0.7093  1.1171
11392TIP3    H255592   0.509   0.569  13.361 -1.6355  0.9972 -0.7489
11393TIP3   OH255593   0.089   4.511  13.919  0.3641 -0.0430  0.0527
11393TIP3    H155594   0.135   4.429  13.932  1.7135  0.5425 -0.8342
11393TIP3    H255595   0.018   4.490  13.858 -0.9678 -1.0691  1.8650
11394TIP3   OH255596   3.569   2.429  14.374 -0.5646  0.7201 -0.3739
11394TIP3    H155597   3.584   2.408  14.466 -0.4606 -0.1217 -0.5714
11394TIP3    H255598   3.566   2.525  14.371 -0.2474  0.7643  0.4502
11395TIP3   OH255599   4.120   2.338   0.849  0.0840  0.3270 -0.2202
11395TIP3    H155600   4.128   2.430   0.877  0.1201 -0.1163  1.3164
11395TIP3    H255601   4.043   2.338   0.792 -0.5509  1.1473  0.5922
11396TIP3   OH255602   4.239   2.289   3.164 -0.8238  0.2810 -0.0082
11396TIP3    H155603   4.181   2.273   3.090  0.0286 -0.5172 -0.5279
11396TIP3    H255604   4.288   2.207   3.174  1.2179  1.3671 -0.5092
11397TIP3   OH255605   2.330   2.306  13.016  0.2462  0.3251 -0.2140
11397TIP3    H155606   2.324   2.290  13.110  1.3064  1.4896  0.0819
11397TIP3    H255607   2.240   2.317  12.987 -0.0622  0.3594  0.7447
11398TIP3   OH255608   0.555   4.257   3.707  0.1596 -0.2013 -0.6808
11398TIP3    H155609   0.612   4.333   3.714  1.0216 -0.8631 -0.3821
11398TIP3    H255610   0.471   4.287   3.744 -0.3594  1.3840 -2.9142
11399TIP3   OH255611   4.257   2.827   4.088  0.3718  0.2575 -0.8155
11399TIP3    H155612   4.198   2.902   4.099  0.6162  0.2198  0.9485
11399TIP3    H255613   4.211   2.754   4.130  1.0959 -0.0740 -0.5844
11400TIP3   OH255614   2.064   1.998  16.241 -0.1450  0.1350 -0.1704
11400TIP3    H155615   1.980   2.039  16.262 -0.5794 -2.3101  3.7686
11400TIP3    H255616   2.128   2.067  16.257 -1.1523  0.8460  0.9577
11401TIP3   OH255617   3.511   0.848  14.277 -0.2150 -0.3027  0.0169
11401TIP3    H155618   3.518   0.889  14.191 -0.8546  0.9343  0.5265
11401TIP3    H255619   3.523   0.754  14.261 -2.6678 -0.3846 -1.7590
11402TIP3   OH255620   0.740   0.388  12.716 -0.5046 -0.1328  0.3107
11402TIP3    H155621   0.827   0.426  12.717 -0.3895 -0.3695 -0.3811
11402TIP3    H255622   0.743   0.322  12.647 -0.9523 -0.8026  0.9103
11403TIP3   OH255623   0.234   3.771   2.028  0.1464 -0.2128  0.4623
11403TIP3    H155624   0.321   3.800   2.057 -0.0770  0.7381  0.2118
11403TIP3    H255625   0.179   3.849   2.036  0.1983  0.3563 -3.1066
11404TIP3   OH255626   4.529   3.217   4.525  0.0157 -0.6822  0.6899
11404TIP3    H155627   4.584   3.294   4.541 -0.3701 -0.0704 -0.7592
11404TIP3    H255628   4.448   3.236   4.571 -0.9919  0.9382 -1.5567
11405TIP3   OH255629   1.598   4.673   2.752  0.4094 -0.0995  0.5089
11405TIP3    H155630   1.530   4.698   2.690  0.2267  0.8542  1.0631
11405TIP3    H255631   1.615   4.753   2.802  1.6516 -0.4308  0.6522
11406TIP3   OH255632   5.391   1.210  15.720  0.0174 -0.0391 -0.0022
11406TIP3    H155633   5.364   1.118  15.725  0.0997 -0.1804 -1.7139
11406TIP3    H255634   5.430   1.228  15.806 -1.7358 -1.0259  1.0651
11407TIP3   OH255635   6.052   4.907  12.547 -0.3303 -0.2196 -0.1931
11407TIP3    H155636   6.020   4.951  12.626  1.4897 -0.9738  1.0266
11407TIP3    H255637   6.048   4.814  12.568  0.6503 -0.4038 -0.7898
11408TIP3   OH255638   6.577   6.223  12.519  0.2511 -0.5531  0.0909
11408TIP3    H155639   6.564   6.300  12.576 -1.9752 -1.2889  0.6856
11408TIP3    H255640   6.620   6.258  12.441  0.3258  1.0862  0.8177
11409TIP3   OH255641   3.426   5.441  15.622 -0.3764 -0.0667 -0.7112
11409TIP3    H155642   3.473   5.524  15.617  0.1553 -0.3072  0.0322
11409TIP3    H255643   3.334   5.464  15.611 -0.1281  0.4578 -1.7909
11410TIP3   OH255644   0.658   6.338   4.411 -0.6391  0.0512  0.7171
11410TIP3    H155645   0.723   6.368   4.474 -0.0733 -0.6565  0.4951
11410TIP3    H255646   0.661   6.402   4.340  0.6606 -0.5815  0.1736
11411TIP3   OH255647   3.447   2.655   4.130  0.0363  0.6387 -0.2760
11411TIP3    H155648   3.406   2.708   4.061 -2.2216 -0.3574  0.1691
11411TIP3    H255649   3.391   2.668   4.207  1.9073  0.9162  1.0840
11412TIP3   OH255650   2.713   5.114   0.163  0.0045  0.7315  0.5871
11412TIP3    H155651   2.763   5.077   0.090 -0.4028 -1.1674  1.2293
11412TIP3    H255652   2.705   5.207   0.141 -1.7402 -0.0354 -2.8028
11413TIP3   OH255653   2.024   0.921   0.054 -0.3181  0.3138 -0.0962
11413TIP3    H155654   2.070   0.889   0.131  0.2520  0.5053 -0.3551
11413TIP3    H255655   1.942   0.957   0.088 -0.6792 -0.8167  0.2713
11414TIP3   OH255656   3.504   2.907  16.652  0.6606 -0.1294 -1.0095
11414TIP3    H155657   3.592   2.896  16.615  0.1637 -0.3990 -2.1603
11414TIP3    H255658   3.452   2.840  16.608  0.1805 -0.9559  0.7487
11415TIP3   OH255659   4.703   2.459  10.995 -0.2295  0.1952 -0.0158
11415TIP3    H155660   4.787   2.502  11.008 -0.6976  0.6809  1.6541
11415TIP3    H255661   4.659   2.513  10.929 -0.3306  1.6266  1.1718
11416TIP3   OH255662   2.521   3.939   2.124  0.5470  0.0366  0.2146
11416TIP3    H155663   2.469   3.892   2.060 -1.7220  3.7510 -1.0147
11416TIP3    H255664   2.596   3.973   2.075  1.3047 -0.9028  0.6979
11417TIP3   OH255665   2.194   1.537  12.137 -0.0584 -0.1473 -0.1696
11417TIP3    H155666   2.205   1.584  12.054  1.6150 -0.4673 -0.1656
11417TIP3    H255667   2.172   1.605  12.200 -0.8783  0.1633 -0.7639
11418TIP3   OH255668   5.488   1.172   0.729 -0.6142  0.7401 -0.5263
11418TIP3    H155669   5.434   1.109   0.682  0.6525 -0.5997 -0.2502
11418TIP3    H255670   5.518   1.233   0.661 -1.2131  0.5900 -0.9278
11419TIP3   OH255671   2.260   4.369  16.926 -0.1247 -0.1700  0.1012
11419TIP3    H155672   2.217   4.347  17.009 -1.8423 -0.0812 -0.7289
11419TIP3    H255673   2.338   4.419  16.952 -1.5513  1.4066  1.6307
11420TIP3   OH255674   3.577   2.455  11.298 -0.4854 -0.1511  0.0320
11420TIP3    H155675   3.591   2.530  11.355  0.9801 -0.4333  0.0862
11420TIP3    H255676   3.661   2.443  11.253 -0.8779 -1.3811 -0.4172
11421TIP3   OH255677   3.385   0.694   1.799  0.5162  0.0920  0.0634
11421TIP3    H155678   3.437   0.703   1.879 -0.1792 -0.5431  0.5963
11421TIP3    H255679   3.299   0.729   1.822  0.1667 -0.5445 -0.2604
11422TIP3   OH255680   2.532   3.405   3.074 -0.9491  0.3079  0.6384
11422TIP3    H155681   2.480   3.420   2.995 -0.4366  1.1963  0.4549
11422TIP3    H255682   2.588   3.482   3.081  1.1006 -1.0643  0.2398
11423TIP3   OH255683   1.047   2.146   2.921 -0.2556  0.9790 -0.7187
11423TIP3    H155684   1.011   2.185   3.000  0.2045 -0.3585  0.1772
11423TIP3    H255685   0.978   2.087   2.890  0.7784 -0.9249  0.5085
11424TIP3   OH255686   3.500   6.038   0.138  0.4637  0.2942  0.2320
11424TIP3    H155687   3.595   6.031   0.131  0.5957  2.3605 -0.9295
11424TIP3    H255688   3.479   6.124   0.101 -1.9820 -0.6155 -0.7525
11425TIP3   OH255689   3.812   0.971   2.904  0.9102 -0.2205 -0.0953
11425TIP3    H155690   3.755   0.990   2.978  0.8444 -1.4984  0.2099
11425TIP3    H255691   3.883   1.035   2.911  0.2583  0.4719  0.3403
11426TIP3   OH255692   2.273   0.438   4.178 -0.3430  0.4208 -0.1578
11426TIP3    H155693   2.247   0.346   4.179  3.0958 -0.7602 -1.9913
11426TIP3    H255694   2.193   0.486   4.202 -3.1262 -2.8082 -2.0754
11427TIP3   OH255695   0.772   5.665  13.591 -0.2941  0.0083 -0.0727
11427TIP3    H155696   0.849   5.706  13.550  1.6647 -1.3575  1.9728
11427TIP3    H255697   0.753   5.589  13.536  0.2259  0.0103 -0.2673
11428TIP3   OH255698   1.050   3.964   5.530 -0.4013  0.3343  0.1052
11428TIP3    H155699   1.061   3.984   5.623 -0.0210 -0.3513  0.2168
11428TIP3    H255700   1.139   3.942   5.500 -0.7147 -0.6502 -0.1253
11429TIP3   OH255701   6.420   0.465  12.801 -0.6051 -0.2199 -0.5304
11429TIP3    H155702   6.325   0.469  12.794 -0.8035 -0.7555  1.3623
11429TIP3    H255703   6.439   0.372  12.812  0.1581 -0.1220 -0.9491
11430TIP3   OH255704   2.476   3.400  16.142  0.2981 -0.0834  0.8860
11430TIP3    H155705   2.520   3.330  16.094 -0.7681  0.9443 -1.8110
11430TIP3    H255706   2.511   3.481  16.104 -0.5658  0.7920  1.9049
11431TIP3   OH255707   2.181   4.414   1.680  0.1257  0.4581 -0.1196
11431TIP3    H155708   2.162   4.349   1.613  0.6619 -0.4713  0.6030
11431TIP3    H255709   2.263   4.384   1.720  0.1916  1.3802  0.4774
11432TIP3   OH255710   2.553   4.951  16.155 -0.2431  0.0086 -0.0614
11432TIP3    H155711   2.601   4.933  16.235  0.9432  0.1719 -0.7134
11432TIP3    H255712   2.519   4.865  16.127  0.1569 -0.2030  0.1001
11433TIP3   OH255713   4.508   1.801  13.109  0.1135  0.3782 -0.0517
11433TIP3    H155714   4.501   1.730  13.173 -2.0092  0.9479  0.4290
11433TIP3    H255715   4.485   1.760  13.026  3.6808 -0.5644 -0.7616
11434TIP3   OH255716   5.237   6.193  15.134 -0.0497 -0.2118 -0.1774
11434TIP3    H155717   5.221   6.249  15.210 -1.9772  0.8293 -1.2568
11434TIP3    H255718   5.289   6.248  15.075 -0.9279  0.0331 -0.7415
11435TIP3   OH255719   0.855   6.110  11.957  0.0143  0.0391  0.3702
11435TIP3    H155720   0.782   6.095  11.896  0.2563  0.1292  0.0565
11435TIP3    H255721   0.896   6.024  11.968  0.1159  0.0680  0.2186
11436TIP3   OH255722   2.274   0.021   4.001 -0.3130  0.4410  0.0324
11436TIP3    H155723   2.288   0.109   3.966  0.3870 -0.1001 -1.1299
11436TIP3    H255724   2.184   0.021   4.032  0.0143  1.8978  1.0875
11437TIP3   OH255725   3.971   4.392   5.772  0.4814  0.6621 -0.2123
11437TIP3    H155726   3.896   4.443   5.743  0.3722 -0.4134 -1.9498
11437TIP3    H255727   4.038   4.406   5.705  1.4282  0.6760  0.7103
11438TIP3   OH255728   4.449   3.233  11.707  0.1116 -0.1479  0.0172
11438TIP3    H155729   4.536   3.240  11.746  0.4900 -0.9203 -0.6467
11438TIP3    H255730   4.465   3.199  11.619 -0.8120  0.3647 -0.3634
11439TIP3   OH255731   1.963   0.856   2.448 -0.1913  0.3910 -0.1824
11439TIP3    H155732   1.936   0.854   2.357  1.7119  0.4973 -0.7963
11439TIP3    H255733   1.953   0.948   2.474 -1.5335  0.2156  0.0187
11440TIP3   OH255734   3.610   6.817   5.041 -0.1549  0.3080 -0.4263
11440TIP3    H155735   3.670   6.744   5.059  0.5786  1.3972  1.9661
11440TIP3    H255736   3.652   6.893   5.080 -2.8576  1.2156  0.9729
11441TIP3   OH255737   4.862   5.225  13.889 -0.2814 -0.0777  0.0023
11441TIP3    H155738   4.897   5.261  13.807 -0.9701  0.3329 -0.1231
11441TIP3    H255739   4.839   5.135  13.867  1.2440 -0.5486  0.2559
11442TIP3   OH255740   4.389   4.103  15.421  0.5228  0.1241 -0.4110
11442TIP3    H155741   4.356   4.014  15.433 -0.7520  0.5148 -0.8604
11442TIP3    H255742   4.389   4.117  15.327  1.2288  0.4223 -0.3718
11443TIP3   OH255743   2.282   3.360   5.802  0.1097 -0.1678 -0.5732
11443TIP3    H155744   2.219   3.294   5.830  1.2948 -0.6771  1.0338
11443TIP3    H255745   2.244   3.443   5.830 -0.7643 -0.2476 -1.4364
11444TIP3   OH255746   3.956   4.859  16.650  0.9955 -0.3890 -0.0132
11444TIP3    H155747   3.963   4.951  16.622 -0.9168 -0.9287 -2.6059
11444TIP3    H255748   3.982   4.809  16.573  2.4697 -2.1193  1.4994
11445TIP3   OH255749   3.363   0.918  11.331  0.0780  0.2370 -0.2640
11445TIP3    H155750   3.377   0.968  11.411 -0.0733 -0.1589  0.0104
11445TIP3    H255751   3.449   0.885  11.307  0.0611  0.0428 -0.0575
11446TIP3   OH255752   3.603   0.288  15.241 -0.8869 -0.6101 -0.4386
11446TIP3    H155753   3.573   0.365  15.192 -0.5808 -1.1547 -1.5308
11446TIP3    H255754   3.698   0.293  15.239 -0.8506 -1.2271 -0.9152
11447TIP3   OH255755   4.880   0.557   1.924  0.2345  0.1250  0.3947
11447TIP3    H155756   4.905   0.514   2.005  0.3119 -0.7008 -0.0503
11447TIP3    H255757   4.947   0.623   1.909  1.6068 -1.3550 -0.2472
11448TIP3   OH255758   4.513   4.975  16.113  0.7107 -0.8105 -0.4441
11448TIP3    H155759   4.443   4.986  16.049  0.4212 -1.9360 -0.3489
11448TIP3    H255760   4.468   4.944  16.192  0.9332  1.4747  0.6560
11449TIP3   OH255761   0.400   5.373   2.358 -0.3173 -0.4630 -0.2061
11449TIP3    H155762   0.393   5.446   2.296  2.1730  0.7155  0.7569
11449TIP3    H255763   0.482   5.330   2.337 -0.3413 -1.2149  1.0725
11450TIP3   OH255764   2.896   3.048   3.124 -0.3380 -0.5311  0.7049
11450TIP3    H155765   2.847   3.129   3.136 -0.6293 -0.7298  0.8802
11450TIP3    H255766   2.844   2.982   3.169 -0.2593 -0.8687  0.3055
11451TIP3   OH255767   0.047   4.684   4.689 -0.6681 -0.0766 -0.8291
11451TIP3    H155768   0.046   4.593   4.659  0.0392 -0.1212 -0.7449
11451TIP3    H255769   0.018   4.680   4.780 -2.3106 -0.0036 -1.3316
11452TIP3   OH255770   3.080   3.414  14.008  0.7094  0.0772 -0.1391
11452TIP3    H155771   3.153   3.409  14.069 -0.4263 -1.2164  1.1969
11452TIP3    H255772   3.099   3.347  13.942  0.2537 -1.0206  0.8052
11453TIP3   OH255773   5.448   4.779   0.347  0.4023  0.5008 -0.3630
11453TIP3    H155774   5.483   4.718   0.412 -0.3816  1.1341  0.6866
11453TIP3    H255775   5.427   4.724   0.271  0.4603 -0.4033  0.2615
11454TIP3   OH255776   3.862   3.873   4.347  0.2359  0.6788  0.1278
11454TIP3    H155777   3.788   3.811   4.349 -0.1874  1.0387 -1.8259
11454TIP3    H255778   3.938   3.818   4.329 -0.0709  0.6257 -1.1303
11455TIP3   OH255779   4.764   6.518   5.900 -0.2287 -0.6617  0.3196
11455TIP3    H155780   4.681   6.501   5.945  0.4248 -1.7501  1.1494
11455TIP3    H255781   4.830   6.519   5.969  0.3852  0.9416 -0.2380
11456TIP3   OH255782   4.420   0.032   3.270  0.2868 -0.1167 -0.0448
11456TIP3    H155783   4.458  -0.056   3.268  1.1799  0.2763 -1.0080
11456TIP3    H255784   4.358   0.032   3.196 -1.4488 -0.6557  1.3270
11457TIP3   OH255785   0.284   5.234   5.623  0.2123  0.3098 -0.0737
11457TIP3    H155786   0.354   5.181   5.585  0.6226  0.8314 -0.0584
11457TIP3    H255787   0.207   5.215   5.568  0.4812  0.0770 -0.3733
11458TIP3   OH255788   3.881   4.900  12.831  0.2307  0.5323  0.2142
11458TIP3    H155789   3.888   4.845  12.753 -0.1484  0.8318 -0.0340
11458TIP3    H255790   3.907   4.843  12.903  0.5299  0.2395 -0.1265
11459TIP3   OH255791   2.987   3.159  12.387 -0.0638 -0.3318  0.6080
11459TIP3    H155792   3.042   3.140  12.311 -1.5627 -0.6616 -0.4378
11459TIP3    H255793   2.958   3.249  12.374 -0.0187 -0.2580  0.9954
11460TIP3   OH255794   5.774   0.743   4.413 -0.5856  0.0784 -0.9187
11460TIP3    H155795   5.820   0.803   4.353 -1.8624  1.0452 -0.9898
11460TIP3    H255796   5.768   0.792   4.495  2.5964 -1.8475  0.6584
11461TIP3   OH255797   0.193   3.155  12.317  0.2911  0.8050  0.3543
11461TIP3    H155798   0.130   3.113  12.377  0.5523  0.4482  0.3808
11461TIP3    H255799   0.182   3.249  12.333 -0.5183  0.7688  0.0787
11462TIP3   OH255800   4.619   1.450   1.144 -0.5226 -0.2321 -0.2922
11462TIP3    H155801   4.604   1.519   1.079 -0.3653  0.3236  0.2461
11462TIP3    H255802   4.533   1.410   1.156 -0.7672  0.3388 -0.0972
11463TIP3   OH255803   4.474   6.088   0.497  0.3860  0.4386  0.3474
11463TIP3    H155804   4.453   6.150   0.427  1.7970 -0.3222 -0.7957
11463TIP3    H255805   4.443   6.004   0.464 -0.9778  0.4019  1.6363
11464TIP3   OH255806   5.151   2.229   0.038  0.2218  0.5041 -0.4251
11464TIP3    H155807   5.239   2.192   0.026 -0.0361 -1.0743  1.9103
11464TIP3    H255808   5.094   2.174  -0.016  0.3413 -0.0972  0.0551
11465TIP3   OH255809   3.642   3.854   0.161 -0.0867  0.4628 -0.5916
11465TIP3    H155810   3.657   3.788   0.094 -0.5766 -1.6848  1.3064
11465TIP3    H255811   3.691   3.824   0.237 -0.1135  2.4536  0.2820
11466TIP3   OH255812   4.518   1.635   0.094  0.2230 -0.4387 -0.0085
11466TIP3    H155813   4.507   1.583   0.174  0.3138 -0.9259 -0.3141
11466TIP3    H255814   4.430   1.640   0.057  0.2840 -0.7265 -0.1963
11467TIP3   OH255815   2.329   3.851   3.925 -0.1267 -0.3964  0.0350
11467TIP3    H155816   2.416   3.853   3.887  0.4507  1.0352  1.3554
11467TIP3    H255817   2.300   3.942   3.925 -1.3076 -0.7446  0.3577
11468TIP3   OH255818   0.962   1.673  10.006  0.1665 -0.4004 -0.1075
11468TIP3    H155819   0.910   1.739  10.052  2.4890  0.8821  0.8361
11468TIP3    H255820   1.041   1.663  10.058  1.0422 -2.0655 -1.6190
11469TIP3   OH255821   5.459   6.760   0.031  0.6486  0.4487 -0.3273
11469TIP3    H155822   5.485   6.709   0.108  2.1683  0.5089 -0.7599
11469TIP3    H255823   5.538   6.808   0.006 -0.1411  1.3285 -1.2448
11470TIP3   OH255824   1.721   2.727  14.636 -0.9147  0.0014  0.5589
11470TIP3    H155825   1.651   2.696  14.578  1.9456 -0.8290 -2.7904
11470TIP3    H255826   1.761   2.800  14.590  2.0660 -1.2239  0.9215
11471TIP3   OH255827   2.347   1.910  13.001 -0.4822 -0.5515 -0.0289
11471TIP3    H155828   2.375   1.883  12.913  0.9521  0.3933  0.1229
11471TIP3    H255829   2.359   1.831  13.055 -1.7389 -1.2525 -0.7318
11472TIP3   OH255830   5.747   5.979  16.621  0.2082  0.5710  0.1322
11472TIP3    H155831   5.668   6.032  16.632  0.3687  0.6129  1.2421
11472TIP3    H255832   5.817   6.033  16.658  0.7206  0.4491 -0.6566
11473TIP3   OH255833   5.144   5.535  11.769  0.4877 -0.5983 -0.0831
11473TIP3    H155834   5.158   5.630  11.776  1.2334 -0.6230 -1.0098
11473TIP3    H255835   5.232   5.498  11.768  0.1953 -1.3175  0.4056
11474TIP3   OH255836   5.695   0.221   4.529 -0.0162 -0.3972 -0.8832
11474TIP3    H155837   5.764   0.202   4.592  0.7744 -2.1142 -2.1793
11474TIP3    H255838   5.703   0.152   4.463 -1.2323  0.9130 -2.5021
11475TIP3   OH255839   0.447   1.531   4.026  0.6057  0.0125  0.0108
11475TIP3    H155840   0.364   1.533   3.978 -0.3729  1.4756  1.6247
11475TIP3    H255841   0.499   1.464   3.982 -1.0223 -0.2017 -1.7126
11476TIP3   OH255842   2.626   6.320  11.939 -0.4907 -0.3916  0.3163
11476TIP3    H155843   2.584   6.406  11.929 -1.1578 -0.5709  1.4214
11476TIP3    H255844   2.685   6.331  12.013  0.2703 -0.5888 -0.2438
11477TIP3   OH255845   4.999   1.801   4.496  0.0465  0.2696 -0.2451
11477TIP3    H155846   5.094   1.812   4.490  0.1985 -0.4607  0.5862
11477TIP3    H255847   4.965   1.891   4.499  0.7843  0.5473  0.3181
11478TIP3   OH255848   0.945   3.218  15.344 -0.4606 -0.4387 -0.4104
11478TIP3    H155849   0.924   3.303  15.306 -0.0309  0.2647  0.8485
11478TIP3    H255850   0.879   3.206  15.413  0.5097 -0.2816  0.5863
11479TIP3   OH255851   6.452   1.881  10.981  0.2576  0.1387 -0.0171
11479TIP3    H155852   6.373   1.913  11.025  0.6795  0.2449  0.6751
11479TIP3    H255853   6.450   1.923  10.895 -2.5666 -2.9072 -1.6813
11480TIP3   OH255854   3.999   4.112   2.307  0.2213  0.3092 -0.0560
11480TIP3    H155855   4.089   4.139   2.325  1.0854 -1.6570 -1.0780
11480TIP3    H255856   3.949   4.144   2.382  2.0223  0.2654  1.2257
11481TIP3   OH255857   3.352   1.347  13.155 -0.3221  0.1025  0.0495
11481TIP3    H155858   3.440   1.356  13.120 -0.7717 -1.2817 -1.5665
11481TIP3    H255859   3.310   1.431  13.138  0.3066  0.3473 -0.3129
11482TIP3   OH255860   6.143   2.477   5.405 -0.2933 -0.1867  0.1609
11482TIP3    H155861   6.112   2.394   5.442  0.6183 -1.4726 -1.7749
11482TIP3    H255862   6.237   2.476   5.421 -0.3452  0.7463  0.5663
11483TIP3   OH255863   0.245   2.079  11.852  0.5037  0.4731 -0.0618
11483TIP3    H155864   0.274   2.101  11.941  1.2437  1.4356 -0.5262
11483TIP3    H255865   0.156   2.115  11.846  0.5290  0.5835  0.2193
11484TIP3   OH255866   2.552   5.701   1.974 -0.1878 -0.0751 -0.0897
11484TIP3    H155867   2.555   5.632   2.040  1.9507  1.0374  1.0684
11484TIP3    H255868   2.507   5.774   2.017 -1.9924 -0.5129 -1.1369
11485TIP3   OH255869   4.095   0.704  14.912 -0.3619 -0.6933  0.6835
11485TIP3    H155870   4.090   0.771  14.980  0.5246 -1.8073  1.8885
11485TIP3    H255871   4.170   0.731  14.858 -0.0638 -0.6628  1.1062
11486TIP3   OH255872   0.030   2.170   6.073  0.2902  0.2675  0.2721
11486TIP3    H155873   0.112   2.195   6.031  0.0548  1.6405  0.5903
11486TIP3    H255874   0.045   2.185   6.166 -0.1128 -0.0910  0.3974
11487TIP3   OH255875   3.586   0.032  16.310  0.3199 -0.0776  0.5671
11487TIP3    H155876   3.510   0.022  16.252  0.0073 -0.8177  1.0799
11487TIP3    H255877   3.658   0.053  16.252 -0.2315  0.3953  0.0400
11488TIP3   OH255878   0.859   2.740   4.325 -0.4138 -0.0167  0.7961
11488TIP3    H155879   0.887   2.690   4.401 -0.9740 -3.2380 -0.9373
11488TIP3    H255880   0.778   2.697   4.296  0.7995 -0.2414 -2.7137
11489TIP3   OH255881   6.716   6.448  15.686  0.3045 -0.1584  0.3755
11489TIP3    H155882   6.634   6.401  15.697 -0.2028  0.7235  0.4523
11489TIP3    H255883   6.781   6.395  15.732  0.1156 -1.7507 -1.1264
11490TIP3   OH255884   0.273   1.328   0.379 -0.2774  0.3209  0.7523
11490TIP3    H155885   0.256   1.411   0.335  0.1971 -0.3760 -0.8289
11490TIP3    H255886   0.187   1.286   0.385 -0.2455  0.0754 -0.2930
11491TIP3   OH255887   4.906   6.258   5.824  0.3667  0.1988  0.0168
11491TIP3    H155888   4.988   6.209   5.834 -0.9471 -1.6309  3.4337
11491TIP3    H255889   4.903   6.316   5.900 -0.6850  1.7066 -1.0989
11492TIP3   OH255890   6.369   3.967   0.996 -0.1387 -0.5109 -0.0118
11492TIP3    H155891   6.460   3.985   1.021  0.0604 -1.5787  0.1160
11492TIP3    H255892   6.354   3.877   1.025 -0.6865 -0.9438 -1.5426
11493TIP3   OH255893   4.095   6.479  10.558  0.1042 -0.2501 -1.0255
11493TIP3    H155894   4.089   6.398  10.608  0.6090  0.9071  1.0286
11493TIP3    H255895   4.009   6.489  10.518 -0.7685 -0.5978  0.6831
11494TIP3   OH255896   5.346   1.653   0.962 -0.3946 -0.2762  0.3098
11494TIP3    H155897   5.287   1.648   1.037 -0.8199  0.1965  0.0131
11494TIP3    H255898   5.430   1.680   0.999 -0.6210  0.0308  0.6042
11495TIP3   OH255899   3.675   0.319   2.872  0.0433  0.4909  0.0540
11495TIP3    H155900   3.763   0.352   2.854 -0.0529  0.7958  0.1329
11495TIP3    H255901   3.617   0.393   2.853 -0.4555 -0.4811 -2.6013
11496TIP3   OH255902   2.933   1.390   2.561  0.4851  0.3036 -0.0249
11496TIP3    H155903   3.021   1.401   2.525  0.6342  1.0081  0.5356
11496TIP3    H255904   2.920   1.466   2.617 -0.8992  0.7548 -0.9205
11497TIP3   OH255905   0.892   5.981  13.133  0.6015 -0.4266  0.5640
11497TIP3    H155906   0.828   5.940  13.074 -0.4586  2.1354 -0.1994
11497TIP3    H255907   0.878   5.936  13.216 -1.1987 -0.9490  0.0421
11498TIP3   OH255908   3.634   5.282  13.491  0.1234 -0.2320  0.0884
11498TIP3    H155909   3.543   5.258  13.478  0.1366 -0.2161 -0.0271
11498TIP3    H255910   3.667   5.216  13.553 -0.4424  0.8049  1.5454
11499TIP3   OH255911   2.362   6.483   5.708  0.1788  0.0488 -0.4839
11499TIP3    H155912   2.273   6.449   5.719  0.5952 -1.3402 -1.1333
11499TIP3    H255913   2.380   6.473   5.614  1.7064 -1.5907 -0.0829
11500TIP3   OH255914   2.448   2.719  16.114 -0.7120  0.4390 -0.1448
11500TIP3    H155915   2.360   2.683  16.124 -0.0521 -1.0720  0.5363
11500TIP3    H255916   2.495   2.689  16.192  1.0825 -0.8763 -1.6317
11501TIP3   OH255917   0.748   5.013  16.814 -0.4281 -0.3968  0.3955
11501TIP3    H155918   0.782   5.044  16.730 -0.4826  0.8986  0.8264
11501TIP3    H255919   0.784   4.925  16.823  0.1760 -0.2793 -0.6399
11502TIP3   OH255920   6.720   4.892   1.491  0.0614  0.5010 -0.3058
11502TIP3    H155921   6.694   4.978   1.458  1.7175  0.5802 -1.5436
11502TIP3    H255922   6.700   4.831   1.420 -0.4833 -0.0612  0.3072
11503TIP3   OH255923   6.779   6.347   4.355  0.3152 -0.2420 -0.6210
11503TIP3    H155924   6.709   6.374   4.414  0.6812  0.4422 -0.4882
11503TIP3    H255925   6.823   6.274   4.400  2.0075  1.6812  1.0405
11504TIP3   OH255926   0.207   1.938   5.051 -0.6628 -0.0964  0.4287
11504TIP3    H155927   0.279   1.994   5.021 -0.6929  0.0976  0.7170
11504TIP3    H255928   0.136   1.957   4.990  0.0196 -1.5053 -0.9097
11505TIP3   OH255929   6.414   0.133  12.220  0.1982  0.2253  0.1323
11505TIP3    H155930   6.487   0.091  12.177  0.4828 -0.1981  1.0001
11505TIP3    H255931   6.369   0.181  12.151  1.0321  0.1243 -0.4895
11506TIP3   OH255932   4.857   5.686   0.235 -0.6879  0.0489 -0.3669
11506TIP3    H155933   4.777   5.656   0.278  0.1177 -0.9075  0.5122
11506TIP3    H255934   4.866   5.628   0.159 -0.1695 -0.6945  0.2463
11507TIP3   OH255935   5.445   1.078  11.331 -0.1182  0.1764  0.7319
11507TIP3    H155936   5.476   0.989  11.318  0.6659  0.7446 -1.7486
11507TIP3    H255937   5.353   1.076  11.307  0.4725  0.4654 -1.8008
11508TIP3   OH255938   1.470   5.555  13.551  0.5546  0.7721 -0.2714
11508TIP3    H155939   1.537   5.532  13.615  0.2085 -0.0190 -0.1876
11508TIP3    H255940   1.517   5.605  13.484  0.7416  2.4795  1.0743
11509TIP3   OH255941   2.336   6.723   1.103  0.4261 -0.5521  0.0896
11509TIP3    H155942   2.324   6.737   1.009 -1.1557  0.5885  0.4051
11509TIP3    H255943   2.255   6.679   1.130 -0.0543  0.9453  1.2225
11510TIP3   OH255944   4.168   0.207  11.408 -0.0150 -0.3175  0.0566
11510TIP3    H155945   4.080   0.239  11.427  0.9337  1.9057  0.9866
11510TIP3    H255946   4.154   0.131  11.352 -2.5826 -1.1782  1.7027
11511TIP3   OH255947   5.313   6.590   1.801  1.0520  0.5027 -0.1802
11511TIP3    H155948   5.251   6.581   1.729  0.1246  0.9747  0.5342
11511TIP3    H255949   5.266   6.643   1.867  1.6476 -0.3844  1.0014
11512TIP3   OH255950   1.310   1.543   3.727  0.1520 -0.9492 -0.8833
11512TIP3    H155951   1.216   1.532   3.742  0.0562  0.1054 -0.6710
11512TIP3    H255952   1.317   1.579   3.639  0.3193 -0.4973 -0.6891
11513TIP3   OH255953   4.815   6.080  15.380  0.3355 -0.1686 -0.0159
11513TIP3    H155954   4.859   6.147  15.432 -0.5496  0.3575  0.0662
11513TIP3    H255955   4.806   6.005  15.439 -1.0900  0.5856  0.7731
11514TIP3   OH255956   0.736   5.635   3.007  0.3584  0.4843 -0.3166
11514TIP3    H155957   0.812   5.675   3.049  0.6008 -1.1567  0.9348
11514TIP3    H255958   0.771   5.601   2.924  1.6102 -2.0141  1.0998
11515TIP3   OH255959   3.849   4.503   3.528  0.3203  0.6807  0.2295
11515TIP3    H155960   3.836   4.595   3.550 -1.0773  0.1469  1.8621
11515TIP3    H255961   3.762   4.471   3.506  0.8624 -0.1750 -0.8017
11516TIP3   OH255962   3.349   6.783  13.087 -0.3958 -0.4008  0.6743
11516TIP3    H155963   3.439   6.763  13.060 -0.7965 -0.1523 -0.9677
11516TIP3    H255964   3.354   6.873  13.120 -0.0336 -0.4043  0.6379
11517TIP3   OH255965   3.889   1.834  11.930 -0.3312 -0.0314  0.5519
11517TIP3    H155966   3.858   1.756  11.883 -1.8707  0.3878  0.7953
11517TIP3    H255967   3.908   1.897  11.861 -1.3331  0.1430  0.4144
11518TIP3   OH255968   1.674   0.192  16.786  0.3202 -0.2248  0.0687
11518TIP3    H155969   1.685   0.178  16.692 -0.1369 -3.7474  0.4049
11518TIP3    H255970   1.761   0.176  16.822  0.9356  2.8621  0.2199
11519TIP3   OH255971   3.439   1.211   0.680 -0.1590 -0.9570 -0.0789
11519TIP3    H155972   3.531   1.204   0.654 -0.1120 -0.4815 -0.0519
11519TIP3    H255973   3.391   1.206   0.597 -0.0826 -0.7779 -0.1360
11520TIP3   OH255974   5.970   1.768  14.993 -0.0756 -0.1756  0.0373
11520TIP3    H155975   6.021   1.842  15.026  1.8760 -0.7049 -1.5430
11520TIP3    H255976   6.033   1.718  14.940 -1.1186 -3.3378  1.5331
11521TIP3   OH255977   5.373   4.823  12.689 -0.0193  0.1185  0.2909
11521TIP3    H155978   5.371   4.908  12.732  0.5750 -0.1762  0.9116
11521TIP3    H255979   5.371   4.759  12.760 -1.5126 -0.4255 -0.1842
11522TIP3   OH255980   1.682   3.837   4.540 -0.1334  0.0230  0.0534
11522TIP3    H155981   1.625   3.864   4.612  0.6492  0.9715  0.3371
11522TIP3    H255982   1.763   3.886   4.553  0.2152 -0.1784 -1.1820
11523TIP3   OH255983   3.103   0.719  15.185 -0.1346  0.2195  0.2856
11523TIP3    H155984   3.039   0.775  15.141  0.9046  0.9464 -0.3564
11523TIP3    H255985   3.102   0.749  15.276 -0.1596  0.7539  0.1129
11524TIP3   OH255986   3.289   1.460  13.734 -0.0664 -0.5610  0.3350
11524TIP3    H155987   3.243   1.440  13.652 -0.0654  0.3192  0.1066
11524TIP3    H255988   3.224   1.504  13.788 -0.0302 -1.0316  0.7655
11525TIP3   OH255989   4.363   4.976  13.253  0.7770  0.9165  0.4034
11525TIP3    H155990   4.280   4.951  13.213  0.9948  1.5202 -0.4529
11525TIP3    H255991   4.366   4.927  13.335 -0.3095  0.7015  0.3259
11526TIP3   OH255992   0.256   4.149   4.982 -0.3111  0.4857 -0.5314
11526TIP3    H155993   0.201   4.083   5.026 -3.1619  3.4237  0.7215
11526TIP3    H255994   0.341   4.141   5.024  0.0309 -3.3528 -1.5634
11527TIP3   OH255995   3.552   4.713   2.333 -0.2831  0.0408  0.3263
11527TIP3    H155996   3.517   4.690   2.246 -1.0919  1.5745  0.2102
11527TIP3    H255997   3.641   4.677   2.333  0.1799  1.0086 -1.6260
11528TIP3   OH255998   6.494   4.402  12.683  0.4435  0.3893 -0.4729
11528TIP3    H155999   6.469   4.324  12.632  2.9716 -1.2560  0.6304
11528TIP3    H256000   6.556   4.448  12.627  0.4068  0.5928 -0.3461
11529TIP3   OH256001   3.225   3.162   6.568 -0.9698 -0.1409  0.0529
11529TIP3    H156002   3.178   3.214   6.503 -0.5818 -0.4174 -0.4561
11529TIP3    H256003   3.183   3.077   6.566 -0.6297 -0.3053 -0.2059
11530TIP3   OH256004   6.467   1.668  11.151 -0.2903 -0.1476 -0.1936
11530TIP3    H156005   6.447   1.728  11.079 -0.0151 -1.1054 -1.0951
11530TIP3    H256006   6.382   1.635  11.178 -0.4216  0.4408  0.1347
11531TIP3   OH256007   5.960   0.402   4.776 -0.3010  0.1504 -0.5138
11531TIP3    H156008   5.965   0.405   4.872  1.4841 -1.7074 -0.4878
11531TIP3    H256009   5.922   0.316   4.757  0.5736 -0.0365 -1.4772
11532TIP3   OH256010   4.624   6.382  10.924  0.3808 -0.1332  0.6430
11532TIP3    H156011   4.683   6.357  10.995  0.8709  0.4157  0.4408
11532TIP3    H256012   4.646   6.474  10.906 -1.4275  0.5115  1.4279
11533TIP3   OH256013   1.643   1.049  15.296  0.4504  0.1046 -0.1103
11533TIP3    H156014   1.631   1.142  15.312 -0.9738  0.3260 -2.0575
11533TIP3    H256015   1.591   1.005  15.363  1.3162  0.6712  0.9601
11534TIP3   OH256016   4.935   2.478   2.940  0.1908  0.4448 -0.2537
11534TIP3    H156017   4.879   2.507   2.868 -0.3924 -2.7136 -1.2574
11534TIP3    H256018   4.884   2.411   2.985  2.0101 -0.4068  0.6533
11535TIP3   OH256019   6.733   6.371   5.465  0.2722  0.8532 -0.0767
11535TIP3    H156020   6.811   6.354   5.518  0.9021 -1.9742 -1.6881
11535TIP3    H256021   6.667   6.400   5.528  1.4323 -0.7972  2.0467
11536TIP3   OH256022   5.625   4.267   2.017 -0.4384  0.3060  0.3566
11536TIP3    H156023   5.568   4.192   2.034  0.6784 -0.3838  1.1348
11536TIP3    H256024   5.573   4.323   1.959 -1.6975 -0.5514  0.6111
11537TIP3   OH256025   0.567   3.496  13.598 -0.1411  0.0683  0.2230
11537TIP3    H156026   0.657   3.485  13.629 -0.2023 -1.5951 -0.1170
11537TIP3    H256027   0.558   3.591  13.586  1.3209  0.3394  0.9457
11538TIP3   OH256028   3.076   1.578   3.481  0.0096  0.3824 -0.3188
11538TIP3    H156029   3.104   1.655   3.531 -0.7587 -0.0916  0.8777
11538TIP3    H256030   3.158   1.537   3.453  0.4260  1.6411 -1.0013
11539TIP3   OH256031   3.246   6.685  11.324 -0.1080  0.3192 -0.5655
11539TIP3    H156032   3.217   6.775  11.305 -2.2054 -0.0171  0.7764
11539TIP3    H256033   3.166   6.635  11.332  0.7760 -0.8051  2.9070
11540TIP3   OH256034   2.961   4.748   4.792  0.6780  0.0717  0.6869
11540TIP3    H156035   2.965   4.841   4.814  0.1928  0.6744 -1.4687
11540TIP3    H256036   2.869   4.724   4.807  0.0829  0.7693 -1.5259
11541TIP3   OH256037   2.608   0.116   5.020  0.3540  0.4963 -0.3768
11541TIP3    H156038   2.565   0.113   4.935 -1.9642 -0.8269  0.7553
11541TIP3    H256039   2.558   0.180   5.070  0.2321 -0.3953  0.6840
11542TIP3   OH256040   2.595   0.202  15.861  0.9499  0.7002 -0.2821
11542TIP3    H156041   2.642   0.277  15.825  0.3001  0.0450 -2.7149
11542TIP3    H256042   2.541   0.238  15.932  3.2164  1.8631  0.9599
11543TIP3   OH256043   4.339   1.419  14.436 -0.4505 -0.4898  0.1304
11543TIP3    H156044   4.408   1.483  14.454 -2.0665  0.9509  1.6061
11543TIP3    H256045   4.295   1.453  14.358 -0.1026 -0.8937 -0.2470
11544TIP3   OH256046   1.004   6.719  11.611  0.3442 -0.2089  0.1918
11544TIP3    H156047   1.075   6.743  11.552  0.5062 -0.2159  0.3819
11544TIP3    H256048   0.937   6.786  11.598 -0.4461 -1.2459 -1.3997
11545TIP3   OH256049   0.657   4.135   1.804  0.2045  0.1686 -0.4154
11545TIP3    H156050   0.667   4.092   1.889 -3.5794 -2.4228 -1.0007
11545TIP3    H256051   0.668   4.064   1.740 -2.0103  0.8878 -1.7090
11546TIP3   OH256052   2.792   4.273   5.007  0.1409 -0.2182 -0.0225
11546TIP3    H156053   2.755   4.192   4.972 -0.2239 -0.7557  1.5426
11546TIP3    H256054   2.724   4.339   4.994 -0.9631 -0.9474  1.8070
11547TIP3   OH256055   4.318   3.418  11.563  0.4065  0.3086  0.2198
11547TIP3    H156056   4.226   3.397  11.544 -0.4309  3.1918  0.5253
11547TIP3    H256057   4.347   3.349  11.623 -1.4825 -0.8195 -0.0856
11548TIP3   OH256058   0.546   5.825   1.547 -0.2162 -0.8284  0.0489
11548TIP3    H156059   0.524   5.917   1.530  1.5374 -0.2120  0.8944
11548TIP3    H256060   0.561   5.821   1.642  0.5929 -1.7957 -0.1054
11549TIP3   OH256061   0.667   2.082   5.717 -0.5416 -0.3921  0.0754
11549TIP3    H156062   0.576   2.063   5.739 -0.0119 -0.4094  2.4857
11549TIP3    H256063   0.670   2.177   5.707 -0.8330 -0.3950 -0.0605
11550TIP3   OH256064   6.619   4.912  12.728 -0.7837  0.2981  0.2784
11550TIP3    H156065   6.712   4.923  12.747  0.0594 -0.9887 -2.6133
11550TIP3    H256066   6.596   4.828  12.767 -0.5442  0.2568  0.3302
11551TIP3   OH256067   5.491   2.346   5.004  0.0934 -0.2642 -0.1158
11551TIP3    H156068   5.547   2.291   5.060  1.2174  0.5839 -0.3653
11551TIP3    H256069   5.411   2.357   5.055  0.2844 -1.2017  0.4251
11552TIP3   OH256070   4.092   4.676   1.572  0.2454  0.1305  0.0728
11552TIP3    H156071   4.045   4.760   1.577 -1.1072 -0.4517 -1.8212
11552TIP3    H256072   4.086   4.640   1.661 -0.6152  1.2742  0.4999
11553TIP3   OH256073   1.636   3.426  10.169 -0.2568 -0.0644 -0.5978
11553TIP3    H156074   1.593   3.511  10.183 -0.9309 -0.4245 -0.4467
11553TIP3    H256075   1.666   3.429  10.078  0.4544  0.6539 -0.3520
11554TIP3   OH256076   5.443   2.112   1.839 -0.9131  0.4134 -0.3902
11554TIP3    H156077   5.366   2.055   1.836  0.0574 -0.9307 -0.7871
11554TIP3    H256078   5.466   2.126   1.747 -0.6885  0.8359 -0.2734
11555TIP3   OH256079   0.826   2.718   2.273  0.4048  0.4591  0.1480
11555TIP3    H156080   0.861   2.795   2.228  2.2451 -0.3239  0.1653
11555TIP3    H256081   0.892   2.650   2.262 -0.9234 -0.9907  0.5914
11556TIP3   OH256082   3.605   3.430  11.874 -0.3279 -0.1603  0.3691
11556TIP3    H156083   3.629   3.481  11.797 -0.0074 -2.5681 -1.2166
11556TIP3    H256084   3.688   3.397  11.908 -0.6414 -0.8685  0.4531
11557TIP3   OH256085   5.269   5.120   0.754 -0.0422 -0.1860  0.0698
11557TIP3    H156086   5.203   5.058   0.784 -1.1747  0.9685  0.0325
11557TIP3    H256087   5.298   5.085   0.669 -1.7379  0.0849 -0.6510
11558TIP3   OH256088   3.805   4.097   5.878 -0.2814 -0.4857 -0.3179
11558TIP3    H156089   3.770   4.009   5.868  1.8138 -1.9329  3.1728
11558TIP3    H256090   3.887   4.095   5.828  0.2737 -0.9684  0.5613
11559TIP3   OH256091   2.367   2.412  15.920 -0.2231  0.5038 -0.2886
11559TIP3    H156092   2.283   2.424  15.875 -0.7669  0.0576  0.5833
11559TIP3    H256093   2.344   2.405  16.012  0.6123 -1.1233 -0.1602
11560TIP3   OH256094   0.851   5.401  13.480  0.0945 -0.1365  0.2208
11560TIP3    H156095   0.778   5.369  13.532 -0.1197 -0.4826 -0.2868
11560TIP3    H256096   0.851   5.346  13.402  0.8021 -0.0365  0.1449
11561TIP3   OH256097   2.080   2.483  11.543 -0.9804  0.4822  0.3147
11561TIP3    H156098   2.172   2.501  11.560 -0.6944  0.2855 -0.9451
11561TIP3    H256099   2.063   2.521  11.457 -1.1217 -2.4415 -1.1058
11562TIP3   OH256100   2.834   1.892  13.995  0.1563 -0.2031  0.0260
11562TIP3    H156101   2.770   1.880  13.925 -0.6242  0.5318  0.5949
11562TIP3    H256102   2.890   1.963  13.964  1.3904 -1.5273 -0.9336
11563TIP3   OH256103   0.520   6.191   3.862 -0.1391 -0.1722  0.0599
11563TIP3    H156104   0.598   6.142   3.839  0.1261  0.3854 -0.2513
11563TIP3    H256105   0.496   6.159   3.949 -0.0963 -0.9906 -0.2281
11564TIP3   OH256106   2.698   3.249   2.847  0.1663 -0.1472 -0.2533
11564TIP3    H156107   2.658   3.300   2.918 -0.8587 -0.9720 -0.2016
11564TIP3    H256108   2.643   3.171   2.841  1.3838 -0.9969 -0.6795
11565TIP3   OH256109   6.802   3.053   4.514 -0.2573 -0.1617  0.1094
11565TIP3    H156110   6.876   3.108   4.538 -0.1437 -0.0772 -0.4136
11565TIP3    H256111   6.726   3.110   4.522 -0.1839 -0.0397 -0.0397
11566TIP3   OH256112   1.266   3.107   0.861 -0.4225 -0.3373  0.5195
11566TIP3    H156113   1.205   3.150   0.801 -0.6470 -0.4026  0.6969
11566TIP3    H256114   1.345   3.092   0.810 -1.0399 -1.5094 -0.1191
11567TIP3   OH256115   5.172   4.169  16.061  0.3158  0.4397  0.4449
11567TIP3    H156116   5.255   4.173  16.108  0.0384  1.9243  0.8587
11567TIP3    H256117   5.132   4.254  16.076  0.9285  1.7144 -3.7741
11568TIP3   OH256118   0.183   5.156  11.171 -0.1754 -0.1507 -0.4611
11568TIP3    H156119   0.128   5.105  11.231  0.5057  1.3130  1.5465
11568TIP3    H256120   0.245   5.201  11.229  2.4492 -0.8518 -2.5298
11569TIP3   OH256121   0.483   4.148   0.144 -0.1168  0.1122  0.2811
11569TIP3    H156122   0.573   4.155   0.174 -0.1542  0.0799  0.4025
11569TIP3    H256123   0.457   4.237   0.124 -0.8058  0.4519  2.4481
11570TIP3   OH256124   0.180   4.068  13.070 -0.5012 -0.4087  0.5770
11570TIP3    H156125   0.250   4.019  13.113  0.3301 -0.0802 -0.3436
11570TIP3    H256126   0.173   4.150  13.119 -2.1890 -1.5434  2.3874
11571TIP3   OH256127   5.447   1.271  15.985  0.4436  0.4091 -0.0792
11571TIP3    H156128   5.409   1.357  16.005  0.1345  0.3704 -0.4928
11571TIP3    H256129   5.436   1.221  16.067 -1.9317 -0.1394 -0.6386
11572TIP3   OH256130   2.184   1.391  11.186 -0.8195 -0.2082 -0.8507
11572TIP3    H156131   2.129   1.320  11.153  1.1928 -0.3639 -4.3266
11572TIP3    H256132   2.231   1.422  11.109 -0.5221  3.9907  0.8012
11573TIP3   OH256133   3.517   1.841   4.759 -0.5104 -0.1957  0.3770
11573TIP3    H156134   3.572   1.879   4.690 -0.0848  0.1633  0.9068
11573TIP3    H256135   3.436   1.891   4.755  0.2879  1.3088  1.5211
11574TIP3   OH256136   4.800   6.160  14.970  0.2331 -0.3223  0.1707
11574TIP3    H156137   4.894   6.147  14.961  0.0371 -1.5030 -0.5180
11574TIP3    H256138   4.772   6.191  14.884  0.0192  0.1792  0.4221
11575TIP3   OH256139   5.231   6.182   1.495  0.2539  0.0631 -0.0773
11575TIP3    H156140   5.182   6.102   1.475 -2.0940  0.6355  2.6540
11575TIP3    H256141   5.182   6.252   1.453  0.9491  0.2954 -0.5078
11576TIP3   OH256142   1.696   4.584  16.599 -0.0688 -0.6295  0.4111
11576TIP3    H156143   1.721   4.503  16.643  2.4021  0.6881  1.6502
11576TIP3    H256144   1.615   4.612  16.643  0.7370 -0.8747  2.1440
11577TIP3   OH256145   4.154   5.150  13.986 -0.2516  0.3209 -0.0047
11577TIP3    H156146   4.216   5.203  13.936  1.6839 -2.2054 -0.4985
11577TIP3    H256147   4.107   5.099  13.920 -0.8858  0.1681  0.5456
11578TIP3   OH256148   2.527   6.269  12.989 -0.7845  0.1915 -0.1175
11578TIP3    H156149   2.522   6.174  12.977  0.3314  0.2410 -1.2008
11578TIP3    H256150   2.621   6.288  12.990 -0.9982  1.2539  0.3465
11579TIP3   OH256151   4.917   1.129   2.987  0.1524 -0.3585 -0.3611
11579TIP3    H156152   4.834   1.093   3.017  0.1825  0.1838  0.3947
11579TIP3    H256153   4.924   1.214   3.031 -0.4212  1.1049 -2.9158
11580TIP3   OH256154   2.148   0.479   2.795 -0.1805  0.4504 -0.1707
11580TIP3    H156155   2.085   0.408   2.801  0.7689 -0.3865  0.2281
11580TIP3    H256156   2.165   0.490   2.702 -0.9622  0.7341 -0.2821
11581TIP3   OH256157   3.609   4.209  11.729 -0.1335  0.5801  0.0365
11581TIP3    H156158   3.538   4.147  11.743 -0.3368  1.3614  3.4305
11581TIP3    H256159   3.566   4.294  11.717  0.1687  0.7899  0.3879
11582TIP3   OH256160   1.371   2.836   1.745  0.3243 -0.5512 -0.0880
11582TIP3    H156161   1.329   2.755   1.719  0.7747 -0.3870 -1.3667
11582TIP3    H256162   1.464   2.819   1.737  0.4135  0.3905 -1.4072
11583TIP3   OH256163   1.969   0.329   4.438  0.0418 -0.1269  0.2282
11583TIP3    H156164   2.019   0.410   4.434 -3.0507  1.9002 -0.4192
11583TIP3    H256165   2.015   0.269   4.380  1.8402  1.4873 -0.0809
11584TIP3   OH256166   3.554   4.311  13.362 -0.5338  0.0144  0.1349
11584TIP3    H156167   3.484   4.283  13.421 -0.3195  0.7755  0.7749
11584TIP3    H256168   3.620   4.349  13.420  0.7001 -1.2554 -0.4148
11585TIP3   OH256169   3.656   0.643   3.379  0.1988 -0.0875  0.1361
11585TIP3    H156170   3.561   0.648   3.379  0.2247  0.5103 -0.4761
11585TIP3    H256171   3.679   0.599   3.297  0.5155  1.6209 -0.7361
11586TIP3   OH256172   5.546   1.280  12.442  0.0582 -0.0667 -0.2325
11586TIP3    H156173   5.493   1.327  12.378 -0.3865  0.4331  0.4858
11586TIP3    H256174   5.483   1.249  12.507  0.4065 -1.2367 -0.4288
11587TIP3   OH256175   2.781   5.906  11.601  0.1919  0.5708  0.0624
11587TIP3    H156176   2.785   5.865  11.687  1.7803 -0.0924 -0.2832
11587TIP3    H256177   2.787   6.000  11.619 -0.6044  0.5102  0.7116
11588TIP3   OH256178   2.941   1.881  10.419 -0.0730  0.5435  0.2426
11588TIP3    H156179   2.869   1.885  10.355  0.1052  0.0390  0.0034
11588TIP3    H256180   2.901   1.909  10.501 -0.8259 -0.7166  0.3458
11589TIP3   OH256181   0.510   3.023   4.405 -0.4966  0.0383  0.5678
11589TIP3    H156182   0.419   3.002   4.383 -0.7659 -0.8739  2.3372
11589TIP3    H256183   0.516   3.006   4.499  1.3642  0.6516  0.5957
11590TIP3   OH256184   3.031   2.423  14.426 -0.4526  0.2866 -0.0564
11590TIP3    H156185   2.979   2.459  14.499 -0.5105  0.8263 -0.3567
11590TIP3    H256186   3.119   2.457  14.441 -0.5672  0.7919 -0.4948
11591TIP3   OH256187   2.081   2.771   0.481  0.0394  0.0514  0.2347
11591TIP3    H156188   2.157   2.774   0.422 -0.5868 -1.3496 -0.7002
11591TIP3    H256189   2.021   2.836   0.444 -0.1879 -0.5391 -0.4533
11592TIP3   OH256190   5.223   5.047  15.771  0.3029  0.2093 -0.6391
11592TIP3    H156191   5.278   4.969  15.776 -2.0724 -1.4925  1.3751
11592TIP3    H256192   5.252   5.092  15.691  0.9448 -3.3489 -2.6051
11593TIP3   OH256193   1.772   4.385   0.251 -0.2567  0.4767  0.2202
11593TIP3    H156194   1.676   4.389   0.243 -0.2402 -0.3574 -0.4854
11593TIP3    H256195   1.801   4.474   0.232 -0.7924  0.3904 -1.1059
11594TIP3   OH256196   6.601   4.938   4.066 -0.0536  0.6071  0.5588
11594TIP3    H156197   6.617   4.969   4.155 -1.4357 -1.1310  1.4785
11594TIP3    H256198   6.507   4.919   4.063  0.6769 -4.1732  0.4582
11595TIP3   OH256199   5.530   1.883  11.097 -0.0424  0.1094  0.1684
11595TIP3    H156200   5.540   1.961  11.152  2.1679  0.2252 -0.2854
11595TIP3    H256201   5.528   1.810  11.158 -2.7661  0.4807  0.6423
11596TIP3   OH256202   4.372   2.511  16.372  0.5812 -0.2451 -0.1199
11596TIP3    H156203   4.405   2.588  16.324 -2.0518  1.6576  0.9009
11596TIP3    H256204   4.438   2.496  16.441  1.4884  0.6431 -0.7604
11597TIP3   OH256205   6.335   5.881  15.007 -0.1707 -0.5411  0.0150
11597TIP3    H156206   6.353   5.885  15.101 -1.9098 -0.9262  0.3946
11597TIP3    H256207   6.242   5.900  14.999  0.5892  3.5448 -1.9890
11598TIP3   OH256208   1.435   3.945  14.210 -0.1539  0.1854  0.0963
11598TIP3    H156209   1.407   4.018  14.266  0.3187 -1.0360  1.9981
11598TIP3    H256210   1.374   3.874  14.230 -1.5066  0.3753 -2.7740
11599TIP3   OH256211   1.219   4.737   3.359  1.1456  0.0432 -0.4957
11599TIP3    H156212   1.216   4.797   3.433  0.3494 -0.4111 -0.1386
11599TIP3    H256213   1.299   4.686   3.372  0.0930 -1.3444  1.1538
11600TIP3   OH256214   1.486   6.412   4.932  0.0241  0.1780 -0.7284
11600TIP3    H156215   1.486   6.342   4.866 -2.1757  0.0397 -0.6681
11600TIP3    H256216   1.468   6.491   4.883 -1.5889  0.0802 -0.3556
11601TIP3   OH256217   2.277   0.450  11.595 -0.8656 -0.0660 -0.0212
11601TIP3    H156218   2.360   0.402  11.604 -1.4409 -1.2158 -0.5181
11601TIP3    H256219   2.225   0.422  11.670 -1.1793 -0.1581 -0.2718
11602TIP3   OH256220   0.135   0.852   1.642 -0.3142  0.3839  0.2634
11602TIP3    H156221   0.145   0.928   1.699  0.2093  0.1370  0.5109
11602TIP3    H256222   0.042   0.850   1.620 -0.6174  0.1978  1.5018
11603TIP3   OH256223   2.845   5.104  11.081  0.1673 -0.6212  0.0615
11603TIP3    H156224   2.860   5.074  10.991 -0.6926  0.3923 -0.4501
11603TIP3    H256225   2.804   5.029  11.125 -2.8236 -0.0517 -1.4474
11604TIP3   OH256226   2.780   6.054   2.360 -0.5745 -0.4402  0.3034
11604TIP3    H156227   2.711   5.994   2.386  0.2900 -1.0193  1.3855
11604TIP3    H256228   2.788   6.042   2.266 -0.5971 -1.8628  0.4530
11605TIP3   OH256229   3.883   3.708   6.858  0.1747 -0.0514 -0.1576
11605TIP3    H156230   3.900   3.793   6.899 -0.1554 -0.0995  0.0812
11605TIP3    H256231   3.803   3.722   6.807  0.0016 -0.2753  0.0518
11606TIP3   OH256232   4.935   0.121   1.446 -0.1420 -0.0335  0.1441
11606TIP3    H156233   4.932   0.193   1.383 -1.7756 -0.2261 -0.0597
11606TIP3    H256234   4.899   0.158   1.527 -1.6969 -0.7727 -0.1740
11607TIP3   OH256235   4.487   4.680   3.743 -0.2833 -0.1559 -0.2541
11607TIP3    H156236   4.458   4.607   3.690 -0.3408 -0.8479  0.7065
11607TIP3    H256237   4.502   4.643   3.830 -1.2737  1.1597  0.5170
11608TIP3   OH256238   3.226   1.678  13.523  1.0582 -0.0404  0.8684
11608TIP3    H156239   3.168   1.664  13.448 -1.4902  1.0866  2.5016
11608TIP3    H256240   3.216   1.771  13.543  1.8324 -0.2892  2.4959
11609TIP3   OH256241   4.254   0.915  12.299  0.2879  0.1103  0.0729
11609TIP3    H156242   4.253   0.989  12.359  1.1199  0.0151  0.2137
11609TIP3    H256243   4.281   0.841  12.352  1.7880  0.1681 -0.5599
11610TIP3   OH256244   2.297   1.957   2.235 -0.2136  0.2336  0.1957
11610TIP3    H156245   2.385   1.992   2.219  0.3895 -0.0180  2.5423
11610TIP3    H256246   2.263   2.011   2.307 -2.2682  0.7298 -1.0627
11611TIP3   OH256247   2.851   5.610   0.380  0.4058  0.2303 -0.1349
11611TIP3    H156248   2.794   5.687   0.380  1.4003  0.9905 -1.0339
11611TIP3    H256249   2.927   5.636   0.328  0.9284 -1.2454 -0.1558
11612TIP3   OH256250   3.766   0.788  11.050 -0.2803 -0.5268  0.0198
11612TIP3    H156251   3.753   0.805  10.957  0.8443  0.7599  0.0782
11612TIP3    H256252   3.859   0.767  11.058 -0.4471 -1.0178  0.8045
11613TIP3   OH256253   0.645   1.262  15.735  0.1724 -0.2687 -0.0340
11613TIP3    H156254   0.722   1.317  15.745 -0.3986  0.2281  2.6949
11613TIP3    H256255   0.678   1.172  15.744  0.6149 -0.1411 -0.3793
11614TIP3   OH256256   5.711   1.526  16.659 -0.2703  0.2034 -0.0675
11614TIP3    H156257   5.675   1.608  16.624 -0.0085  0.7610  0.9399
11614TIP3    H256258   5.635   1.473  16.681 -0.4813 -0.7405 -2.6861
11615TIP3   OH256259   2.820   2.705  12.650  0.5706 -0.3070 -0.1292
11615TIP3    H156260   2.757   2.666  12.589 -1.6706  2.2103  0.3847
11615TIP3    H256261   2.827   2.796  12.621 -0.0549  0.7947  2.8663
11616TIP3   OH256262   3.717   6.006   1.522  0.0588  0.1135 -0.3126
11616TIP3    H156263   3.684   6.039   1.438 -0.0256 -2.7359 -1.5164
11616TIP3    H256264   3.794   6.061   1.540  0.4349  0.4376 -2.5658
11617TIP3   OH256265   2.222   1.139  10.729 -0.1207 -0.0063  0.4119
11617TIP3    H156266   2.284   1.132  10.656 -2.7671 -3.3646 -1.9037
11617TIP3    H256267   2.138   1.154  10.686 -1.6202 -0.7243  2.8924
11618TIP3   OH256268   1.651   5.486   5.450  0.2807 -0.4101 -0.2245
11618TIP3    H156269   1.577   5.429   5.429 -1.6399  1.9585 -0.3720
11618TIP3    H256270   1.624   5.532   5.530  2.4017 -0.7655  0.7538
11619TIP3   OH256271   2.339   4.535  13.697 -0.3855  1.0844 -0.0988
11619TIP3    H156272   2.434   4.545  13.707 -0.0330 -1.2099 -0.4214
11619TIP3    H256273   2.304   4.623  13.710  1.6050  1.6817  2.0003
11620TIP3   OH256274   4.101   6.173   5.091  0.6931  0.5499  0.0851
11620TIP3    H156275   4.116   6.234   5.019 -0.7395  1.0509  0.1937
11620TIP3    H256276   4.020   6.128   5.068  1.1112 -0.4910  0.5801
11621TIP3   OH256277   1.802   3.033   2.817  0.0367 -0.0886  0.1965
11621TIP3    H156278   1.864   3.053   2.887 -0.6968 -2.6081  1.6762
11621TIP3    H256279   1.858   3.009   2.743  0.8929 -1.4699  1.2353
11622TIP3   OH256280   5.863   5.495   5.698  0.3590  0.2204  0.0606
11622TIP3    H156281   5.873   5.468   5.789 -0.6617  2.1736  0.8320
11622TIP3    H256282   5.942   5.545   5.679 -0.3223  1.5707  0.6155
11623TIP3   OH256283   6.232   4.923  15.888  0.6598  0.0116 -0.1346
11623TIP3    H156284   6.139   4.945  15.878  0.4680 -1.4158 -2.2280
11623TIP3    H256285   6.253   4.873  15.809  3.2719  0.4292  0.2146
11624TIP3   OH256286   0.445   1.699  14.433 -0.6246 -0.0838 -0.5516
11624TIP3    H156287   0.401   1.628  14.388  0.5173 -0.3860 -1.2497
11624TIP3    H256288   0.536   1.693  14.404 -0.6611  2.2311 -1.3921
11625TIP3   OH256289   2.689   0.455  15.853 -0.0071 -0.4847  0.1130
11625TIP3    H156290   2.690   0.483  15.761 -0.4466 -0.5935  0.0729
11625TIP3    H256291   2.778   0.471  15.884 -0.6711  2.6636  0.6428
11626TIP3   OH256292   0.400   3.765   2.670 -0.5775 -0.1666  0.0849
11626TIP3    H156293   0.444   3.747   2.753  2.3615 -0.4393 -1.4020
11626TIP3    H256294   0.399   3.680   2.625  0.3605  0.4700 -1.2115
11627TIP3   OH256295   4.734   3.030  12.780  0.2637 -0.2271  0.1453
11627TIP3    H156296   4.813   3.023  12.726  0.6594  0.0632  0.6760
11627TIP3    H256297   4.662   3.007  12.721  0.3861  2.6656 -1.2890
11628TIP3   OH256298   1.513   1.277   1.701 -0.2112  0.6671 -0.2159
11628TIP3    H156299   1.550   1.196   1.667  1.6872  1.8404 -1.0668
11628TIP3    H256300   1.427   1.283   1.660 -0.1503 -0.6333 -0.5664
11629TIP3   OH256301   0.925   0.408   1.041 -0.1101  0.4460  0.0284
11629TIP3    H156302   0.974   0.400   1.123  1.0724  1.9046 -0.4960
11629TIP3    H256303   0.834   0.393   1.067  0.5490 -2.6657  0.9818
11630TIP3   OH256304   3.820   0.374  12.805 -0.3216 -0.3749 -0.0006
11630TIP3    H156305   3.763   0.297  12.799 -0.2512 -0.3562 -1.0374
11630TIP3    H256306   3.893   0.355  12.745 -0.6215  0.7643 -0.7465
11631TIP3   OH256307   2.805   5.142  13.546  0.2399 -0.2655 -0.1496
11631TIP3    H156308   2.722   5.108  13.511  0.5274 -0.2061 -0.9224
11631TIP3    H256309   2.872   5.090  13.502  0.6589  0.8172 -0.8458
11632TIP3   OH256310   4.269   1.983  13.906  0.7944 -0.3832 -0.1931
11632TIP3    H156311   4.175   1.966  13.908  1.0928 -2.7700 -2.0467
11632TIP3    H256312   4.289   1.996  13.813  2.5879 -2.1349 -0.1072
11633TIP3   OH256313   0.836   4.859  11.568 -0.6115  0.1586  0.5553
11633TIP3    H156314   0.829   4.909  11.487 -1.6273 -0.8670 -0.0151
11633TIP3    H256315   0.889   4.783  11.545  0.2890  0.5704  1.2245
11634TIP3   OH256316   6.489   6.020   1.088  0.1032  0.0162  0.1782
11634TIP3    H156317   6.556   6.087   1.075  0.6100 -0.1183  1.8689
11634TIP3    H256318   6.414   6.050   1.037  1.1279  0.6271 -1.0248
11635TIP3   OH256319   1.809   5.961   2.938  0.3295 -0.0089  0.4218
11635TIP3    H156320   1.883   5.985   2.882  0.2816 -5.1894 -2.4892
11635TIP3    H256321   1.843   5.968   3.027  2.1682  3.5325 -0.3782
11636TIP3   OH256322   2.037   0.597  13.011  0.1762 -0.7634 -0.0221
11636TIP3    H156323   1.997   0.510  13.005 -0.2383 -0.6448  1.0168
11636TIP3    H256324   2.131   0.579  13.015  0.1046 -1.1479 -0.0160
11637TIP3   OH256325   3.456   4.985  16.210 -0.0549 -0.1556  0.3482
11637TIP3    H156326   3.499   5.068  16.193  1.6905 -0.6289  2.1708
11637TIP3    H256327   3.504   4.922  16.156 -0.3160 -0.2562  0.2288
11638TIP3   OH256328   4.708   4.848  15.989  0.7148  0.2322 -0.1768
11638TIP3    H156329   4.726   4.911  15.920  0.5856 -0.1495 -0.5662
11638TIP3    H256330   4.649   4.894  16.049  2.7621  1.4321  1.0195
11639TIP3   OH256331   5.091   3.342  14.878  0.1658 -0.6433 -0.1342
11639TIP3    H156332   5.131   3.400  14.944  0.4209 -0.5004 -0.4121
11639TIP3    H256333   5.134   3.366  14.796 -1.1749  0.1696 -0.6121
11640TIP3   OH256334   1.264   3.876   4.084 -0.5279  0.0301  0.4763
11640TIP3    H156335   1.237   3.965   4.063 -0.3364 -0.0082  0.0552
11640TIP3    H256336   1.356   3.872   4.061 -0.3652 -0.0835  1.1283
11641TIP3   OH256337   6.302   5.481   2.766  0.4886 -0.3082 -1.1346
11641TIP3    H156338   6.341   5.401   2.731  1.6186 -0.3451  0.1388
11641TIP3    H256339   6.314   5.547   2.697  1.3409 -0.7328 -1.3971
11642TIP3   OH256340   1.973   0.554   0.336 -0.2575  0.3774  0.1230
11642TIP3    H156341   2.009   0.467   0.321 -0.3249  0.5116 -0.8868
11642TIP3    H256342   1.943   0.552   0.427  1.2848 -0.0843  0.6495
11643TIP3   OH256343   4.599   2.013  12.586  0.4596 -0.2649 -0.1914
11643TIP3    H156344   4.625   2.037  12.497 -1.6325  0.3886 -0.7100
11643TIP3    H256345   4.563   1.925  12.578 -1.0049  0.3094 -0.3256
11644TIP3   OH256346   6.516   0.720   2.888 -0.3154  0.0249 -0.2040
11644TIP3    H156347   6.521   0.639   2.838 -0.6327 -0.7866  1.0269
11644TIP3    H256348   6.584   0.776   2.850 -0.0260 -0.8361 -1.0112
11645TIP3   OH256349   3.910   5.473  13.367  0.4388 -0.3935  0.0806
11645TIP3    H156350   3.850   5.502  13.298 -0.0113  0.1222  0.6776
11645TIP3    H256351   3.940   5.554  13.409 -0.0747 -0.7382  1.1441
11646TIP3   OH256352   0.661   5.122   0.389 -0.1081 -1.0094  0.3871
11646TIP3    H156353   0.632   5.124   0.298 -0.6802 -1.3712  0.5547
11646TIP3    H256354   0.635   5.036   0.421  1.2820 -1.4000  0.5157
11647TIP3   OH256355   0.410   5.136  13.477  0.2017  0.7884  0.0823
11647TIP3    H156356   0.342   5.068  13.483  1.5016 -0.9356 -2.6989
11647TIP3    H256357   0.375   5.200  13.415  0.6613  0.3844 -0.6175
11648TIP3   OH256358   2.952   3.341   2.427  0.0193  0.2814 -0.3949
11648TIP3    H156359   2.896   3.311   2.499  1.1125  0.5060  0.5739
11648TIP3    H256360   2.921   3.430   2.409 -2.3969 -0.8504 -2.4345
11649TIP3   OH256361   5.319   1.084  14.365  0.3751 -0.0511 -0.5062
11649TIP3    H156362   5.397   1.123  14.324 -0.0011 -1.5475 -2.8686
11649TIP3    H256363   5.245   1.121  14.316 -0.1860 -1.0150 -0.4082
11650TIP3   OH256364   0.596   1.571   0.527  0.0284  0.1747 -0.1743
11650TIP3    H156365   0.648   1.589   0.605 -0.6309  0.4679  0.2058
11650TIP3    H256366   0.648   1.605   0.454  1.4198 -1.5515 -0.0655
11651TIP3   OH256367   3.092   4.043  11.452 -0.1774 -0.2301 -0.2543
11651TIP3    H156368   3.166   3.998  11.492  0.7654  1.2465 -0.2702
11651TIP3    H256369   3.094   4.016  11.360 -0.1955 -0.8767 -0.0669
11652TIP3   OH256370   4.476   0.649   1.798 -0.0780  0.1666 -0.3409
11652TIP3    H156371   4.387   0.641   1.834 -0.3340  0.4531 -0.9023
11652TIP3    H256372   4.510   0.729   1.837 -0.2006  0.2555 -0.4171
11653TIP3   OH256373   2.152   0.002   4.483  0.1168 -0.0798  0.2339
11653TIP3    H156374   2.246   0.014   4.492 -0.1553  1.2240  1.6568
11653TIP3    H256375   2.121  -0.015   4.572 -1.1790  0.9625  0.0083
11654TIP3   OH256376   1.065   3.312   0.757 -0.4577  0.1308 -0.5009
11654TIP3    H156377   0.991   3.252   0.758  0.1536 -0.6824  1.8381
11654TIP3    H256378   1.032   3.393   0.795  0.0444 -0.5899  1.6074
11655TIP3   OH256379   4.434   4.550  11.448 -0.0116  0.3542  0.3175
11655TIP3    H156380   4.507   4.584  11.501  0.8239 -2.8376  1.4502
11655TIP3    H256381   4.415   4.620  11.386  3.6469  1.6193  0.3684
11656TIP3   OH256382   3.999   1.716   0.030 -0.4018 -0.0265  0.1097
11656TIP3    H156383   3.989   1.731   0.125 -0.2870 -1.0923  0.3025
11656TIP3    H256384   3.991   1.621   0.020 -0.8858  0.1180 -1.0132
11657TIP3   OH256385   5.646   4.049   5.289 -0.0004 -0.2350  0.4669
11657TIP3    H156386   5.738   4.030   5.303 -0.1605 -2.2747 -0.8465
11657TIP3    H256387   5.599   3.978   5.332 -0.8622 -0.3508 -0.5935
11658TIP3   OH256388   4.923   1.513   4.915 -0.2214 -0.1013 -0.3462
11658TIP3    H156389   4.879   1.598   4.922  0.2765  0.1312 -0.0152
11658TIP3    H256390   4.973   1.519   4.833  0.1313  0.0753 -0.1190
11659TIP3   OH256391   4.639   5.100   4.731 -0.8667 -0.3686 -0.5572
11659TIP3    H156392   4.730   5.073   4.718 -0.1938  1.0867  0.7246
11659TIP3    H256393   4.639   5.139   4.819 -2.3911  0.9672 -1.1077
11660TIP3   OH256394   0.696   0.726  11.714  0.1874 -0.2268  0.1561
11660TIP3    H156395   0.638   0.652  11.694 -0.7478  0.7604 -0.9577
11660TIP3    H256396   0.774   0.710  11.662  1.5228 -2.1916  2.5753
11661TIP3   OH256397   6.672   3.268   1.878 -0.4676  0.1275  0.2395
11661TIP3    H156398   6.625   3.258   1.961  0.6564 -3.3438  0.6083
11661TIP3    H256399   6.670   3.362   1.861 -2.1003  0.8044  3.3652
11662TIP3   OH256400   4.392   2.707   4.931 -0.5166 -0.1912  0.0980
11662TIP3    H156401   4.328   2.678   4.996 -1.7992  1.2030 -0.4926
11662TIP3    H256402   4.467   2.650   4.946 -2.4147 -3.0277 -0.2058
11663TIP3   OH256403   0.468   3.227  13.580 -0.1644 -0.1887 -0.0850
11663TIP3    H156404   0.488   3.321  13.580 -2.2054  0.2978 -0.9777
11663TIP3    H256405   0.547   3.186  13.545  0.3432  1.3131 -0.7926
11664TIP3   OH256406   3.799   3.236   5.708  0.3849 -0.1304 -0.0774
11664TIP3    H156407   3.760   3.307   5.759 -1.1454 -1.0872  0.1424
11664TIP3    H256408   3.894   3.254   5.711  0.1095  1.4018  0.6793
11665TIP3   OH256409   1.832   4.992  12.928 -0.1517 -0.1347  0.6914
11665TIP3    H156410   1.896   5.062  12.921 -0.1958  0.0100  1.5922
11665TIP3    H256411   1.878   4.921  12.974 -0.6757  0.0413  1.5101
11666TIP3   OH256412   2.589   4.008   1.259  0.3470  0.2022  0.3256
11666TIP3    H156413   2.523   4.036   1.195  0.9106  1.1734  0.1538
11666TIP3    H256414   2.672   4.014   1.212  0.6372 -0.3648  0.7504
11667TIP3   OH256415   1.425   0.256  14.222 -0.0632  0.5451  0.3950
11667TIP3    H156416   1.455   0.346  14.236  0.7078  0.6588 -1.6945
11667TIP3    H256417   1.385   0.257  14.135  0.9397 -1.3708 -0.1497
11668TIP3   OH256418   0.699   6.284  12.566  0.2987 -0.8062  0.7052
11668TIP3    H156419   0.729   6.262  12.478  2.5648  0.0927  1.1649
11668TIP3    H256420   0.762   6.242  12.625  0.2903  0.5906  1.7924
11669TIP3   OH256421   2.308   6.287  16.843  0.2323  0.1973  0.2034
11669TIP3    H156422   2.302   6.362  16.901  2.9512  0.1362  0.7124
11669TIP3    H256423   2.349   6.321  16.764  1.7575 -0.7235  0.5468
11670TIP3   OH256424   1.839   0.978   3.891 -0.3011 -0.0064 -0.5549
11670TIP3    H156425   1.871   1.063   3.924 -1.7810  1.3792 -2.4785
11670TIP3    H256426   1.744   0.986   3.894 -0.4610 -1.1709 -1.8006
11671TIP3   OH256427   3.393   4.232  13.018 -0.2249  0.2714  0.7001
11671TIP3    H156428   3.440   4.311  13.045  0.8931 -0.0907 -0.1322
11671TIP3    H256429   3.375   4.246  12.925 -0.3374 -0.3041  0.6347
11672TIP3   OH256430   4.001   0.729  12.017  0.0795 -0.1291 -0.3268
11672TIP3    H156431   3.919   0.777  12.022 -0.9381 -1.8976  0.5319
11672TIP3    H256432   4.011   0.687  12.102  1.4596 -0.6194 -0.6934
11673TIP3   OH256433   3.331   3.093  15.247 -0.1369 -0.0585  0.0557
11673TIP3    H156434   3.339   3.012  15.298  0.3557 -2.3117 -3.2130
11673TIP3    H256435   3.420   3.108  15.213 -0.3661  1.5242  0.0813
11674TIP3   OH256436   2.982   6.032   4.660  0.2882  0.0141  0.0033
11674TIP3    H156437   3.035   6.050   4.738 -0.4764  1.9713  0.1057
11674TIP3    H256438   2.912   5.974   4.692 -0.1493  0.9766  0.8377
11675TIP3   OH256439   5.195   4.955  11.612 -0.6998 -0.1097 -0.2994
11675TIP3    H156440   5.257   4.915  11.550  1.0927  1.2915  0.5087
11675TIP3    H256441   5.155   5.027  11.563  1.2028  1.4193  0.2689
11676TIP3   OH256442   2.670   0.729  12.465 -0.0677  0.2478 -0.1424
11676TIP3    H156443   2.611   0.670  12.512  0.6173  0.2652  0.7741
11676TIP3    H256444   2.612   0.787  12.417 -0.7658 -1.1932 -1.1254
11677TIP3   OH256445   0.714   2.955  13.237 -0.2206  0.7282 -0.6425
11677TIP3    H156446   0.715   2.945  13.333  1.4734  1.8851 -0.4893
11677TIP3    H256447   0.625   2.985  13.218 -0.8949 -0.4745  0.4387
11678TIP3   OH256448   4.072   3.734  16.506  0.3922 -0.1979 -0.3598
11678TIP3    H156449   4.089   3.812  16.559 -0.2045 -0.8181  0.7870
11678TIP3    H256450   4.158   3.693  16.496  0.3221 -0.9223  1.5480
11679TIP3   OH256451   2.280   5.657   4.976  0.1253 -0.2020  0.2059
11679TIP3    H156452   2.230   5.653   5.058 -0.7670 -0.0130 -0.3165
11679TIP3    H256453   2.252   5.740   4.936 -0.3672 -0.8644 -0.8639
11680TIP3   OH256454   1.261   0.298   0.684  1.2276 -0.4114  0.0001
11680TIP3    H156455   1.260   0.384   0.643 -0.3436  0.1327  1.0609
11680TIP3    H256456   1.209   0.243   0.625 -1.9221  0.6223  1.5797
11681TIP3   OH256457   3.605   3.058  15.201  0.1571  0.0074  0.0042
11681TIP3    H156458   3.625   3.128  15.263 -2.2141  0.8748 -0.1126
11681TIP3    H256459   3.560   2.991  15.253  2.4612 -1.5682  0.1313
11682TIP3   OH256460   0.069   3.500   5.983  0.0916  0.2189 -0.3048
11682TIP3    H156461   0.161   3.489   6.006  0.8048 -3.2434 -3.7240
11682TIP3    H256462   0.023   3.438   6.039  0.1992  0.2348 -0.1995
11683TIP3   OH256463   0.064   1.333  10.911  0.3423  0.2279  0.1028
11683TIP3    H156464   0.028   1.409  10.956 -0.0500 -0.5243  1.0786
11683TIP3    H256465   0.147   1.365  10.873  0.0439  1.2047  0.2515
11684TIP3   OH256466   5.219   0.759  10.948 -0.1915  0.1855  0.3241
11684TIP3    H156467   5.225   0.756  10.853 -1.2376 -0.5595  0.2658
11684TIP3    H256468   5.309   0.775  10.978  0.6209 -2.0381 -0.6961
11685TIP3   OH256469   1.076   3.965   1.889  0.4526 -0.6315  0.1045
11685TIP3    H156470   1.123   3.993   1.811 -1.0675  0.5981 -0.3915
11685TIP3    H256471   0.992   3.933   1.858 -0.0920 -0.3373  1.2144
11686TIP3   OH256472   4.782   4.482  14.052 -0.2182  0.0553  0.0434
11686TIP3    H156473   4.734   4.402  14.027 -1.1073  0.7402 -0.5265
11686TIP3    H256474   4.741   4.509  14.134  0.9264 -0.7394  0.9075
11687TIP3   OH256475   2.185   3.223   3.872 -0.4456 -0.3981  0.1047
11687TIP3    H156476   2.242   3.277   3.818 -0.7961  0.9803  1.0710
11687TIP3    H256477   2.233   3.210   3.954  0.0706 -2.4535 -0.4644
11688TIP3   OH256478   3.336   6.804   0.784  0.5825 -0.2815  0.2611
11688TIP3    H156479   3.393   6.729   0.767  0.2427 -0.6673  0.7869
11688TIP3    H256480   3.269   6.800   0.715  1.0092 -0.0061 -0.1725
11689TIP3   OH256481   6.217   0.500   6.078 -0.0112  0.1140  0.3870
11689TIP3    H156482   6.236   0.432   6.142 -1.8932  0.1666  1.0601
11689TIP3    H256483   6.302   0.540   6.059  0.9700 -1.7265  0.7425
11690TIP3   OH256484   6.284   1.943   0.188  0.8951  0.9110 -0.4160
11690TIP3    H156485   6.324   1.990   0.261 -0.7686  0.8850  0.5421
11690TIP3    H256486   6.208   1.900   0.225 -0.4702  1.5415 -2.3204
11691TIP3   OH256487   1.178   2.447  16.054  0.4464 -0.2795  0.7577
11691TIP3    H156488   1.273   2.458  16.061  0.1961  1.8783  1.4456
11691TIP3    H256489   1.154   2.397  16.133  0.6548  2.3341  2.6083
11692TIP3   OH256490   2.337   4.088  15.612 -0.0214 -0.1768 -0.2621
11692TIP3    H156491   2.263   4.082  15.551 -1.3447  0.4876  1.2077
11692TIP3    H256492   2.305   4.143  15.683  1.6469 -0.5283  0.8158
11693TIP3   OH256493   4.243   5.615  13.442 -0.2036  0.8213  0.0859
11693TIP3    H156494   4.217   5.552  13.510 -0.9297  0.8763 -0.1285
11693TIP3    H256495   4.165   5.669  13.429  0.8633  2.7716  1.3498
11694TIP3   OH256496   1.698   3.468  14.945  0.4942 -0.0718 -0.6265
11694TIP3    H156497   1.697   3.510  14.859  2.6943 -1.3906 -1.3698
11694TIP3    H256498   1.693   3.375  14.926 -0.9228 -0.3329  0.8176
11695TIP3   OH256499   1.822   0.095   9.913  0.7512  0.1898 -0.4161
11695TIP3    H156500   1.829   0.131  10.002  0.4757 -0.0714 -0.2875
11695TIP3    H256501   1.911   0.099   9.879  0.6057  1.7136 -0.6845
11696TIP3   OH256502   1.082   2.036  10.526  0.0681 -0.0326  0.0482
11696TIP3    H156503   1.090   2.102  10.595 -0.6166 -0.9730  1.0407
11696TIP3    H256504   1.165   1.989  10.527  0.0140 -0.1208  0.3086
11697TIP3   OH256505   5.733   5.815  16.391  0.2351  0.0335 -0.1839
11697TIP3    H156506   5.795   5.868  16.341  2.1383 -0.7814  1.1736
11697TIP3    H256507   5.721   5.863  16.473 -2.3588  1.0410 -1.0563
11698TIP3   OH256508   1.315   5.567  12.763  0.3525 -0.1651 -0.3569
11698TIP3    H156509   1.316   5.486  12.712 -1.4399  0.7017 -1.9017
11698TIP3    H256510   1.243   5.554  12.825  0.2577  0.1312 -0.4053
11699TIP3   OH256511   4.020   0.378   0.553  0.6504 -0.3455  0.0445
11699TIP3    H156512   4.092   0.332   0.510  0.9696  1.1546 -1.1027
11699TIP3    H256513   3.944   0.321   0.541  1.1555 -0.8547 -0.7975
11700TIP3   OH256514   5.078   6.682   3.176  0.0969  0.3864 -0.2430
11700TIP3    H156515   5.170   6.684   3.151  0.1658 -1.6903 -0.2930
11700TIP3    H256516   5.078   6.696   3.270  0.3985  0.8301 -0.3026
11701TIP3   OH256517   4.277   0.719   2.596  0.0579  0.2254  0.2175
11701TIP3    H156518   4.198   0.715   2.541  0.8368 -1.6508 -0.8525
11701TIP3    H256519   4.253   0.671   2.676 -0.5805  1.6314  0.9032
11702TIP3   OH256520   5.761   5.701   1.439  0.3743  0.2723 -0.7689
11702TIP3    H156521   5.752   5.778   1.383 -0.1623 -0.7939 -2.2127
11702TIP3    H256522   5.680   5.701   1.492  0.1418  0.4194 -1.1200
11703TIP3   OH256523   3.673   1.083   4.466  0.1880 -0.2574  0.2808
11703TIP3    H156524   3.726   1.092   4.545 -0.6887 -3.0429  1.2997
11703TIP3    H256525   3.698   0.998   4.429 -0.2720  0.4478 -1.8141
11704TIP3   OH256526   5.462   4.886   2.797  0.1746  0.5467 -0.2780
11704TIP3    H156527   5.541   4.935   2.820  0.8973 -0.4771 -0.5144
11704TIP3    H256528   5.427   4.856   2.881  0.7957 -0.1296 -0.2507
11705TIP3   OH256529   4.988   2.365  11.108  0.7905 -0.0414  0.1423
11705TIP3    H156530   5.040   2.404  11.179 -1.0222 -0.5401  1.8649
11705TIP3    H256531   4.980   2.434  11.043  0.8693  1.1830  1.3689
11706TIP3   OH256532   3.695   6.597   5.596  0.4411  0.0073  0.2152
11706TIP3    H156533   3.717   6.617   5.688  0.6603  1.6749 -0.1583
11706TIP3    H256534   3.774   6.557   5.561  0.7154  0.2955  0.4938
11707TIP3   OH256535   4.865   6.677  13.170 -0.2575  0.3327 -0.6678
11707TIP3    H156536   4.908   6.718  13.245 -2.4871 -0.8521  1.3869
11707TIP3    H256537   4.916   6.598  13.153 -0.0508  0.3190 -0.0160
11708TIP3   OH256538   5.275   4.363  13.981 -0.3738  0.3823  0.1977
11708TIP3    H156539   5.346   4.391  14.039 -1.2118 -1.6445  2.4153
11708TIP3    H256540   5.200   4.415  14.008 -0.5293  0.1442  0.2282
11709TIP3   OH256541   0.755   1.005  11.784  0.1476  0.6369  0.4718
11709TIP3    H156542   0.693   1.025  11.714 -0.1138  0.0192  0.5257
11709TIP3    H256543   0.788   0.918  11.764  2.6312  1.7661 -0.7407
11710TIP3   OH256544   5.000   3.507  12.583 -0.5236 -0.3316 -0.1938
11710TIP3    H156545   4.989   3.576  12.518 -0.8127  0.1611  0.3690
11710TIP3    H256546   4.911   3.486  12.610 -0.6964 -2.8542 -2.3051
11711TIP3   OH256547   3.327   5.585   0.019  0.1954 -0.1002  0.6240
11711TIP3    H156548   3.259   5.652   0.010  0.8884  0.6005  0.5037
11711TIP3    H256549   3.399   5.616  -0.037  0.5369 -0.9367  0.5807
11712TIP3   OH256550   0.181   5.987   2.085 -0.3013  0.6745  0.4495
11712TIP3    H156551   0.121   5.996   2.159 -1.4258  0.4233 -0.4190
11712TIP3    H256552   0.146   6.046   2.018 -0.6063 -0.7621 -0.7118
11713TIP3   OH256553   3.744   5.462  11.633  0.1063 -0.1611  0.4891
11713TIP3    H156554   3.663   5.511  11.648 -0.6747 -1.2492  0.0180
11713TIP3    H256555   3.715   5.381  11.590  1.7321  0.6571 -2.4027
11714TIP3   OH256556   6.309   2.342  16.875 -0.2286 -0.6434 -0.6302
11714TIP3    H156557   6.297   2.270  16.813 -1.3004 -1.5693  0.5949
11714TIP3    H256558   6.281   2.306  16.959  0.5320  0.7922  0.2741
11715TIP3   OH256559   5.170   1.812  15.429  0.2050 -0.1904 -0.0386
11715TIP3    H156560   5.200   1.725  15.402  1.3837  0.4993 -1.0307
11715TIP3    H256561   5.251   1.858  15.453 -0.1786  1.2626 -1.4113
11716TIP3   OH256562   3.643   0.894   5.908 -0.1008 -0.2955  0.4074
11716TIP3    H156563   3.682   0.825   5.961  0.7972 -0.4329 -0.4186
11716TIP3    H256564   3.562   0.856   5.874 -0.2278 -0.5099  0.9298
11717TIP3   OH256565   0.174   2.669  12.294 -0.0316  0.3719  0.1571
11717TIP3    H156566   0.127   2.704  12.370  1.1260  2.4603 -0.0246
11717TIP3    H256567   0.133   2.584  12.278  0.1712 -0.5315  3.5938
11718TIP3   OH256568   3.904   0.232  13.747 -0.0732 -0.2971  0.3923
11718TIP3    H156569   3.940   0.202  13.830 -3.0055 -3.2318  0.8040
11718TIP3    H256570   3.810   0.243  13.764 -0.8638 -1.4534 -2.6133
11719TIP3   OH256571   2.539   2.937   4.367  0.2023  0.4327 -0.0609
11719TIP3    H156572   2.489   2.907   4.443  1.7761  0.5386  1.0778
11719TIP3    H256573   2.518   2.875   4.298  0.6771 -1.2387  1.2256
11720TIP3   OH256574   5.484   0.948   0.163  0.4843 -0.7652  0.2707
11720TIP3    H156575   5.463   1.020   0.103 -1.0611 -0.2884  1.3186
11720TIP3    H256576   5.524   0.881   0.107  0.5012  0.2744 -1.0036
11721TIP3   OH256577   5.549   0.826   5.328 -0.2463  0.2861  0.0024
11721TIP3    H156578   5.520   0.843   5.238  1.3711  2.4541 -0.1937
11721TIP3    H256579   5.560   0.731   5.332  0.5346  0.2052 -2.4165
11722TIP3   OH256580   2.166   3.396   1.540 -0.3956 -0.1335 -0.3871
11722TIP3    H156581   2.253   3.417   1.575  0.5514 -0.9319 -2.0900
11722TIP3    H256582   2.105   3.438   1.600  1.1837  1.1152  0.4363
11723TIP3   OH256583   4.558   3.161   2.710 -0.1516  0.0132  0.2526
11723TIP3    H156584   4.498   3.228   2.742 -0.0475 -0.2959  1.1289
11723TIP3    H256585   4.588   3.116   2.789  0.0653 -0.8261 -0.2934
11724TIP3   OH256586   4.199   2.577   0.927  0.5805 -0.3205 -0.1704
11724TIP3    H156587   4.262   2.636   0.885  0.7979 -0.3349  0.1295
11724TIP3    H256588   4.232   2.567   1.016 -0.7325  1.0101  0.5134
11725TIP3   OH256589   6.060   5.677  16.661 -0.0922 -0.0987 -0.8090
11725TIP3    H156590   5.989   5.714  16.715 -0.0503 -1.5810  0.3381
11725TIP3    H256591   6.135   5.675  16.720  1.0167  1.5943 -2.0583
11726TIP3   OH256592   0.007   5.258   0.314 -0.6186 -0.2471 -0.1567
11726TIP3    H156593  -0.031   5.343   0.337 -0.8134 -0.0919 -1.0037
11726TIP3    H256594  -0.011   5.203   0.390 -0.6764  0.4082  0.3193
11727TIP3   OH256595   4.665   3.822  14.997  0.1670 -0.0404 -0.2208
11727TIP3    H156596   4.674   3.728  15.014 -0.7268  0.2714  2.6849
11727TIP3    H256597   4.604   3.828  14.924 -1.8930 -1.7949  1.2168
11728TIP3   OH256598   3.615   2.015   0.183  0.1761 -0.1902 -0.5614
11728TIP3    H156599   3.559   1.947   0.223 -1.2126  0.4798 -1.2931
11728TIP3    H256600   3.560   2.053   0.115  0.4694  2.4917  0.5933
11729TIP3   OH256601   5.380   3.827   2.478  0.2972  0.2494  0.0675
11729TIP3    H156602   5.415   3.886   2.544  0.0884 -0.0052  0.4113
11729TIP3    H256603   5.316   3.773   2.526  2.2607 -1.9730  0.3396
11730TIP3   OH256604   1.734   0.607  14.898 -0.0274  0.0767 -0.0866
11730TIP3    H156605   1.662   0.612  14.836 -0.8125 -0.1320  0.7958
11730TIP3    H256606   1.714   0.673  14.965  0.3366 -0.3154  0.4215
11731TIP3   OH256607   6.712   6.042   1.816  0.3820 -0.6408 -0.2058
11731TIP3    H156608   6.709   5.969   1.754 -1.6114 -1.7233  1.0683
11731TIP3    H256609   6.638   6.097   1.792  0.4545 -0.3033  0.3310
11732TIP3   OH256610   2.168   2.715   1.950  0.0535 -0.1500 -0.1592
11732TIP3    H156611   2.155   2.794   1.898  0.3819 -0.1114 -0.1829
11732TIP3    H256612   2.197   2.747   2.035 -1.6496 -0.1449  0.4548
11733TIP3   OH256613   0.160   6.327   3.042  0.0993 -0.3792 -0.6141
11733TIP3    H156614   0.126   6.401   3.093  2.8395  0.5204  0.0687
11733TIP3    H256615   0.251   6.351   3.023  0.2264 -2.3117 -2.9026
11734TIP3   OH256616   4.773   3.775  16.773 -0.1667 -0.2778  0.0351
11734TIP3    H156617   4.761   3.742  16.861  0.6877 -0.1994  0.1897
11734TIP3    H256618   4.849   3.833  16.779 -3.5172  4.6308  0.5842
11735TIP3   OH256619   0.842   4.190   3.186 -0.2091 -0.2398  0.2997
11735TIP3    H156620   0.793   4.108   3.192  1.1253 -1.1156 -0.3906
11735TIP3    H256621   0.792   4.242   3.122  1.0777 -2.1846 -2.5160
11736TIP3   OH256622   4.419   2.479   3.228  0.1480 -0.3692  1.0308
11736TIP3    H156623   4.351   2.418   3.200  1.2852 -1.9897  1.6565
11736TIP3    H256624   4.407   2.487   3.322 -0.9184  1.6072  0.7770
11737TIP3   OH256625   1.529   0.493   5.535 -0.3886  0.0976  0.5473
11737TIP3    H156626   1.544   0.575   5.488 -3.6754  2.1892  2.6913
11737TIP3    H256627   1.561   0.511   5.624  0.3610 -1.6033  0.6546
11738TIP3   OH256628   6.830   0.293   1.918  0.1185 -0.8837 -0.8033
11738TIP3    H156629   6.737   0.303   1.942 -0.3471 -1.4524 -2.2884
11738TIP3    H256630   6.831   0.295   1.823  1.9414  1.5579 -0.8430
11739TIP3   OH256631   6.623   2.442   6.010 -0.1222  0.5401  0.0968
11739TIP3    H156632   6.585   2.527   5.986 -0.3241 -0.2600 -2.9100
11739TIP3    H256633   6.706   2.439   5.962 -0.7762 -1.4590 -1.0201
11740TIP3   OH256634   3.704   4.739   0.053  0.6770  0.1874  0.2587
11740TIP3    H156635   3.765   4.666   0.041  0.7542  0.4038 -0.6904
11740TIP3    H256636   3.745   4.793   0.121  0.0579 -1.2369  1.8469
11741TIP3   OH256637   4.801   3.118   4.491 -0.2732 -0.0969  0.0107
11741TIP3    H156638   4.715   3.125   4.449 -0.7761  3.1321  1.2801
11741TIP3    H256639   4.781   3.099   4.583  0.5729 -1.9028 -0.1328
11742TIP3   OH256640   4.201   1.325  14.930  0.3158  0.1526 -0.0965
11742TIP3    H156641   4.145   1.250  14.954  0.9954 -0.9498 -1.8054
11742TIP3    H256642   4.199   1.327  14.835  1.8881  1.1178 -0.1387
11743TIP3   OH256643   0.148   3.310   1.685 -0.5068  0.1590 -0.3477
11743TIP3    H156644   0.204   3.279   1.614 -0.4123 -0.4395 -0.0245
11743TIP3    H256645   0.130   3.231   1.736 -0.4828  0.5980  0.3483
11744TIP3   OH256646   5.042   4.661   3.531 -0.4981  0.1278  0.1846
11744TIP3    H156647   5.006   4.737   3.577  0.1585 -0.1018  1.1172
11744TIP3    H256648   5.077   4.606   3.601  0.5440 -0.2306 -0.5892
11745TIP3   OH256649   4.946   1.403   0.703 -0.7128 -0.3793  0.5102
11745TIP3    H156650   5.002   1.327   0.720  0.3263 -0.2246 -1.7623
11745TIP3    H256651   4.864   1.367   0.671  0.8552 -0.7347 -3.7311
11746TIP3   OH256652   2.608   0.283  14.034 -0.2921 -0.0877  0.0307
11746TIP3    H156653   2.549   0.306  13.962 -1.1873  0.3235  0.8784
11746TIP3    H256654   2.645   0.198  14.009 -0.8632 -0.1173 -0.7377
11747TIP3   OH256655   0.661   3.567   2.222  0.6597  0.7356 -0.4918
11747TIP3    H156656   0.726   3.567   2.293  1.0344  0.7777 -0.8318
11747TIP3    H256657   0.711   3.545   2.144 -0.2283 -2.2640 -0.3438
11748TIP3   OH256658   6.618   4.689   4.208  0.3292  0.5487 -0.0226
11748TIP3    H156659   6.523   4.679   4.202  0.0950  1.5363  1.3973
11748TIP3    H256660   6.631   4.782   4.228  1.5636  0.3470  0.1938
11749TIP3   OH256661   6.115   1.452  15.035 -0.0679  0.0262 -0.2996
11749TIP3    H156662   6.131   1.520  14.970 -0.9199 -0.8359 -1.4481
11749TIP3    H256663   6.032   1.476  15.074 -0.6454 -0.6317 -1.0975
11750TIP3   OH256664   0.640   0.816  11.175  0.4717  0.2388 -0.2998
11750TIP3    H156665   0.609   0.790  11.261  1.0110  1.0434  0.1438
11750TIP3    H256666   0.641   0.912  11.177  1.4666  0.2530 -0.8400
11751TIP3   OH256667   4.363   0.952   4.889 -0.2321  0.7079  0.4697
11751TIP3    H156668   4.377   0.982   4.979  2.5065 -0.6574  0.6224
11751TIP3    H256669   4.452   0.945   4.852 -1.0285 -1.8454 -1.2529
11752TIP3   OH256670   1.747   1.507   4.631 -0.5737 -0.9661  0.1913
11752TIP3    H156671   1.669   1.528   4.580 -0.1588 -1.2502 -0.5656
11752TIP3    H256672   1.713   1.487   4.719 -1.3060 -0.6689 -0.0167
11753TIP3   OH256673   4.511   1.263   3.409  0.2185 -0.2444  0.0485
11753TIP3    H156674   4.534   1.324   3.479  0.4970  0.0604 -0.3041
11753TIP3    H256675   4.473   1.188   3.454  0.4984 -0.0980  0.5365
11754TIP3   OH256676   0.670   4.802   0.128 -0.2906  0.6400 -0.3917
11754TIP3    H156677   0.641   4.893   0.141  2.0946  1.8877 -2.7353
11754TIP3    H256678   0.746   4.794   0.186 -2.4103 -1.1312  2.3904
11755TIP3   OH256679   4.249   3.164  13.618  0.3156  0.1629  0.4923
11755TIP3    H156680   4.289   3.137  13.701  0.4236 -1.5444 -0.0657
11755TIP3    H256681   4.319   3.153  13.553 -0.5133 -1.1952 -0.2252
11756TIP3   OH256682   4.112   5.214   2.474 -0.2717  0.1643  0.0082
11756TIP3    H156683   4.041   5.153   2.497 -0.7286  0.3183 -0.9591
11756TIP3    H256684   4.190   5.159   2.470 -0.2177  0.0736  1.5878
11757TIP3   OH256685   4.757   1.103  11.041  0.4191  0.2332  0.2432
11757TIP3    H156686   4.668   1.127  11.065  0.6339  0.2805  1.0155
11757TIP3    H256687   4.747   1.023  10.990 -0.0188 -0.1021  0.8470
11758TIP3   OH256688   5.353   4.151  15.334  0.4376  0.8186  0.9645
11758TIP3    H156689   5.337   4.235  15.292 -1.6544  0.4913  0.9600
11758TIP3    H256690   5.343   4.087  15.263 -0.7714  0.4226  1.4585
11759TIP3   OH256691   6.752   3.361  11.576 -0.0586  0.3101 -0.2481
11759TIP3    H156692   6.716   3.276  11.554  0.5597 -0.2391  0.7806
11759TIP3    H256693   6.845   3.356  11.552  0.2013  0.3399  0.6948
11760TIP3   OH256694   1.033   1.984  13.860 -0.1953  0.3518 -0.1608
11760TIP3    H156695   0.993   1.985  13.773 -1.8746 -1.0979  0.5379
11760TIP3    H256696   1.035   1.891  13.884  2.1474  0.5232  0.5388
11761TIP3   OH256697   4.098   0.245   0.039  0.0754 -0.6477 -0.2135
11761TIP3    H156698   4.136   0.305  -0.024  2.7305 -0.1819  1.6789
11761TIP3    H256699   4.129   0.159   0.013  0.9415 -0.4886  0.2654
11762TIP3   OH256700   4.250   2.597   4.435 -0.0903 -0.5553  0.3644
11762TIP3    H156701   4.289   2.544   4.366 -0.1083 -1.9902  1.4037
11762TIP3    H256702   4.324   2.622   4.491  0.1126  1.6545 -0.7796
11763TIP3   OH256703   1.900   3.441  10.182 -0.2250 -0.0092 -0.1255
11763TIP3    H156704   1.824   3.476  10.226  0.6140  0.3245  1.1048
11763TIP3    H256705   1.922   3.506  10.115 -0.6898  0.1607 -0.1119
11764TIP3   OH256706   0.654   2.202  16.966 -1.2024 -0.0350  0.2347
11764TIP3    H156707   0.689   2.136  17.025 -3.6913 -0.0261  1.8578
11764TIP3    H256708   0.567   2.170  16.942 -0.8651  0.7200 -2.2524
11765TIP3   OH256709   3.725   4.394  16.784 -0.1317  0.2238  0.3261
11765TIP3    H156710   3.757   4.475  16.823 -1.2352  0.0399  1.7164
11765TIP3    H256711   3.780   4.325  16.822 -0.3669  0.1608  0.5548
11766TIP3   OH256712   0.089   2.778  14.189 -0.3233  0.0324 -0.3209
11766TIP3    H156713   0.053   2.691  14.171  1.8883 -1.0977  0.2835
11766TIP3    H256714   0.104   2.816  14.102  0.8414 -1.1730 -0.6772
11767TIP3   OH256715   3.279   5.104  14.122 -0.1271  0.0354  0.5334
11767TIP3    H156716   3.229   5.056  14.187  1.2795 -0.6179  1.1829
11767TIP3    H256717   3.370   5.097  14.152  0.2680  2.0348 -0.0422
11768TIP3   OH256718   2.772   4.401   3.775  0.2683 -0.4414  0.3498
11768TIP3    H156719   2.800   4.472   3.718  0.5621 -1.1293 -0.3778
11768TIP3    H256720   2.785   4.435   3.864  1.0154  0.1700  0.0130
11769TIP3   OH256721   1.759   0.729  15.417  0.0512  0.7077  0.1761
11769TIP3    H156722   1.848   0.695  15.421 -0.7135 -1.4372  0.4950
11769TIP3    H256723   1.733   0.721  15.326  0.5499  2.5063 -0.1699
11770TIP3   OH256724   0.056   2.073  16.491  0.1454  0.4178  0.1638
11770TIP3    H156725   0.070   2.096  16.399  1.8139 -0.8641  0.0459
11770TIP3    H256726  -0.039   2.068  16.500 -0.1309  2.4323 -0.9716
11771TIP3   OH256727   6.786   3.736  10.228  0.2131  0.3750  0.1891
11771TIP3    H156728   6.881   3.740  10.228  0.3685 -1.8882 -0.7651
11771TIP3    H256729   6.762   3.747  10.320  1.1530  3.4996  0.1740
11772TIP3   OH256730   5.501   3.961  11.866 -0.1424  0.0670 -0.4988
11772TIP3    H156731   5.418   3.916  11.854 -0.7291 -0.0682  2.8817
11772TIP3    H256732   5.489   4.046  11.823 -1.7820 -0.2246 -0.6690
11773TIP3   OH256733   5.438   3.069  12.023 -0.2719  0.3328 -0.1139
11773TIP3    H156734   5.489   3.018  12.086 -0.8164 -0.8534 -0.6030
11773TIP3    H256735   5.458   3.160  12.044  0.6130 -0.0716  0.8823
11774TIP3   OH256736   2.422   2.541   5.041  0.2032 -1.3662  0.1750
11774TIP3    H156737   2.342   2.487   5.037 -0.4188 -0.4706 -3.2574
11774TIP3    H256738   2.469   2.519   4.960  2.8253 -0.9001  1.4829
11775TIP3   OH256739   5.400   0.749  13.036  0.5354 -0.1820  0.6733
11775TIP3    H156740   5.481   0.729  12.990  0.4048 -0.1292  0.4222
11775TIP3    H256741   5.392   0.844  13.032  0.4303 -0.1918  0.6495
11776TIP3   OH256742   3.615   3.710  14.666 -0.4542 -0.5815 -0.2540
11776TIP3    H156743   3.681   3.744  14.606 -1.5690  0.0349 -1.1796
11776TIP3    H256744   3.533   3.717  14.617 -1.4974  0.4786  1.5207
11777TIP3   OH256745   4.717   1.551  13.169 -0.4666 -0.1737 -0.0928
11777TIP3    H156746   4.743   1.581  13.256  0.5285 -0.3963 -0.3104
11777TIP3    H256747   4.621   1.548  13.173 -0.4130 -0.7783  1.1913
11778TIP3   OH256748   1.958   2.641   5.144  0.0077  0.1318 -0.3947
11778TIP3    H156749   2.005   2.708   5.095 -0.6531  2.5396  2.0051
11778TIP3    H256750   1.869   2.675   5.153  0.0356 -0.2643  2.1574
11779TIP3   OH256751   3.659   2.826   2.580 -0.8692 -0.4886 -0.2407
11779TIP3    H156752   3.735   2.844   2.525 -1.9095  0.9294 -1.3037
11779TIP3    H256753   3.691   2.839   2.669  0.8168 -2.7007 -0.4360
11780TIP3   OH256754   0.736   1.065   5.720  0.3578  0.1023  0.3645
11780TIP3    H156755   0.675   1.135   5.699  0.3669  0.2846  0.9509
11780TIP3    H256756   0.693   0.986   5.688  1.3585  0.5750 -2.4741
11781TIP3   OH256757   2.454   1.885   0.415 -0.3639 -0.1326  0.2003
11781TIP3    H156758   2.426   1.954   0.356 -1.6006  0.6942  1.6725
11781TIP3    H256759   2.550   1.893   0.418 -0.5501  2.5298  1.4590
11782TIP3   OH256760   0.461   6.673  12.964  0.5668 -0.2592  0.5983
11782TIP3    H156761   0.522   6.619  12.914  1.2301 -0.8343  1.9913
11782TIP3    H256762   0.515   6.741  13.003  0.1896 -0.2802  1.1688
11783TIP3   OH256763   5.687   0.234  14.530 -0.0246  0.2589 -0.1474
11783TIP3    H156764   5.621   0.165  14.525 -0.2590  0.1909  2.4045
11783TIP3    H256765   5.768   0.187  14.552  0.1066  0.6575  0.2263
11784TIP3   OH256766   0.157   2.247  16.926 -0.1338 -1.0911 -0.1080
11784TIP3    H156767   0.223   2.218  16.989  1.8108 -0.5056 -1.7800
11784TIP3    H256768   0.136   2.170  16.874 -0.0825 -1.0490 -0.1903
11785TIP3   OH256769   6.755   0.075   4.356  0.2702 -0.4900  0.4883
11785TIP3    H156770   6.824   0.137   4.382  1.1754 -1.2570 -0.0227
11785TIP3    H256771   6.798   0.018   4.292 -1.7634  1.1604 -2.5791
11786TIP3   OH256772   4.972   5.436   2.457 -0.8089  0.0677 -0.5851
11786TIP3    H156773   4.945   5.384   2.381  2.4365  2.1708 -3.5541
11786TIP3    H256774   4.986   5.524   2.421  1.9078  0.9532  2.2044
11787TIP3   OH256775   4.198   4.721  14.931 -0.0017  0.2156 -0.1725
11787TIP3    H156776   4.279   4.728  14.982 -0.6125 -1.8383  1.1899
11787TIP3    H256777   4.128   4.738  14.995 -0.7330 -0.9225 -0.6400
11788TIP3   OH256778   0.566   5.413  15.647  0.4109 -0.2062 -0.1563
11788TIP3    H156779   0.500   5.441  15.584  0.0309  2.5781  1.3351
11788TIP3    H256780   0.646   5.402  15.596 -0.5263 -0.8617 -1.5368
11789TIP3   OH256781   2.712   2.173  13.855 -0.4370  0.0024  0.1360
11789TIP3    H156782   2.705   2.267  13.837 -0.2897 -0.0571 -0.2351
11789TIP3    H256783   2.621   2.141  13.850 -0.3411 -0.1255 -1.1432
11790TIP3   OH256784   0.400   4.181  10.584 -0.3961 -0.4714 -0.3498
11790TIP3    H156785   0.319   4.202  10.630 -0.9279 -1.1304 -0.9653
11790TIP3    H256786   0.439   4.265  10.562 -1.5274 -0.1263 -1.1136
11791TIP3   OH256787   5.660   4.515   4.815 -0.0551  0.0136  0.0925
11791TIP3    H156788   5.589   4.478   4.761 -0.8477  1.8532 -0.2055
11791TIP3    H256789   5.643   4.481   4.902 -1.2782  0.3157  0.0011
11792TIP3   OH256790   6.360   2.466   5.108  0.6333  0.1175 -0.1429
11792TIP3    H156791   6.312   2.549   5.097  0.1804 -0.2204 -0.8294
11792TIP3    H256792   6.293   2.399   5.095  0.6243 -0.3866  2.1149
11793TIP3   OH256793   3.515   3.810  12.667  0.6733 -0.3622  0.5125
11793TIP3    H156794   3.502   3.718  12.688 -0.2767 -0.9893 -2.3789
11793TIP3    H256795   3.427   3.848  12.671  0.8123  0.0150  0.0009
11794TIP3   OH256796   3.452   1.551  14.763 -0.5583 -0.0099 -0.1733
11794TIP3    H156797   3.539   1.590  14.761 -0.5631 -0.0251 -0.6679
11794TIP3    H256798   3.423   1.562  14.854  0.2346 -0.6195  0.1695
11795TIP3   OH256799   2.112   0.657  13.446 -0.3618  0.2815  0.6001
11795TIP3    H156800   2.067   0.696  13.371  2.5201  1.5726 -0.6346
11795TIP3    H256801   2.172   0.725  13.476  1.5645 -1.6282  1.3616
11796TIP3   OH256802   6.521   4.333   5.014 -0.1906  0.5255 -0.1770
11796TIP3    H156803   6.599   4.281   4.994 -0.6149  0.4442 -1.8021
11796TIP3    H256804   6.537   4.369   5.101  0.5246 -1.5823  0.6421
11797TIP3   OH256805   0.519   6.546  14.133 -0.0266  0.0001  0.3332
11797TIP3    H156806   0.539   6.486  14.061 -0.9313  0.8715 -0.6926
11797TIP3    H256807   0.569   6.625  14.112 -2.2628  1.2135 -0.8106
11798TIP3   OH256808   5.230   4.777   2.459 -0.0392  0.3309  0.4024
11798TIP3    H156809   5.144   4.742   2.484 -0.5477  0.8096 -0.6053
11798TIP3    H256810   5.291   4.738   2.521 -0.5092 -2.5547 -0.7813
11799TIP3   OH256811   5.444   0.048  13.138 -0.1020 -0.0223  0.7462
11799TIP3    H156812   5.495   0.127  13.153 -0.5570  0.3672  0.2523
11799TIP3    H256813   5.460   0.026  13.046 -0.4622 -0.1546  0.7144
11800TIP3   OH256814   3.243   2.436   4.364 -0.2952 -0.4295 -0.3826
11800TIP3    H156815   3.168   2.377   4.357  0.3592 -1.0984 -2.3890
11800TIP3    H256816   3.206   2.524   4.351 -0.9395 -0.5903  0.2929
11801TIP3   OH256817   3.623   3.873   5.857  0.5892 -0.6898 -0.0988
11801TIP3    H156818   3.586   3.807   5.798 -1.2472  0.8351 -0.7730
11801TIP3    H256819   3.594   3.847   5.944 -0.1255 -0.8044 -0.3628
11802TIP3   OH256820   0.854   1.904   2.929  0.1946  0.1188  0.2823
11802TIP3    H156821   0.803   1.943   3.000  0.9465  0.7630  0.4905
11802TIP3    H256822   0.789   1.870   2.868 -0.5358  2.0348 -0.0797
11803TIP3   OH256823   6.251   2.376  11.354  0.1578 -0.3090  0.7904
11803TIP3    H156824   6.341   2.407  11.348  0.1949 -0.6205 -0.5006
11803TIP3    H256825   6.201   2.451  11.385  0.0557  1.5678 -3.2286
11804TIP3   OH256826   1.444   6.740   4.178  0.1847  0.0248  0.2172
11804TIP3    H156827   1.408   6.655   4.154  0.9970 -0.2701 -0.0020
11804TIP3    H256828   1.506   6.761   4.108 -0.6401  1.2127 -0.1799
11805TIP3   OH256829   1.268   1.632   2.719  0.2841  0.4140  0.8184
11805TIP3    H156830   1.199   1.684   2.761  0.7495  1.3324  0.4504
11805TIP3    H256831   1.298   1.685   2.645  1.5312  0.1156  1.0871
11806TIP3   OH256832   4.219   3.444  14.439  0.1867 -0.6553 -0.1774
11806TIP3    H156833   4.206   3.529  14.397  1.6885  0.4766  1.4943
11806TIP3    H256834   4.165   3.447  14.517 -0.4788 -1.6494 -0.5780
11807TIP3   OH256835   6.789   3.661   2.103 -0.5709  0.4169  0.8497
11807TIP3    H156836   6.867   3.683   2.155 -0.5139  1.9737  0.1446
11807TIP3    H256837   6.747   3.745   2.087 -1.4071 -0.2139 -0.3455
11808TIP3   OH256838   2.933   1.386   1.523 -0.5302 -0.5579 -0.2553
11808TIP3    H156839   2.967   1.311   1.572 -0.7522  0.8195  2.2004
11808TIP3    H256840   2.999   1.454   1.534 -1.5884  0.4618 -0.0362
11809TIP3   OH256841   4.238   6.307  16.121  0.2819 -0.2587 -0.2992
11809TIP3    H156842   4.183   6.354  16.058 -0.4562  0.5358  0.8840
11809TIP3    H256843   4.207   6.217  16.118 -0.2211 -0.0816 -0.5773
11810TIP3   OH256844   6.725   4.209   2.662  0.4412 -0.2390 -0.3385
11810TIP3    H156845   6.818   4.186   2.664  0.4621 -0.2220 -0.8415
11810TIP3    H256846   6.684   4.150   2.725  0.9807  0.6669  0.8937
11811TIP3   OH256847   0.025   0.261   1.625 -0.6585 -0.2006  0.4076
11811TIP3    H156848   0.109   0.299   1.647 -0.0588 -0.1388 -1.7580
11811TIP3    H256849   0.022   0.178   1.673  0.3712  0.0762  0.9564
11812TIP3   OH256850   2.097   5.430   0.955 -0.3335  0.7059 -0.3079
11812TIP3    H156851   2.052   5.357   0.913 -2.5826 -0.0328  2.9881
11812TIP3    H256852   2.030   5.497   0.964  0.3992  1.3086  0.9024
11813TIP3   OH256853   5.323   1.464   3.678  0.4394 -0.4062  0.9328
11813TIP3    H156854   5.358   1.534   3.734  0.7517  0.1393  0.0883
11813TIP3    H256855   5.240   1.500   3.644 -0.4531 -1.2847  2.1187
11814TIP3   OH256856   0.111   1.695   0.766  0.3925 -0.1223  0.4197
11814TIP3    H156857   0.168   1.618   0.764 -0.2008 -0.6148  1.4450
11814TIP3    H256858   0.170   1.769   0.752  1.3803 -0.5883  1.8647
11815TIP3   OH256859   5.999   1.228   0.389 -0.0514  0.1309 -0.0690
11815TIP3    H156860   6.015   1.140   0.425 -0.2561  0.2262  0.2557
11815TIP3    H256861   6.073   1.280   0.420 -0.5678  0.3773  0.7769
11816TIP3   OH256862   5.187   2.622   0.493  0.0736 -0.1529 -0.0548
11816TIP3    H156863   5.154   2.670   0.569  0.2805 -1.5926  1.0052
11816TIP3    H256864   5.109   2.590   0.449 -0.0302 -0.4552  0.3415
11817TIP3   OH256865   0.285   5.327   3.904 -0.1071  0.3678 -0.8431
11817TIP3    H156866   0.331   5.344   3.822 -1.4902 -0.2479 -1.8027
11817TIP3    H256867   0.207   5.383   3.900  1.2606  2.6759  1.4997
11818TIP3   OH256868   1.883   3.729  14.104  0.3661  0.0594  0.2401
11818TIP3    H156869   1.831   3.798  14.145 -0.2951 -0.8859  1.0161
11818TIP3    H256870   1.870   3.652  14.159 -1.0897 -1.4663 -2.0380
11819TIP3   OH256871   6.253   0.550  15.707 -0.1478  0.1171  0.0420
11819TIP3    H156872   6.292   0.472  15.666  1.3719  0.6587  0.3915
11819TIP3    H256873   6.301   0.561  15.789  0.6921  2.2304 -0.6677
11820TIP3   OH256874   4.243   1.533   2.070 -0.1165 -0.8556 -0.6391
11820TIP3    H156875   4.154   1.567   2.082  0.3801  0.4987 -0.7038
11820TIP3    H256876   4.297   1.610   2.053  1.1883 -1.5994 -0.0224
11821TIP3   OH256877   2.948   3.734  15.627  0.1887  0.3384 -0.2237
11821TIP3    H156878   2.917   3.818  15.591  0.3800 -0.5668 -2.6953
11821TIP3    H256879   3.030   3.717  15.580 -0.0696 -1.4332 -0.0769
11822TIP3   OH256880   3.142   1.093  12.274  0.3983 -0.4149  0.8262
11822TIP3    H156881   3.127   1.098  12.369 -1.7876 -1.2117  0.5893
11822TIP3    H256882   3.098   1.171  12.239  1.1363 -0.1630  0.4343
11823TIP3   OH256883   2.038   5.443   5.669 -0.1297  0.0444  0.0040
11823TIP3    H156884   1.984   5.497   5.727 -0.7128 -0.7746  0.2416
11823TIP3    H256885   2.124   5.440   5.712 -0.1914  0.4929  0.1636
11824TIP3   OH256886   3.123   1.361  12.150  0.0528  0.0019  0.3619
11824TIP3    H156887   3.205   1.411  12.147 -0.2992  0.5202 -1.8560
11824TIP3    H256888   3.058   1.425  12.180  0.3374 -0.2773  1.6288
11825TIP3   OH256889   4.216   4.898   3.988 -0.1402  1.0784 -0.3390
11825TIP3    H156890   4.303   4.896   3.949  0.6616 -1.1563  1.3614
11825TIP3    H256891   4.231   4.884   4.081 -2.2804  1.6186  0.1422
11826TIP3   OH256892   2.492   0.958  10.595  1.1291 -0.1294  0.3107
11826TIP3    H156893   2.487   0.942  10.501  0.3822  0.6838  0.2000
11826TIP3    H256894   2.508   1.052  10.602 -2.5445  0.5921  1.0113
11827TIP3   OH256895   5.988   4.859   0.587 -0.4143  0.5694 -0.0507
11827TIP3    H156896   5.895   4.879   0.577 -0.1038  1.4073 -1.5459
11827TIP3    H256897   6.031   4.944   0.595  0.2889  0.2354 -0.1473
11828TIP3   OH256898   1.297   3.888  12.688 -0.0047  0.4857  0.1991
11828TIP3    H156899   1.266   3.839  12.764  1.7665 -0.3009  0.4480
11828TIP3    H256900   1.248   3.970  12.692  1.1063  1.1400  3.1105
11829TIP3   OH256901   4.880   5.723  16.740  0.1650  0.1578 -0.1585
11829TIP3    H156902   4.825   5.648  16.717  0.6895 -0.7388  1.3520
11829TIP3    H256903   4.821   5.798  16.737 -1.1002 -0.7364  1.0945
11830TIP3   OH256904   4.870   5.807   2.828 -0.5295 -0.3007  0.0864
11830TIP3    H156905   4.896   5.898   2.815  0.4833 -0.6163 -0.1547
11830TIP3    H256906   4.864   5.772   2.739 -2.8234  0.0175  0.0460
11831TIP3   OH256907   6.457   3.785  12.150  0.2490  1.0037 -0.0713
11831TIP3    H156908   6.503   3.782  12.066  1.4035 -0.0553  0.5575
11831TIP3    H256909   6.446   3.878  12.168 -0.2413  1.2439 -1.5006
11832TIP3   OH256910   5.723   5.885  11.032 -0.2146 -0.4457  0.3484
11832TIP3    H156911   5.786   5.939  10.985 -1.2732  1.0918  0.5939
11832TIP3    H256912   5.743   5.795  11.006  0.8981  0.1457 -0.9506
11833TIP3   OH256913   4.804   5.647  13.119  0.3028 -0.7024  0.1073
11833TIP3    H156914   4.727   5.694  13.150  1.0549 -0.1120  1.1401
11833TIP3    H256915   4.870   5.661  13.187  1.5898 -0.4827 -1.1440
11834TIP3   OH256916   1.676   1.467   1.011  0.3139 -0.3058 -0.0283
11834TIP3    H156917   1.595   1.516   0.995  0.2702 -0.0934  0.7831
11834TIP3    H256918   1.733   1.530   1.055  1.4993  0.0186 -1.9192
11835TIP3   OH256919   4.595   1.538  15.933  0.4175 -0.2901  0.0329
11835TIP3    H156920   4.546   1.513  15.854 -2.3348  2.6902  0.6050
11835TIP3    H256921   4.562   1.479  16.001 -0.9586  0.3739 -0.0274
11836TIP3   OH256922   4.602   1.714  15.396 -0.0047 -0.5691  0.0585
11836TIP3    H156923   4.697   1.723  15.390 -0.2730  2.1146 -1.7136
11836TIP3    H256924   4.584   1.714  15.490  1.5663  2.8509  0.5193
11837TIP3   OH256925   3.545   5.969  13.770  0.3348 -0.0263  0.1345
11837TIP3    H156926   3.529   6.047  13.716 -0.4302 -0.5595 -0.4324
11837TIP3    H256927   3.620   5.927  13.728  0.2745  0.0093 -0.0130
11838TIP3   OH256928   1.071   2.169  10.762 -0.0577 -0.4105  0.1567
11838TIP3    H156929   1.003   2.215  10.812 -0.0188 -1.3507  1.1130
11838TIP3    H256930   1.105   2.104  10.823 -0.8352 -2.4234 -1.4308
11839TIP3   OH256931   6.684   3.141   0.287 -0.8419  0.6191 -0.6069
11839TIP3    H156932   6.630   3.201   0.238 -0.0179  1.7367 -0.1845
11839TIP3    H256933   6.727   3.087   0.220 -0.1988  1.7174 -1.1074
11840TIP3   OH256934   0.342   1.800  10.979 -0.0604 -0.1182  0.7415
11840TIP3    H156935   0.427   1.832  10.951 -0.9062  0.6477 -1.1139
11840TIP3    H256936   0.315   1.860  11.049  0.4020  0.3731  0.5012
11841TIP3   OH256937   3.228   2.793  12.067 -0.1039 -0.5175 -0.4112
11841TIP3    H156938   3.168   2.834  12.129  1.5351  0.8054  0.3485
11841TIP3    H256939   3.270   2.723  12.117  1.8385  1.0807  0.3360
11842TIP3   OH256940   4.162   3.073  12.836 -0.0413  0.0710  0.4042
11842TIP3    H156941   4.136   3.067  12.928  0.7635  0.1129  0.6440
11842TIP3    H256942   4.246   3.026  12.832  1.1596  2.1113  0.1976
11843TIP3   OH256943   3.195   2.960  13.672  0.6635  0.4372  0.1644
11843TIP3    H156944   3.162   3.028  13.731  1.3982 -0.1490  1.2841
11843TIP3    H256945   3.150   2.976  13.590 -3.3689 -1.0317  1.8621
11844TIP3   OH256946   5.569   6.654   1.670  0.0410  0.0764  0.3863
11844TIP3    H156947   5.535   6.627   1.585 -0.5874  1.2441  0.2332
11844TIP3    H256948   5.494   6.645   1.730  0.0138  0.7454  0.4673
11845TIP3   OH256949   1.032   6.585   4.075 -0.0702  0.1153 -0.5020
11845TIP3    H156950   1.051   6.539   3.993 -2.3480 -1.0441 -0.4474
11845TIP3    H256951   1.064   6.526   4.144 -0.6472 -0.2125 -0.5060
11846TIP3   OH256952   5.556   0.652   4.086 -0.3387  0.3006 -0.2357
11846TIP3    H156953   5.497   0.681   4.156 -0.3520 -1.7282  0.6480
11846TIP3    H256954   5.640   0.639   4.129 -0.1543 -0.2285 -0.7432
11847TIP3   OH256955   3.705   4.948  11.333  1.0495 -0.2082  0.1840
11847TIP3    H156956   3.683   4.987  11.248  1.4345  0.7821  0.5223
11847TIP3    H256957   3.620   4.923  11.370  0.9524 -5.5494 -2.6073
11848TIP3   OH256958   0.566   4.971   5.265 -0.3945  0.0627  0.3155
11848TIP3    H156959   0.506   5.044   5.255  0.9391  1.0697 -0.8384
11848TIP3    H256960   0.651   5.012   5.282  0.5966 -1.1013 -1.4550
11849TIP3   OH256961   5.637   6.512  15.144  0.1317 -0.3225  0.4148
11849TIP3    H156962   5.564   6.567  15.174  0.8736 -0.4743  2.6771
11849TIP3    H256963   5.616   6.425  15.178  1.4314 -0.3277  1.2691
11850TIP3   OH256964   2.961   6.166  16.415 -0.0924 -0.4769 -0.1960
11850TIP3    H156965   3.054   6.176  16.398  0.5670 -2.7886  1.5081
11850TIP3    H256966   2.941   6.235  16.479 -0.1187  1.3564 -2.0748
11851TIP3   OH256967   5.997   6.173   1.917  0.0137 -0.2011 -0.2032
11851TIP3    H156968   5.984   6.134   2.004  0.1510 -0.5914 -0.3548
11851TIP3    H256969   6.056   6.247   1.932  2.2252 -1.8331 -0.3177
11852TIP3   OH256970   0.026   2.454   3.391 -0.0359 -0.4017  0.2261
11852TIP3    H156971   0.041   2.526   3.329 -0.3815 -0.6487 -0.1477
11852TIP3    H256972   0.023   2.496   3.477  0.4453 -0.0552  0.0805
11853TIP3   OH256973   0.532   4.336  12.413  0.6285  0.3321  0.3014
11853TIP3    H156974   0.623   4.312  12.429  1.0925 -0.3353 -2.7182
11853TIP3    H256975   0.503   4.275  12.345 -1.5044  1.7217 -0.1340
11854TIP3   OH256976   2.067   3.369  10.991  0.2407  0.1564 -0.2254
11854TIP3    H156977   2.113   3.348  10.909 -1.8348 -0.4388 -1.2970
11854TIP3    H256978   2.043   3.283  11.027  0.0292  0.4536  0.3418
11855TIP3   OH256979   1.288   1.626  12.376 -0.2078  0.1270  0.3219
11855TIP3    H156980   1.291   1.692  12.445  2.4572  1.5358 -0.9814
11855TIP3    H256981   1.220   1.657  12.316 -0.2062  0.7562  0.6379
11856TIP3   OH256982   5.910   3.785   1.222  0.8164  0.1104  0.1733
11856TIP3    H156983   5.915   3.758   1.130 -1.1682  1.1005 -0.2735
11856TIP3    H256984   5.992   3.832   1.238  1.7872 -1.2298 -0.6697
11857TIP3   OH256985   5.243   5.445   1.371 -0.0771 -0.3895 -0.3374
11857TIP3    H156986   5.204   5.429   1.457 -0.1958 -0.0326 -0.3227
11857TIP3    H256987   5.218   5.535   1.350  2.8310  0.7950  0.8054
11858TIP3   OH256988   0.342   6.004   3.735 -0.2528 -0.4636  0.0674
11858TIP3    H156989   0.371   5.930   3.788  0.6686  0.6235  1.1350
11858TIP3    H256990   0.378   6.081   3.779 -4.9481  1.1648  1.7062
11859TIP3   OH256991   6.592   5.310  15.686  0.2686 -0.2740 -0.1233
11859TIP3    H156992   6.620   5.309  15.595 -0.6281 -0.6402 -0.4040
11859TIP3    H256993   6.671   5.287  15.736  1.1896  1.5425 -0.6652
11860TIP3   OH256994   5.046   1.995  14.367 -0.3018 -0.0036  0.1757
11860TIP3    H156995   5.076   2.069  14.421 -2.0413  1.4297 -0.7325
11860TIP3    H256996   5.059   2.024  14.277 -0.6193 -0.9869 -0.1965
11861TIP3   OH256997   5.094   4.113   4.088  0.0993  0.1814 -0.1794
11861TIP3    H156998   5.119   4.038   4.142  0.5247  0.7287  0.4033
11861TIP3    H256999   5.128   4.092   4.001 -0.0825 -0.4494 -0.1042
11862TIP3   OH257000   5.288   1.299  13.361 -0.4765  0.2250 -0.3500
11862TIP3    H157001   5.382   1.304  13.381 -0.1156 -1.9111 -1.2789
11862TIP3    H257002   5.246   1.349  13.431  1.1785 -1.1054  1.7135
11863TIP3   OH257003   2.096   0.444  11.385  0.1063 -0.0580 -0.6409
11863TIP3    H157004   2.047   0.361  11.382  1.5331 -1.0690  1.4519
11863TIP3    H257005   2.170   0.426  11.443  0.7819  2.5583 -0.5679
11864TIP3   OH257006   3.388   1.066   0.928 -0.1069  0.6184  0.1915
11864TIP3    H157007   3.362   1.123   1.000 -0.5066 -0.1395  0.6523
11864TIP3    H257008   3.378   1.121   0.850 -2.5704  0.5853  0.3844
11865TIP3   OH257009   4.928   4.389  13.284 -0.3786 -0.2155  0.7560
11865TIP3    H157010   4.838   4.392  13.251 -0.6849  0.4832  1.6187
11865TIP3    H257011   4.946   4.478  13.313  0.8755 -0.1742 -0.1034
11866TIP3   OH257012   2.585   5.538  10.438  0.3612  0.3676 -0.7643
11866TIP3    H157013   2.617   5.628  10.444  0.3919  0.3631 -0.8459
11866TIP3    H257014   2.662   5.484  10.457  0.0890  0.3655  0.3923
11867TIP3   OH257015   5.346   1.725   0.069  0.0602  0.8354  0.1496
11867TIP3    H157016   5.394   1.769  -0.002 -0.2469  1.5534  0.3761
11867TIP3    H257017   5.257   1.758   0.061 -0.1297  0.4010  0.4588
11868TIP3   OH257018   1.490   6.406  12.378 -0.1401  0.7844 -0.3136
11868TIP3    H157019   1.452   6.491  12.358  1.8166  1.8904  0.3368
11868TIP3    H257020   1.461   6.387  12.468  0.7700  1.6070  0.1718
11869TIP3   OH257021   6.072   2.908   5.639  0.1023 -0.5381 -0.8178
11869TIP3    H157022   6.050   2.943   5.552 -0.0041 -0.2704 -0.6850
11869TIP3    H257023   6.128   2.975   5.678  0.3049 -0.7451 -0.7501
11870TIP3   OH257024   3.616   5.231  16.270 -0.0033 -0.4523  0.7531
11870TIP3    H157025   3.683   5.260  16.331 -1.6423 -0.2366  2.5315
11870TIP3    H257026   3.536   5.273  16.300 -1.1826 -1.6365 -0.5759
11871TIP3   OH257027   5.776   5.810   5.031  0.2098  0.2038 -0.4240
11871TIP3    H157028   5.684   5.822   5.055  0.4176 -0.9966  1.1602
11871TIP3    H257029   5.813   5.898   5.034 -0.7928  0.6555 -0.7350
11872TIP3   OH257030   1.526   3.673  15.058 -0.2013  0.4609  0.0303
11872TIP3    H157031   1.564   3.606  15.001 -1.7454  0.5824 -1.1943
11872TIP3    H257032   1.432   3.669  15.041 -0.6924  0.7708  2.3081
11873TIP3   OH257033   4.206   1.466   4.522  0.9575 -0.1766 -0.1192
11873TIP3    H157034   4.168   1.547   4.555  1.8205  0.2200 -0.0825
11873TIP3    H257035   4.245   1.425   4.598  1.7252  0.0545 -0.3771
11874TIP3   OH257036   5.665   5.426  14.533 -0.0429 -0.1213 -0.0268
11874TIP3    H157037   5.613   5.479  14.593 -0.7036 -1.6560  0.7974
11874TIP3    H257038   5.672   5.480  14.454 -0.9749  1.0408  0.6482
11875TIP3   OH257039   1.834   0.949  14.704  0.3649 -0.2453  0.1553
11875TIP3    H157040   1.895   0.951  14.778 -1.9568 -2.2847  2.3093
11875TIP3    H257041   1.772   1.020  14.722 -0.4659 -1.0275  0.4530
11876TIP3   OH257042   3.234   3.973  16.091  0.2321 -0.3513  0.4589
11876TIP3    H157043   3.221   4.018  16.007 -0.0638 -0.9831  0.1588
11876TIP3    H257044   3.312   3.920  16.077  0.1113 -0.5505  0.5450
11877TIP3   OH257045   4.466   5.085   2.089 -0.5960  0.1585 -0.5944
11877TIP3    H157046   4.491   5.139   2.164 -0.6909  1.2700 -1.3362
11877TIP3    H257047   4.379   5.118   2.063 -0.8247 -0.6117 -0.8189
11878TIP3   OH257048   2.537   6.793  15.035  0.0837 -0.5065 -0.3054
11878TIP3    H157049   2.505   6.721  14.981  0.7892 -0.0877 -1.3273
11878TIP3    H257050   2.466   6.811  15.097 -0.7095 -1.0727 -1.0306
11879TIP3   OH257051   1.725   1.064   4.631  0.4490  0.0863  1.1353
11879TIP3    H157052   1.661   1.106   4.573 -0.0726  0.7186  2.1195
11879TIP3    H257053   1.735   0.976   4.597 -0.6647  0.1042  0.7215
11880TIP3   OH257054   3.958   3.619  16.297 -0.4764  0.5557  0.6790
11880TIP3    H157055   3.958   3.525  16.316 -1.6135  0.5107  0.5175
11880TIP3    H257056   3.983   3.660  16.380  1.4023  0.0783  0.3950
11881TIP3   OH257057   2.328   5.693   1.052  0.8687  0.2338  0.4261
11881TIP3    H157058   2.243   5.737   1.055 -0.4277 -2.0781  0.7029
11881TIP3    H257059   2.373   5.731   0.976 -0.5657  1.2817  0.0686
11882TIP3   OH257060   6.837   6.043  14.489 -0.5509  0.2764  0.3375
11882TIP3    H157061   6.820   5.993  14.409  2.2872  0.3438 -0.4377
11882TIP3    H257062   6.836   5.977  14.559  2.7563 -1.0090 -0.6200
11883TIP3   OH257063   5.052   5.867  12.609 -0.1119 -0.2822  0.6213
11883TIP3    H157064   5.013   5.780  12.600  0.4322 -0.4215 -0.5858
11883TIP3    H257065   5.080   5.872  12.700 -1.7057 -0.6975  1.1627
11884TIP3   OH257066   1.698   3.858   3.755 -0.2343 -0.0131  0.0647
11884TIP3    H157067   1.706   3.777   3.705  2.6578  0.4804 -0.4434
11884TIP3    H257068   1.671   3.924   3.691  1.5049  0.2108 -0.4888
11885TIP3   OH257069   1.573   5.416  16.362  0.1900 -0.5269 -0.2756
11885TIP3    H157070   1.486   5.402  16.324  0.5584 -0.2836 -1.2178
11885TIP3    H257071   1.630   5.355  16.316  0.4730 -0.9406  0.5895
11886TIP3   OH257072   4.460   2.622   4.599 -0.1969 -0.0749 -0.0027
11886TIP3    H157073   4.547   2.608   4.560  0.4030  1.1426  0.8304
11886TIP3    H257074   4.457   2.563   4.674  0.1872  0.3563  0.3585
11887TIP3   OH257075   1.277   5.933   5.212  0.2537 -0.3843  0.1844
11887TIP3    H157076   1.269   5.839   5.194  1.5717 -1.0086  2.4703
11887TIP3    H257077   1.191   5.959   5.245 -0.9806 -0.0724 -2.9274
11888TIP3   OH257078   3.086   0.843   3.482 -0.5005  0.1671  0.0959
11888TIP3    H157079   3.108   0.859   3.573  3.1423 -2.1160 -0.1888
11888TIP3    H257080   3.055   0.752   3.479 -0.1777  0.0692 -0.9676
11889TIP3   OH257081   1.040   4.403   4.029  0.1868 -0.6822 -0.3082
11889TIP3    H157082   0.962   4.406   4.084  0.6138 -2.2526  0.4376
11889TIP3    H257083   1.019   4.340   3.960 -0.2045  0.9878 -1.7882
11890TIP3   OH257084   5.054   0.978   0.938 -0.2482 -0.0032 -0.5937
11890TIP3    H157085   5.114   0.908   0.914  1.3583  0.7664  0.9777
11890TIP3    H257086   5.095   1.057   0.903 -0.3907  0.5297  0.4274
11891TIP3   OH257087   5.533   1.079  11.833 -0.2615 -0.6139 -0.0169
11891TIP3    H157088   5.456   1.111  11.880  0.2136 -0.1573  0.4618
11891TIP3    H257089   5.497   1.027  11.762 -1.1047  1.4206 -1.1702
11892TIP3   OH257090   3.102   3.920   1.248  0.3136 -0.1611 -0.5539
11892TIP3    H157091   3.173   3.861   1.222  1.6554 -0.5237  3.2377
11892TIP3    H257092   3.144   4.006   1.254  0.9431 -0.5536  2.7491
11893TIP3   OH257093   5.234   0.267   2.951  0.0585  0.5017 -0.0038
11893TIP3    H157094   5.178   0.212   2.896  1.6185  0.5645 -1.7255
11893TIP3    H257095   5.220   0.233   3.040  0.9118 -2.6927 -0.9463
11894TIP3   OH257096   5.143   5.275  10.740 -0.1275 -0.0731  0.0239
11894TIP3    H157097   5.233   5.299  10.763  0.1093 -0.2351 -0.7069
11894TIP3    H257098   5.140   5.281  10.645 -0.8581 -0.1916  0.0345
11895TIP3   OH257099   5.706   6.420   4.126  0.8706 -0.4099  0.6679
11895TIP3    H157100   5.642   6.389   4.063  1.1641 -1.5871  0.9318
11895TIP3    H257101   5.665   6.406   4.211  1.4082 -1.0341  0.8318
11896TIP3   OH257102   0.355   1.302  10.386  0.2797  0.3334  0.2601
11896TIP3    H157103   0.261   1.291  10.370  0.5245 -1.9654  0.0645
11896TIP3    H257104   0.380   1.376  10.331 -1.3924  0.9562  0.2812
11897TIP3   OH257105   3.901   2.160   4.447 -1.3480 -0.2223 -0.3114
11897TIP3    H157106   3.899   2.234   4.507 -2.1511 -0.6027  0.1485
11897TIP3    H257107   3.970   2.182   4.384  0.6045 -0.4913  1.6168
11898TIP3   OH257108   4.786   3.539  14.069 -0.1702 -0.2954  0.6282
11898TIP3    H157109   4.707   3.587  14.094 -0.7520 -0.4930 -0.7491
11898TIP3    H257110   4.847   3.554  14.142 -1.2157  0.4441  1.3865
11899TIP3   OH257111   2.138   6.299  15.382 -0.3315 -0.6586  0.3015
11899TIP3    H157112   2.177   6.249  15.453 -0.1018 -1.9130 -0.6715
11899TIP3    H257113   2.211   6.321  15.324 -0.0204  2.8215  1.7857
11900TIP3   OH257114   2.907   4.229   4.087  0.3137 -0.3658  0.0573
11900TIP3    H157115   2.832   4.229   4.146  0.6739  1.0074  0.5446
11900TIP3    H257116   2.875   4.188   4.007 -1.0825  0.5632  0.1067
11901TIP3   OH257117   1.325   0.773   2.250  0.3842  0.5566 -0.1383
11901TIP3    H157118   1.321   0.727   2.167  0.7188  2.0625 -1.0202
11901TIP3    H257119   1.397   0.836   2.240  0.2496  0.9618  1.1872
11902TIP3   OH257120   3.584   4.117  15.401 -0.0050  0.0730  0.3660
11902TIP3    H157121   3.623   4.086  15.320  0.4318 -1.1968  1.0412
11902TIP3    H257122   3.622   4.062  15.470 -2.5196 -0.8610  1.1173
11903TIP3   OH257123   6.316   3.918  11.379  1.0214  0.2457 -0.0666
11903TIP3    H157124   6.311   3.825  11.354 -1.1234 -0.2131  1.7724
11903TIP3    H257125   6.233   3.955  11.349  0.8009  0.9647  1.3528
11904TIP3   OH257126   6.169   5.842  13.847 -0.2180 -0.4934  0.6057
11904TIP3    H157127   6.168   5.841  13.943  2.7009 -1.4842  0.7083
11904TIP3    H257128   6.169   5.935  13.824 -0.8416 -0.2487  1.5440
11905TIP3   OH257129   1.715   4.498   2.909 -0.4260 -0.2027 -0.2166
11905TIP3    H157130   1.798   4.544   2.924  0.1790 -1.4811  0.4467
11905TIP3    H257131   1.658   4.565   2.871  0.0391  1.4535  1.7961
11906TIP3   OH257132   3.817   6.644   4.999 -0.3610  0.6159 -0.9299
11906TIP3    H157133   3.786   6.554   4.986  0.5278  0.3911 -1.6045
11906TIP3    H257134   3.912   6.636   5.002 -0.2741  1.5391 -1.0312
11907TIP3   OH257135   0.992   3.719  14.093  0.2796  0.3049  0.0896
11907TIP3    H157136   1.015   3.740  14.002  2.8555 -1.0204  0.3614
11907TIP3    H257137   0.974   3.625  14.092  0.9046  0.1683  1.0511
11908TIP3   OH257138   2.716   1.288  16.144 -0.0913 -0.4776 -0.8262
11908TIP3    H157139   2.776   1.316  16.074  1.0563 -0.4672  0.1313
11908TIP3    H257140   2.693   1.198  16.122  0.3785 -0.5219 -1.1417
11909TIP3   OH257141   4.581   2.762   4.368 -0.5161  0.0442  0.3833
11909TIP3    H157142   4.572   2.677   4.411  0.3546 -0.3893 -0.2736
11909TIP3    H257143   4.664   2.757   4.321 -0.2524  1.4116  0.6627
11910TIP3   OH257144   5.730   0.070  16.530 -0.0528 -0.2267 -0.6261
11910TIP3    H157145   5.784   0.066  16.451 -1.4209  0.4056 -1.6305
11910TIP3    H257146   5.738   0.161  16.559  0.2524 -0.3974 -0.1592
11911TIP3   OH257147   1.117   3.949   1.351 -0.5921 -0.6096  0.4328
11911TIP3    H157148   1.086   3.860   1.362 -2.2730 -0.0768  0.2763
11911TIP3    H257149   1.210   3.946   1.376 -0.4197 -2.5324 -0.3295
11912TIP3   OH257150   5.224   6.148  14.334  0.7676 -0.1905  0.0602
11912TIP3    H157151   5.265   6.221  14.287 -2.8653 -0.0281 -3.3528
11912TIP3    H257152   5.172   6.191  14.402 -1.5467  0.5951 -2.0823
11913TIP3   OH257153   2.888   4.083  12.309  0.4615 -0.0124 -0.0670
11913TIP3    H157154   2.903   4.176  12.324  1.5751 -0.0146 -1.0269
11913TIP3    H257155   2.830   4.079  12.233  0.1511 -0.1095  0.1685
11914TIP3   OH257156   6.367   2.977   1.505 -0.7326 -0.1018 -0.2486
11914TIP3    H157157   6.365   3.010   1.595  0.3762 -0.5325 -0.0500
11914TIP3    H257158   6.352   3.054   1.450  2.8557  1.0651  0.1485
11915TIP3   OH257159   0.178   3.003   0.714  0.4850  0.0556  0.1204
11915TIP3    H157160   0.250   2.994   0.776  1.1959  0.4480 -0.6253
11915TIP3    H257161   0.221   3.017   0.629 -0.4276 -1.4621 -0.6441
11916TIP3   OH257162   6.445   5.937   1.404 -0.7820 -0.2453  0.0062
11916TIP3    H157163   6.443   5.915   1.497  0.3335  1.2244  0.4129
11916TIP3    H257164   6.368   5.993   1.392 -1.1466 -0.7515 -0.0560
11917TIP3   OH257165   0.541   0.592  15.188  0.1231 -0.5874  0.2161
11917TIP3    H157166   0.518   0.577  15.097 -0.7527  0.7192  0.1922
11917TIP3    H257167   0.460   0.624  15.228  1.0019  0.7959  0.9759
11918TIP3   OH257168   1.525   6.521  14.645  0.2472 -0.4780  0.2108
11918TIP3    H157169   1.614   6.556  14.643  0.0716 -0.0454 -0.3073
11918TIP3    H257170   1.536   6.429  14.667  1.0980 -1.2392 -2.8524
11919TIP3   OH257171   1.169   5.110   0.932  0.5300 -0.1328 -0.4437
11919TIP3    H157172   1.218   5.031   0.910 -0.7650 -0.8058 -1.0475
11919TIP3    H257173   1.107   5.081   0.999  0.3957  0.4980 -0.2887
11920TIP3   OH257174   0.902   3.081   3.227 -1.0059  0.0037  0.1793
11920TIP3    H157175   0.991   3.045   3.226 -0.7650  0.5949  0.1316
11920TIP3    H257176   0.859   3.036   3.300 -0.6975 -0.3509  0.1476
11921TIP3   OH257177   1.826   4.746  13.405  0.0899 -0.2511 -0.2452
11921TIP3    H157178   1.838   4.682  13.334 -0.0241 -0.9209  0.3209
11921TIP3    H257179   1.860   4.701  13.483  1.6760  1.0571 -0.1399
11922TIP3   OH257180   3.885   4.382   0.567  0.4212 -0.3280 -0.3427
11922TIP3    H157181   3.919   4.462   0.606  1.2081 -0.7198 -0.2148
11922TIP3    H257182   3.911   4.387   0.475 -0.0540 -0.1534 -0.4692
11923TIP3   OH257183   4.825   0.219   3.745  0.4507  0.8196 -0.1689
11923TIP3    H157184   4.764   0.231   3.817  0.4874 -0.5981  0.1180
11923TIP3    H257185   4.899   0.172   3.784 -0.3198 -1.6207 -1.4845
11924TIP3   OH257186   5.186   3.717  14.726 -0.6617 -0.5934  0.7026
11924TIP3    H157187   5.102   3.760  14.738 -0.1655  0.4678  0.4772
11924TIP3    H257188   5.251   3.787  14.735  0.0675 -0.7506 -2.2674
11925TIP3   OH257189   3.709   5.341  16.911  0.2724 -0.3249 -0.4776
11925TIP3    H157190   3.680   5.313  16.823  0.5593  0.6026 -0.8784
11925TIP3    H257191   3.755   5.423  16.896 -0.0327  0.0619  0.6044
11926TIP3   OH257192   3.090   2.920  12.739  0.0150  0.4600  0.0778
11926TIP3    H157193   3.073   2.932  12.832 -0.6303 -0.8729  0.1569
11926TIP3    H257194   3.178   2.882  12.736  0.1326  0.7277  0.1285
11927TIP3   OH257195   3.998   0.562  11.790 -0.0218 -0.4362 -0.1752
11927TIP3    H157196   3.991   0.623  11.864 -0.0332  0.9433 -1.2654
11927TIP3    H257197   3.907   0.537  11.772 -0.4139  1.7822 -1.7111
11928TIP3   OH257198   4.328   5.240   5.213 -0.0295  0.0235  0.6631
11928TIP3    H157199   4.373   5.323   5.229 -1.0428  0.4834  1.2019
11928TIP3    H257200   4.399   5.178   5.196  0.6974  1.4550 -2.2505
11929TIP3   OH257201   0.286   2.840  15.795  0.0645 -0.4090  0.2755
11929TIP3    H157202   0.300   2.747  15.811  0.2835 -0.4520 -0.1593
11929TIP3    H257203   0.285   2.879  15.882  0.2134 -0.7830  0.4482
11930TIP3   OH257204   5.868   4.004  15.270 -0.2178  0.1075 -0.1959
11930TIP3    H157205   5.866   3.942  15.197  0.3865 -0.2729  0.0994
11930TIP3    H257206   5.958   3.999  15.302  0.2192  2.1195 -0.9853
11931TIP3   OH257207   6.639   3.117  11.587  0.5517 -0.4028  0.0826
11931TIP3    H157208   6.546   3.126  11.565  0.5227  0.1682  0.4052
11931TIP3    H257209   6.639   3.082  11.676  0.6391  0.2117  0.3250
11932TIP3   OH257210   6.598   4.546   2.319  0.5018 -0.1884 -0.6503
11932TIP3    H157211   6.593   4.584   2.407 -3.8982 -0.1786 -0.6690
11932TIP3    H257212   6.637   4.460   2.332  0.5469  0.0651  1.1810
11933TIP3   OH257213   3.436   5.536   0.526 -0.3462 -0.5779 -0.0426
11933TIP3    H157214   3.423   5.497   0.612 -1.2315  1.3709  0.7437
11933TIP3    H257215   3.514   5.492   0.492 -1.0792 -2.7562  0.9116
11934TIP3   OH257216   3.977   0.789  16.543 -0.1978  0.0649 -0.0452
11934TIP3    H157217   4.055   0.769  16.490 -1.1286 -2.1738 -0.6816
11934TIP3    H257218   3.904   0.760  16.489 -1.3438  0.0099  1.4922
11935TIP3   OH257219   0.124   5.433   0.650 -0.4023  0.2077  0.1191
11935TIP3    H157220   0.134   5.524   0.624  2.4801  0.2298  0.9342
11935TIP3    H257221   0.160   5.429   0.739  1.0176 -1.9763 -0.4636
11936TIP3   OH257222   6.216   6.573   4.325 -0.5483  0.0088  0.1668
11936TIP3    H157223   6.211   6.488   4.281  0.8670  0.5171 -1.0594
11936TIP3    H257224   6.222   6.637   4.254  0.5110  0.9639  1.0674
11937TIP3   OH257225   3.106   1.728   0.816 -1.3385  0.2113  0.3535
11937TIP3    H157226   3.108   1.797   0.750 -1.2166  0.9263  1.0930
11937TIP3    H257227   3.199   1.708   0.833 -1.2248 -3.1238 -2.8662
11938TIP3   OH257228   0.864   3.604  15.636  0.0667 -0.1789 -0.1335
11938TIP3    H157229   0.912   3.594  15.554  0.8515  0.5119  0.2167
11938TIP3    H257230   0.802   3.675  15.619  0.3897  0.1234 -0.0686
11939TIP3   OH257231   1.728   2.307  13.493  0.3461 -0.1903 -0.5748
11939TIP3    H157232   1.733   2.385  13.437  0.0141 -0.1215 -0.5097
11939TIP3    H257233   1.756   2.235  13.437  0.4610 -0.0533 -0.6945
11940TIP3   OH257234   4.003   0.701  11.174  0.4834  0.3921 -0.3939
11940TIP3    H157235   3.957   0.628  11.217 -0.3885  1.1136 -0.0555
11940TIP3    H257236   4.088   0.703  11.217 -0.5334  1.4112  1.7736
11941TIP3   OH257237   5.747   0.601   4.722  0.3848 -0.1490  0.1851
11941TIP3    H157238   5.797   0.533   4.768 -0.0880 -0.7654 -0.2085
11941TIP3    H257239   5.811   0.671   4.707  0.8065 -0.3803  0.8357
11942TIP3   OH257240   4.049   4.755   4.268 -0.0688  0.2577 -0.3025
11942TIP3    H157241   4.086   4.841   4.289 -3.2319  1.5969  0.3837
11942TIP3    H257242   4.015   4.723   4.351  0.3551 -1.3138 -0.7127
11943TIP3   OH257243   1.166   3.900   0.341  0.7924  1.3169  0.2184
11943TIP3    H157244   1.111   3.900   0.419  1.1331  0.1913  0.4713
11943TIP3    H257245   1.194   3.991   0.332 -1.9642  2.1857 -0.5538
11944TIP3   OH257246   0.059   2.196  14.092  0.3783 -0.4144 -0.0134
11944TIP3    H157247   0.103   2.111  14.090 -1.0645 -1.1929 -1.3448
11944TIP3    H257248  -0.020   2.181  14.144  0.2573  0.1851 -0.0191
11945TIP3   OH257249   0.092   3.091  11.038  0.0302 -0.1767  0.0697
11945TIP3    H157250   0.155   3.115  10.970 -0.2630 -0.3009 -0.2494
11945TIP3    H257251   0.075   3.173  11.084 -0.6070  0.1452 -0.7139
11946TIP3   OH257252   6.354   0.383  14.598  0.1172  0.0323 -0.3956
11946TIP3    H157253   6.363   0.299  14.552  0.0594 -0.6539  0.7972
11946TIP3    H257254   6.368   0.449  14.530  1.8176 -0.9368 -1.0591
11947TIP3   OH257255   4.857   3.647   2.923  0.1790  0.3089  0.3555
11947TIP3    H157256   4.904   3.702   2.860 -0.7346  0.0299 -0.5932
11947TIP3    H257257   4.912   3.568   2.931  0.6314  0.6294  0.4147
11948TIP3   OH257258   3.655   5.767   2.259  0.4711  0.0847 -0.2076
11948TIP3    H157259   3.710   5.689   2.268 -0.3897 -0.3760  1.4320
11948TIP3    H257260   3.590   5.743   2.193  0.7207 -0.2706 -0.3271
11949TIP3   OH257261   0.397   4.678   0.434 -0.1051  0.7342 -0.4048
11949TIP3    H157262   0.326   4.629   0.476  1.6609 -0.0656  1.8357
11949TIP3    H257263   0.441   4.723   0.506  2.3767  0.2703 -1.5233
11950TIP3   OH257264   0.384   3.122  13.020 -0.5270  0.7261  0.3593
11950TIP3    H157265   0.412   3.074  13.098  2.5184 -1.6848 -1.9286
11950TIP3    H257266   0.429   3.206  13.025  0.3955  0.2194  0.8064
11951TIP3   OH257267   5.023   2.979   4.452 -0.3419  0.6637  0.1360
11951TIP3    H157268   5.045   3.067   4.483 -1.2444  1.1578 -0.5488
11951TIP3    H257269   4.929   2.971   4.472  0.0020 -0.6697  1.3798
11952TIP3   OH257270   2.245   4.958  11.647 -0.0198  0.5557  0.0777
11952TIP3    H157271   2.257   5.011  11.726 -2.2135  0.9016  0.2433
11952TIP3    H257272   2.310   4.888  11.655  0.9307  1.5369  1.3362
11953TIP3   OH257273   4.534   6.362  12.350 -0.2261  0.3334  0.2132
11953TIP3    H157274   4.578   6.379  12.434  0.5825 -0.2002 -0.0983
11953TIP3    H257275   4.507   6.449  12.320  0.9761  0.7313  0.2183
11954TIP3   OH257276   0.608   2.190  16.475  0.4937  0.2517  0.0392
11954TIP3    H157277   0.594   2.099  16.500  2.2813 -0.5183 -1.4816
11954TIP3    H257278   0.703   2.201  16.478  0.3651  1.7992 -0.6528
11955TIP3   OH257279   2.662   0.482   1.995  0.4757  0.1480 -0.0321
11955TIP3    H157280   2.691   0.559   2.046 -0.2061  0.6739 -0.4237
11955TIP3    H257281   2.615   0.519   1.921 -0.2128 -0.6632 -0.0146
11956TIP3   OH257282   2.678   2.850   5.815  1.0233 -0.7446 -0.3290
11956TIP3    H157283   2.739   2.789   5.773  0.8731 -0.2558 -1.2982
11956TIP3    H257284   2.611   2.867   5.748 -0.1375 -1.2009  0.6791
11957TIP3   OH257285   0.399   2.052   5.779  0.3767  1.0486 -0.0769
11957TIP3    H157286   0.418   2.102   5.859  0.9061  2.1249 -0.8571
11957TIP3    H257287   0.344   2.110   5.727 -0.5660  0.0671 -0.2014
11958TIP3   OH257288   3.129   0.419  12.633 -0.6344 -0.2782 -0.1276
11958TIP3    H157289   3.179   0.354  12.583 -0.6227  0.2375 -0.7979
11958TIP3    H257290   3.141   0.501  12.585 -0.3282  0.3154  0.9186
11959TIP3   OH257291   3.237   2.599   0.794  0.6323  0.0135 -0.2173
11959TIP3    H157292   3.245   2.536   0.722  1.6466 -2.3574  1.8386
11959TIP3    H257293   3.244   2.546   0.873  0.4196  2.6248  1.6628
11960TIP3   OH257294   2.109   5.482  13.128 -0.3292  0.0834 -0.4864
11960TIP3    H157295   2.048   5.552  13.103 -0.5946  0.2428  0.5331
11960TIP3    H257296   2.090   5.411  13.068 -1.0403  0.3864 -0.6349
11961TIP3   OH257297   4.853   6.520  16.565  0.2648 -0.2272  0.2138
11961TIP3    H157298   4.807   6.440  16.540  0.7412 -0.5504  0.3569
11961TIP3    H257299   4.879   6.506  16.656 -0.6098  0.5474  0.5923
11962TIP3   OH257300   4.118   2.929  11.681  0.3681 -0.2927 -0.7857
11962TIP3    H157301   4.187   2.865  11.701  1.2869  0.4367 -1.5506
11962TIP3    H257302   4.106   2.923  11.587  0.5580  0.7313 -0.8912
11963TIP3   OH257303   1.340   2.344  14.143  0.7041 -0.4003 -0.1008
11963TIP3    H157304   1.259   2.368  14.189  0.5354 -0.9414 -0.1046
11963TIP3    H257305   1.320   2.360  14.051  0.8928  0.2705 -0.0271
11964TIP3   OH257306   6.566   6.195  12.101 -0.2319  0.3001  0.1637
11964TIP3    H157307   6.598   6.249  12.173 -0.1393 -0.3523  0.6131
11964TIP3    H257308   6.631   6.125  12.093  1.3440  1.8298 -2.3733
11965TIP3   OH257309   1.929   0.941  10.874  0.0129 -0.1977 -0.2050
11965TIP3    H157310   1.973   0.919  10.792  0.4515 -2.7999  0.6269
11965TIP3    H257311   1.936   1.036  10.880 -0.5494  0.1623 -3.4253
11966TIP3   OH257312   2.808   2.014  13.342  0.2905  0.5292 -0.1894
11966TIP3    H157313   2.876   2.068  13.302 -1.6332  1.3274 -2.5803
11966TIP3    H257314   2.801   2.048  13.431  2.2751  1.0790 -0.1784
11967TIP3   OH257315   4.219   1.635  12.958 -0.1458 -0.3997  0.2442
11967TIP3    H157316   4.210   1.665  13.048  0.0091 -1.3106  0.5698
11967TIP3    H257317   4.211   1.715  12.905  0.5969  0.2548  1.0947
11968TIP3   OH257318   3.116   4.275  15.236 -0.3559 -0.5987 -0.0723
11968TIP3    H157319   3.126   4.180  15.232 -3.9401 -1.0648 -0.7837
11968TIP3    H257320   3.097   4.300  15.146  0.0110  0.7598  0.2109
11969TIP3   OH257321   0.415   0.563   1.810 -0.1610  0.1189 -0.0302
11969TIP3    H157322   0.482   0.631   1.796  1.1679 -1.2641 -0.6340
11969TIP3    H257323   0.465   0.485   1.834 -1.6526 -0.6948  0.5694
11970TIP3   OH257324   4.461   1.065   0.503  0.2394  0.4073  0.3959
11970TIP3    H157325   4.481   1.030   0.416  0.4865 -0.5379  0.8223
11970TIP3    H257326   4.401   1.137   0.486 -0.3967 -0.3060 -0.5119
11971TIP3   OH257327   3.909   0.737   1.552 -0.0080 -0.0510  0.0375
11971TIP3    H157328   3.962   0.756   1.630 -1.1874  1.0536  0.6016
11971TIP3    H257329   3.958   0.775   1.480  1.4365 -1.6610  0.0993
11972TIP3   OH257330   2.145   1.290   1.856 -0.0201  0.0676 -0.1709
11972TIP3    H157331   2.165   1.211   1.907  1.0795  1.2936  1.4096
11972TIP3    H257332   2.231   1.323   1.829 -0.5166  0.2964 -1.5429
11973TIP3   OH257333   2.046   4.844  15.374  0.4714 -0.0677 -0.5991
11973TIP3    H157334   2.014   4.882  15.455 -1.9076 -2.0817 -0.4768
11973TIP3    H257335   2.028   4.911  15.307  1.9371  1.3730  0.3728
11974TIP3   OH257336   5.062   1.707   4.017 -0.4554  0.0296 -0.2915
11974TIP3    H157337   5.035   1.644   4.084 -0.5179 -1.9824 -2.1227
11974TIP3    H257338   5.151   1.682   3.995 -0.8602 -0.1390 -1.8087
11975TIP3   OH257339   0.253   5.707  12.816 -0.4200 -0.4027  0.4801
11975TIP3    H157340   0.273   5.770  12.886 -1.8214 -0.9756  1.4407
11975TIP3    H257341   0.336   5.693  12.772  0.6291 -0.4104  2.3613
11976TIP3   OH257342   0.085   3.036  15.605  0.1138  0.0396 -0.0228
11976TIP3    H157343   0.043   3.009  15.524 -0.6404 -2.0118  0.9896
11976TIP3    H257344   0.175   3.004  15.597  0.2694  0.5404 -0.3511
11977TIP3   OH257345   1.698   0.794   0.469  0.4701  0.5202  0.4818
11977TIP3    H157346   1.700   0.823   0.377  0.5969 -1.5686 -0.2352
11977TIP3    H257347   1.751   0.715   0.470  0.5383  0.5491  2.4157
11978TIP3   OH257348   0.154   2.715   2.490  0.1140  0.0320 -0.5357
11978TIP3    H157349   0.244   2.712   2.521 -0.3607 -0.8094  0.8510
11978TIP3    H257350   0.149   2.794   2.436  1.5441  0.3466 -0.2327
11979TIP3   OH257351   1.393   4.651  16.983 -0.2102 -0.2423  0.0958
11979TIP3    H157352   1.444   4.729  17.004 -0.1725 -0.4211  0.7109
11979TIP3    H257353   1.381   4.607  17.068 -1.6166 -0.0641  0.0117
11980TIP3   OH257354   4.338   2.185  14.893 -0.0701  0.0733  0.2813
11980TIP3    H157355   4.352   2.102  14.938 -2.3153 -0.3288  0.3618
11980TIP3    H257356   4.244   2.187  14.876  0.2877  1.4995 -1.8895
11981TIP3   OH257357   6.544   6.194   3.434  0.8088  0.4521  0.2809
11981TIP3    H157358   6.525   6.242   3.354  1.1991  1.3843  0.7264
11981TIP3    H257359   6.560   6.262   3.499  1.7760 -0.2896  0.8419
11982TIP3   OH257360   0.059   4.921   5.930 -0.6162 -0.3033 -0.2983
11982TIP3    H157361   0.075   4.863   5.856  2.4021 -3.4692  2.4431
11982TIP3    H257362  -0.026   4.893   5.965 -1.1974 -0.0292 -1.4442
11983TIP3   OH257363   1.973   3.875  16.696  0.0008  0.1783 -0.5189
11983TIP3    H157364   2.066   3.892  16.688  0.3565 -1.4416 -0.1207
11983TIP3    H257365   1.931   3.959  16.675  1.5449  1.0935 -0.0824
11984TIP3   OH257366   1.408   4.680  14.952  0.1876  1.0144 -0.0989
11984TIP3    H157367   1.473   4.654  14.886  1.9236  1.5233  1.3389
11984TIP3    H257368   1.420   4.775  14.961 -1.5868  1.3133 -0.6353
11985TIP3   OH257369   0.742   2.236   4.949  0.1385  0.2953  0.0374
11985TIP3    H157370   0.727   2.329   4.968  0.4944  0.5952 -1.0755
11985TIP3    H257371   0.831   2.233   4.912 -0.7628 -0.1039 -2.2831
11986TIP3   OH257372   4.444   1.906   3.305  0.8432 -0.0401 -0.4975
11986TIP3    H157373   4.372   1.966   3.324  0.7078 -0.1292 -0.7254
11986TIP3    H257374   4.513   1.931   3.367  1.9740  2.3757 -2.5809
11987TIP3   OH257375   3.096   0.983   5.731 -0.4539 -0.1046  0.4486
11987TIP3    H157376   3.074   1.009   5.821 -0.7216  0.3757  0.2517
11987TIP3    H257377   3.131   0.895   5.739 -1.1044 -0.3263  0.9481
11988TIP3   OH257378   6.216   4.227  10.322 -0.3080 -0.3363  0.5043
11988TIP3    H157379   6.191   4.143  10.360 -0.3929 -0.1296  0.9232
11988TIP3    H257380   6.311   4.230  10.330 -0.4465  0.6789  2.9030
11989TIP3   OH257381   4.319   2.569  15.022  0.1938  0.4366 -0.1804
11989TIP3    H157382   4.308   2.660  15.049  0.4291  0.4614 -0.1689
11989TIP3    H257383   4.409   2.547  15.045  0.1024  0.1620 -0.0682
11990TIP3   OH257384   1.497   4.623   2.203 -0.6470  0.1508 -0.5121
11990TIP3    H157385   1.483   4.541   2.157 -0.2878 -0.9097  1.1853
11990TIP3    H257386   1.444   4.687   2.155 -0.1015 -0.8244 -2.4913
11991TIP3   OH257387   2.997   0.281   0.060 -0.2932  0.1704  0.2123
11991TIP3    H157388   2.969   0.253   0.148 -2.1898  1.2441  0.0025
11991TIP3    H257389   2.999   0.200   0.009 -2.6511 -0.0576  0.3940
11992TIP3   OH257390   4.629   2.858  14.041 -0.7985 -0.1546  0.0575
11992TIP3    H157391   4.718   2.866  14.077 -0.2482  1.4077 -1.5186
11992TIP3    H257392   4.580   2.812  14.109  1.0614 -0.5195  1.2292
11993TIP3   OH257393   1.292   2.556  15.458  0.3140  0.4370 -0.5785
11993TIP3    H157394   1.210   2.518  15.491 -0.0670  0.8829 -0.9986
11993TIP3    H257395   1.265   2.637  15.416  1.2904  2.1101  1.8380
11994TIP3   OH257396   3.995   6.569   1.319 -0.4887 -0.5919 -0.2094
11994TIP3    H157397   3.960   6.524   1.396 -1.1474  0.4107  0.0828
11994TIP3    H257398   4.046   6.501   1.274 -1.6537 -1.7090  0.0851
11995TIP3   OH257399   1.762   2.345  16.504 -0.0530 -0.1473 -0.0027
11995TIP3    H157400   1.851   2.333  16.471  0.0531 -2.1893  0.8884
11995TIP3    H257401   1.773   2.382  16.592 -0.2234  1.7960 -0.7321
11996TIP3   OH257402   5.867   5.418   3.294  0.0772  0.0366  0.6465
11996TIP3    H157403   5.863   5.505   3.254 -0.1313  0.7662  2.1990
11996TIP3    H257404   5.777   5.385   3.289  0.2920 -0.4157 -0.5881
11997TIP3   OH257405   1.114   0.914  12.878  0.5898 -0.3616  0.1908
11997TIP3    H157406   1.126   0.827  12.916 -0.3643 -0.7434 -0.3255
11997TIP3    H257407   1.198   0.958  12.889  0.9209 -1.1635  0.9331
11998TIP3   OH257408   0.400   2.443  13.917  0.2891  0.1682  0.2723
11998TIP3    H157409   0.472   2.498  13.887  0.8413 -1.0666 -0.7335
11998TIP3    H257410   0.399   2.455  14.012  3.8259 -2.0684  0.7623
11999TIP3   OH257411   1.776   1.399  11.584 -0.0711 -0.4813  0.0522
11999TIP3    H157412   1.735   1.322  11.623 -0.9649 -0.6012 -1.0560
11999TIP3    H257413   1.725   1.473  11.617 -1.3671 -0.6437 -1.4659
12000TIP3   OH257414   0.189   2.824   0.342  0.5826 -0.3587 -0.0364
12000TIP3    H157415   0.262   2.878   0.311 -0.0484 -0.0303 -0.9923
12000TIP3    H257416   0.230   2.757   0.397  1.5049  0.3456  0.1475
12001TIP3   OH257417   6.801   5.331   2.491  0.1954 -0.5036  0.1605
12001TIP3    H157418   6.760   5.245   2.489  1.2774 -1.0457 -1.5835
12001TIP3    H257419   6.815   5.353   2.398 -0.5329  1.7979  0.5277
12002TIP3   OH257420   0.723   0.047   4.493  0.0079  0.3523 -0.2814
12002TIP3    H157421   0.628   0.052   4.488 -0.0194  1.1915  0.7086
12002TIP3    H257422   0.752   0.139   4.489  0.8359  0.0732 -1.4499
12003TIP3   OH257423   1.172   5.528  15.234 -0.4769 -0.3117 -0.1970
12003TIP3    H157424   1.218   5.607  15.208 -0.3562 -0.8407 -1.6752
12003TIP3    H257425   1.092   5.527  15.180 -1.0807 -0.5843  0.6744
12004TIP3   OH257426   2.841   3.887   4.421 -0.6907  0.3673  0.6432
12004TIP3    H157427   2.803   3.812   4.466 -1.3745  0.9229  0.9994
12004TIP3    H257428   2.820   3.962   4.476  1.5620  0.6384  1.2603
12005TIP3   OH257429   5.750   1.568  10.947 -0.6463  0.0883  0.4002
12005TIP3    H157430   5.667   1.614  10.930 -0.4905  0.3882  0.4439
12005TIP3    H257431   5.782   1.606  11.029 -0.7797 -0.4760  0.7169
12006TIP3   OH257432   4.920   2.682  12.986  0.6296 -0.0090 -0.0263
12006TIP3    H157433   4.968   2.602  12.963  1.0073  0.5861 -1.3495
12006TIP3    H257434   4.977   2.727  13.048  1.5087  0.3680 -1.0799
12007TIP3   OH257435   6.329   3.173  10.956  0.4112 -0.3458 -0.8162
12007TIP3    H157436   6.350   3.116  11.030  0.4934  0.2623 -0.3729
12007TIP3    H257437   6.256   3.227  10.986  1.4977  1.0494 -0.5806
12008TIP3   OH257438   5.650   2.843   1.379 -1.0786  0.3194  0.0822
12008TIP3    H157439   5.687   2.756   1.366 -0.1649  0.5280  1.0454
12008TIP3    H257440   5.684   2.895   1.307 -0.5830  0.1694  0.2023
12009TIP3   OH257441   6.362   1.593   3.563  0.7033  0.6481 -0.1979
12009TIP3    H157442   6.435   1.609   3.504 -0.5587  0.6203 -1.8490
12009TIP3    H257443   6.392   1.625   3.648  2.7318  0.3280 -0.7374
12010TIP3   OH257444   2.867   0.447   2.886  0.1843 -0.8975 -0.2050
12010TIP3    H157445   2.820   0.531   2.878  1.2073 -0.3932 -1.1660
12010TIP3    H257446   2.807   0.392   2.936  0.6551  1.2837  3.0813
12011TIP3   OH257447   5.777   1.050  15.007 -0.0038 -0.0363 -0.7774
12011TIP3    H157448   5.869   1.025  15.012  0.6526  1.9783 -1.4503
12011TIP3    H257449   5.772   1.132  15.056 -1.6953 -0.6541  0.1796
12012TIP3   OH257450   5.652   1.584   1.731  0.3453  0.2520 -0.2658
12012TIP3    H157451   5.630   1.496   1.760  1.0490  0.1568  0.0029
12012TIP3    H257452   5.602   1.597   1.650  0.2175 -0.3815 -0.2871
12013TIP3   OH257453   2.403   6.315  13.900  0.0916 -0.4988  0.0646
12013TIP3    H157454   2.457   6.344  13.826 -0.5869 -1.4281 -0.8179
12013TIP3    H257455   2.380   6.395  13.946 -0.0403  0.1700 -1.1317
12014TIP3   OH257456   6.640   5.744  14.891 -0.7670  0.0036 -0.0808
12014TIP3    H157457   6.697   5.676  14.927 -1.1206 -0.7184 -0.8735
12014TIP3    H257458   6.558   5.699  14.871 -0.8928  0.5837 -0.9239
12015TIP3   OH257459   5.233   6.095   4.872  0.3957 -0.6896 -0.9820
12015TIP3    H157460   5.231   6.045   4.953  0.0432  0.8094 -0.0181
12015TIP3    H257461   5.149   6.077   4.830 -0.3270  0.1535  0.0532
12016TIP3   OH257462   6.148   0.123   3.219 -0.0130  0.0478 -0.2605
12016TIP3    H157463   6.106   0.174   3.287  0.2161 -0.3154  0.1588
12016TIP3    H257464   6.242   0.131   3.237  0.0092 -2.3556  1.2288
12017TIP3   OH257465   4.054   5.543   1.321  0.2777 -0.1321  0.6640
12017TIP3    H157466   4.075   5.459   1.362  1.1448 -0.1336  0.2366
12017TIP3    H257467   4.110   5.606   1.365  0.9969 -0.0846 -0.2792
12018TIP3   OH257468   0.633   5.399   0.630 -0.5899 -0.0653  0.2388
12018TIP3    H157469   0.578   5.467   0.591  0.7139  1.0688  0.3131
12018TIP3    H257470   0.577   5.322   0.633 -1.4424  0.4076 -1.8387
12019TIP3   OH257471   3.960   3.325   6.302  0.1785  0.4929 -0.4434
12019TIP3    H157472   4.012   3.366   6.371  0.8675  0.0102 -0.6749
12019TIP3    H257473   4.007   3.245   6.280 -0.1330  0.5449 -1.3451
12020TIP3   OH257474   5.644   3.736   3.132  0.5053 -1.1072  0.9915
12020TIP3    H157475   5.618   3.645   3.116 -0.7531 -0.3520 -1.9200
12020TIP3    H257476   5.675   3.767   3.047  0.1896  1.4201  1.7198
12021TIP3   OH257477   0.134   5.148  14.473 -0.5639  0.3708  0.0509
12021TIP3    H157478   0.071   5.081  14.503 -1.5057 -0.0277 -2.5309
12021TIP3    H257479   0.199   5.098  14.423  0.0671  1.1527  0.0812
12022TIP3   OH257480   5.049   4.169   1.605 -0.2616  0.2178 -0.3702
12022TIP3    H157481   5.101   4.090   1.593  3.1720  1.9065  1.7976
12022TIP3    H257482   5.006   4.157   1.689  0.7451  0.8402  0.2494
12023TIP3   OH257483   3.219   6.756   5.589  0.0328  0.5031 -0.1058
12023TIP3    H157484   3.241   6.774   5.681  1.0323 -0.4467 -0.1370
12023TIP3    H257485   3.300   6.724   5.551 -0.5753  0.1410 -1.1373
12024TIP3   OH257486   2.270   2.035   5.060 -0.5865  0.2136 -0.4585
12024TIP3    H157487   2.308   2.092   4.993  0.7594 -0.8504 -0.6407
12024TIP3    H257488   2.298   1.947   5.036 -0.2760 -0.2317  1.3625
12025TIP3   OH257489   0.678   2.065  15.783 -0.0990 -0.7109 -0.1815
12025TIP3    H157490   0.774   2.058  15.783  0.0208  0.6426  0.1478
12025TIP3    H257491   0.656   2.081  15.875 -0.2987  2.4036 -0.6558
12026TIP3   OH257492   4.843   0.441  11.282 -0.3317 -0.3828 -0.1810
12026TIP3    H157493   4.821   0.489  11.362  1.5716  2.3807 -1.1765
12026TIP3    H257494   4.936   0.459  11.268 -0.3071 -1.8336 -2.3611
12027TIP3   OH257495   2.820   1.046   1.232 -0.0728  0.0465  0.7356
12027TIP3    H157496   2.820   1.135   1.267 -0.2454  0.0593  0.7019
12027TIP3    H257497   2.893   1.046   1.169 -0.3688  0.3029  0.3858
12028TIP3   OH257498   6.715   2.495  15.091 -0.3081 -0.6635 -0.4630
12028TIP3    H157499   6.685   2.419  15.140 -0.0723 -0.0775  0.6258
12028TIP3    H257500   6.782   2.460  15.031 -1.6959 -1.6339 -1.4940
12029TIP3   OH257501   3.930   5.466   1.636  0.0384 -0.0090  0.3016
12029TIP3    H157502   4.022   5.487   1.648  0.2616 -0.8029 -0.0008
12029TIP3    H257503   3.885   5.550   1.651  0.8204  0.4510  0.1505
12030TIP3   OH257504   5.868   6.115  12.468 -0.2989 -0.1838 -0.2829
12030TIP3    H157505   5.853   6.046  12.533  0.3207 -1.3204 -1.3175
12030TIP3    H257506   5.914   6.071  12.396  1.0926  1.5440 -0.5110
12031TIP3   OH257507   5.016   4.784  13.860  0.1096  0.4023 -0.3332
12031TIP3    H157508   5.090   4.801  13.802 -0.2048 -2.2470 -1.6576
12031TIP3    H257509   5.051   4.728  13.929 -0.3552  0.2823 -0.1863
12032TIP3   OH257510   6.472   6.415  11.964  0.4530 -0.2457  0.2519
12032TIP3    H157511   6.490   6.328  12.000 -0.6736 -0.4899  0.2642
12032TIP3    H257512   6.549   6.435  11.910  1.7455 -0.2844  1.9860
12033TIP3   OH257513   0.491   6.472   5.292  0.0972 -0.4333  0.3245
12033TIP3    H157514   0.461   6.541   5.233 -0.5095 -0.9853 -0.0274
12033TIP3    H257515   0.417   6.411   5.298  0.3063 -0.6162  1.3108
12034TIP3   OH257516   5.784   4.594   0.235 -0.1296  0.2555  0.2897
12034TIP3    H157517   5.770   4.689   0.231 -0.5045  0.1869 -0.0636
12034TIP3    H257518   5.878   4.584   0.216 -0.6320  0.3755 -2.9493
12035TIP3   OH257519   3.637   4.343   0.651  0.2274  0.0375  0.5611
12035TIP3    H157520   3.720   4.340   0.603  0.1403  0.5755  0.3681
12035TIP3    H257521   3.596   4.259   0.633 -0.4762  0.7375 -1.5576
12036TIP3   OH257522   0.406   1.742   5.106  0.7284 -0.0119  1.1325
12036TIP3    H157523   0.340   1.811   5.101  1.6267  0.8078 -0.1792
12036TIP3    H257524   0.442   1.750   5.195 -0.8250 -0.4174  1.8304
12037TIP3   OH257525   3.538   6.035  10.874  0.4749 -0.7826  0.3265
12037TIP3    H157526   3.506   5.970  10.812  0.3576 -1.3500  0.9570
12037TIP3    H257527   3.539   5.989  10.958 -0.7944  0.4085  1.0284
12038TIP3   OH257528   0.982   0.675   4.737 -0.0167 -0.3494  0.0654
12038TIP3    H157529   1.058   0.715   4.695  0.9474 -0.7192  1.4058
12038TIP3    H257530   0.907   0.707   4.687  0.9895  0.2856 -1.0745
12039TIP3   OH257531   0.867   6.344  14.842 -0.2185 -1.1592  0.3865
12039TIP3    H157532   0.835   6.383  14.761  0.1468 -2.3768 -0.3800
12039TIP3    H257533   0.924   6.410  14.880 -1.3178 -0.1178  0.2642
12040TIP3   OH257534   4.572   0.239  15.736 -0.2890 -0.0376 -0.1439
12040TIP3    H157535   4.639   0.177  15.764 -0.0044  0.9524  1.5051
12040TIP3    H257536   4.602   0.270  15.651  1.3560  0.3791  0.5513
12041TIP3   OH257537   5.827   3.563  14.216 -0.1134 -0.3025  0.3340
12041TIP3    H157538   5.891   3.551  14.286 -0.4155 -1.3318  0.4489
12041TIP3    H257539   5.854   3.502  14.148  0.8955  1.5370 -1.0037
12042TIP3   OH257540   6.751   2.520   1.983 -0.1658  0.1753 -0.3412
12042TIP3    H157541   6.707   2.536   1.900  0.8691  3.5863 -0.3844
12042TIP3    H257542   6.685   2.543   2.049 -0.2290 -0.2165 -0.2662
12043TIP3   OH257543   1.039   2.236  16.716  0.4550 -0.0556 -0.7711
12043TIP3    H157544   1.052   2.330  16.719 -0.0533  0.0064 -0.3992
12043TIP3    H257545   1.106   2.204  16.655  0.9203  0.4880 -0.5508
12044TIP3   OH257546   2.231   4.816  11.945 -0.3942 -0.2635  1.0972
12044TIP3    H157547   2.315   4.838  11.985 -0.2582  2.6143 -0.5142
12044TIP3    H257548   2.241   4.725  11.916  1.8111 -0.2957  1.7725
12045TIP3   OH257549   2.000   6.509  14.846 -0.4070  0.1391 -0.1391
12045TIP3    H157550   2.049   6.590  14.860  0.5531 -0.4357 -0.0699
12045TIP3    H257551   2.067   6.441  14.846 -0.8013 -0.3948 -3.1426
12046TIP3   OH257552   2.435   4.741   4.792  0.1103  0.1001 -0.4454
12046TIP3    H157553   2.413   4.677   4.724 -0.0291  1.5166 -1.7848
12046TIP3    H257554   2.350   4.767   4.828 -0.0309  1.0999 -1.4258
12047TIP3   OH257555   1.803   1.818   1.953  0.2169 -0.1910  0.2583
12047TIP3    H157556   1.787   1.805   2.046 -0.5708  0.4949  0.2307
12047TIP3    H257557   1.796   1.730   1.915  0.1031 -0.4112  0.7877
12048TIP3   OH257558   1.645   0.840  16.540  0.5660 -0.2778  0.3415
12048TIP3    H157559   1.700   0.839  16.618  2.1873 -0.1243 -0.7436
12048TIP3    H257560   1.654   0.752  16.503 -1.7833 -1.0029  1.3347
12049TIP3   OH257561   6.262   4.904  13.132 -0.1430 -0.3078 -0.3662
12049TIP3    H157562   6.301   4.958  13.201 -1.9774 -0.9122  1.2371
12049TIP3    H257563   6.248   4.965  13.059 -1.3863  1.2536  1.0818
12050TIP3   OH257564   1.902   5.190  10.066 -0.6598 -0.3441  0.1497
12050TIP3    H157565   1.852   5.238  10.000  0.0555  2.5237  1.5610
12050TIP3    H257566   1.991   5.185  10.029 -0.2761  1.1975  0.7981
12051TIP3   OH257567   3.040   3.584  13.762 -0.1084 -0.1329 -0.8800
12051TIP3    H157568   3.107   3.519  13.783  0.0982 -0.1386 -1.5402
12051TIP3    H257569   3.049   3.598  13.667  1.1201  2.2342 -0.4925
12052TIP3   OH257570   0.439   6.748   3.029 -0.0135  0.1750  0.0530
12052TIP3    H157571   0.492   6.824   3.004  0.1685  0.5127  1.3866
12052TIP3    H257572   0.490   6.704   3.097 -1.7851  1.0184  2.0250
12053TIP3   OH257573   3.882   6.574   4.133  0.1287  0.3131  0.0663
12053TIP3    H157574   3.890   6.489   4.090 -0.6186 -0.2815  1.0529
12053TIP3    H257575   3.803   6.613   4.095 -0.6244 -0.2828  0.9930
12054TIP3   OH257576   5.948   2.292  13.794 -0.5254  0.1049 -0.7224
12054TIP3    H157577   5.896   2.318  13.870 -1.9368  0.5847 -1.8123
12054TIP3    H257578   6.009   2.226  13.828  1.2641  2.7096  1.5473
12055TIP3   OH257579   2.431   5.372   4.079  0.0710  0.2310 -0.2692
12055TIP3    H157580   2.452   5.465   4.090 -0.8135  0.1252  3.9485
12055TIP3    H257581   2.514   5.331   4.053  0.8946  1.9437 -0.4799
12056TIP3   OH257582   5.962   4.166   1.527 -0.5911  0.1716  0.5756
12056TIP3    H157583   5.896   4.142   1.462  2.2193 -2.0347 -1.7984
12056TIP3    H257584   5.978   4.259   1.511  0.3774 -0.3908 -2.4847
12057TIP3   OH257585   1.724   3.936  14.226  0.2959 -0.2125  0.0960
12057TIP3    H157586   1.629   3.940  14.220  0.4011  0.4566 -2.0444
12057TIP3    H257587   1.751   4.024  14.251  0.4029  0.0634 -0.9383
12058TIP3   OH257588   4.160   3.506  15.733  0.2229 -0.4434 -0.3041
12058TIP3    H157589   4.137   3.594  15.764  0.1155 -0.9015  0.9965
12058TIP3    H257590   4.167   3.515  15.638 -0.5745  0.7863 -0.2702
12059TIP3   OH257591   5.347   1.320   1.623  0.5064 -0.1264 -0.4999
12059TIP3    H157592   5.274   1.361   1.669  2.0904 -0.0249  2.1532
12059TIP3    H257593   5.332   1.340   1.531 -3.1219 -0.7105 -0.1738
12060TIP3   OH257594   4.810   5.591   5.460  0.6016 -0.2262 -0.3784
12060TIP3    H157595   4.733   5.625   5.413  0.8845  2.3613  0.8919
12060TIP3    H257596   4.884   5.617   5.406  0.8037  1.0255  0.4659
12061TIP3   OH257597   1.990   4.974  16.915 -0.1079  0.0029  0.3711
12061TIP3    H157598   1.918   5.014  16.963 -1.2280 -2.2735  0.7599
12061TIP3    H257599   1.952   4.951  16.831  0.6796  0.3288 -0.0773
12062TIP3   OH257600   2.751   1.709   1.399 -0.7431 -0.6621 -0.1386
12062TIP3    H157601   2.673   1.691   1.347 -1.7488 -1.3409  1.5336
12062TIP3    H257602   2.721   1.708   1.489  0.9846  0.2840  0.4985
12063TIP3   OH257603   3.056   4.997   4.529 -0.1773  0.0600 -0.4336
12063TIP3    H157604   3.129   4.937   4.544  1.0639  1.7483  0.5586
12063TIP3    H257605   3.096   5.072   4.484 -1.2913  1.0279  0.1529
12064TIP3   OH257606   6.133   6.379   5.140 -0.1248 -0.1355 -0.4062
12064TIP3    H157607   6.121   6.410   5.229 -0.7551 -0.6503 -0.3094
12064TIP3    H257608   6.227   6.389   5.124 -0.3539  2.2791 -0.5607
12065TIP3   OH257609   3.311   6.507   1.489  0.4063  0.1174  0.4318
12065TIP3    H157610   3.267   6.547   1.563 -0.3391 -2.0562  1.2443
12065TIP3    H257611   3.243   6.499   1.421  0.5030  0.0916  0.3372
12066TIP3   OH257612   0.941   0.846   1.442  0.7104  0.0734 -0.3076
12066TIP3    H157613   0.865   0.901   1.425  1.1727  0.7868 -0.1268
12066TIP3    H257614   0.998   0.901   1.496  0.9895 -0.7466  0.2433
12067TIP3   OH257615   3.558   2.231  12.057  0.2046 -0.3987  0.2962
12067TIP3    H157616   3.594   2.241  12.145 -0.8227  0.2831  0.6569
12067TIP3    H257617   3.463   2.243  12.068  0.0561 -0.3389 -0.8933
12068TIP3   OH257618   5.557   4.121   5.002  0.2885  0.6667  0.2808
12068TIP3    H157619   5.621   4.170   5.053 -0.4387  2.1986 -0.2119
12068TIP3    H257620   5.544   4.173   4.923  0.8150 -1.2542 -1.1498
12069TIP3   OH257621   1.943   3.603  13.881 -0.3695 -0.2053  0.2713
12069TIP3    H157622   1.860   3.563  13.856 -0.3490 -0.5266  0.6968
12069TIP3    H257623   1.919   3.666  13.949 -0.4097  0.5608 -0.4419
12070TIP3   OH257624   4.628   0.962  16.700  0.2306 -0.1777 -0.4050
12070TIP3    H157625   4.565   1.018  16.746  0.9499  0.9488 -0.7610
12070TIP3    H257626   4.608   0.975  16.608  0.0405 -0.9610 -0.4827
12071TIP3   OH257627   0.621   0.163   4.164  0.5501 -0.2736  0.3401
12071TIP3    H157628   0.541   0.130   4.206  0.7623 -0.7107  0.4093
12071TIP3    H257629   0.663   0.217   4.231 -0.3274  1.0131 -0.1191
12072TIP3   OH257630   3.273   0.126  16.977  0.2894 -0.6971 -0.3399
12072TIP3    H157631   3.322   0.059  17.023 -1.2841 -1.6724 -0.0092
12072TIP3    H257632   3.185   0.089  16.967 -0.6987  1.3936  0.0676
12073TIP3   OH257633   3.892   3.172   3.346  0.2003 -0.2368  0.3160
12073TIP3    H157634   3.968   3.126   3.312  0.8686  1.3805 -0.4960
12073TIP3    H257635   3.827   3.167   3.276 -0.2309 -1.0767  0.7619
12074TIP3   OH257636   2.271   5.500   1.261 -0.3182 -0.0947 -0.0789
12074TIP3    H157637   2.263   5.567   1.330 -2.1938 -0.7931  0.4268
12074TIP3    H257638   2.270   5.550   1.179  0.3354  0.6243  0.3328
12075TIP3   OH257639   1.165   6.083  15.829 -0.1708  0.2340  0.2003
12075TIP3    H157640   1.198   6.156  15.881  1.2626 -0.6009  0.5170
12075TIP3    H257641   1.120   6.027  15.892 -0.0108  0.1296  0.2235
12076TIP3   OH257642   1.451   0.773  11.953  0.3435  0.1977 -0.9858
12076TIP3    H157643   1.498   0.691  11.939  1.2251  0.9496 -2.7929
12076TIP3    H257644   1.406   0.789  11.870 -2.9276 -0.2946  0.5165
12077TIP3   OH257645   0.233   5.226   1.251  0.0713 -0.6071 -0.2265
12077TIP3    H157646   0.303   5.261   1.306  0.1207 -0.7169 -0.2181
12077TIP3    H257647   0.155   5.275   1.277  0.2828  0.0149 -0.7406
12078TIP3   OH257648   6.794   3.676   4.966  0.0104  0.1988  0.3844
12078TIP3    H157649   6.869   3.704   5.019 -0.7950  0.8097  1.2150
12078TIP3    H257650   6.820   3.590   4.933  1.2144  0.5399  0.3831
12079TIP3   OH257651   2.111   2.378   0.967  0.2264 -0.4594  0.3622
12079TIP3    H157652   2.030   2.429   0.961 -0.5136 -1.5614  0.5315
12079TIP3    H257653   2.081   2.289   0.986  1.4649 -0.9689  0.0201
12080TIP3   OH257654   2.079   3.581   1.109 -0.0923 -0.0237 -0.0395
12080TIP3    H157655   2.107   3.499   1.068 -1.3660 -0.6919  0.3730
12080TIP3    H257656   2.149   3.601   1.171  0.3293 -0.6982 -0.2784
12081TIP3   OH257657   3.186   5.456  15.328  0.2068  0.2331 -0.3334
12081TIP3    H157658   3.240   5.446  15.250  0.2909 -0.0188 -0.2428
12081TIP3    H257659   3.204   5.378  15.380  0.3050  0.4973  0.0326
12082TIP3   OH257660   4.964   4.193  13.462 -0.4306 -0.7928 -0.0334
12082TIP3    H157661   4.993   4.279  13.431  0.0432 -1.0107 -0.1944
12082TIP3    H257662   5.045   4.142  13.472 -0.7449 -1.3582 -0.3486
12083TIP3   OH257663   6.733   1.932  13.963  0.6828  0.3501 -0.0945
12083TIP3    H157664   6.697   1.843  13.960  0.1084  0.4875  1.6120
12083TIP3    H257665   6.824   1.922  13.935  0.9498 -0.9952  1.1302
12084TIP3   OH257666   0.358   2.641   1.877  0.4757 -0.0745  0.3004
12084TIP3    H157667   0.291   2.689   1.925  0.3889  0.6677 -0.5277
12084TIP3    H257668   0.437   2.695   1.887  0.7315 -0.4877  0.5326
12085TIP3   OH257669   5.898   4.636  15.096  0.2675 -0.2047  0.4862
12085TIP3    H157670   5.976   4.610  15.146  0.1156  1.2611  1.5475
12085TIP3    H257671   5.879   4.725  15.126 -0.9501  0.0171 -0.8499
12086TIP3   OH257672   5.640   1.841   4.041  0.4084 -0.2659  0.2672
12086TIP3    H157673   5.562   1.892   4.019  0.9718  0.2607 -0.5529
12086TIP3    H257674   5.622   1.754   4.006  0.9788  0.3623 -1.6652
12087TIP3   OH257675   6.131   6.683  14.865  0.1858  0.2003 -0.2218
12087TIP3    H157676   6.219   6.696  14.830  0.2168  0.3831 -0.0746
12087TIP3    H257677   6.137   6.709  14.957 -0.4682  2.0291 -0.6533
12088TIP3   OH257678   2.713   2.268   3.173  0.1167  0.1903  0.7006
12088TIP3    H157679   2.666   2.293   3.253 -1.5078 -1.2374  0.2740
12088TIP3    H257680   2.676   2.182   3.150 -0.9953  1.4222 -2.7141
12089TIP3   OH257681   5.850   0.862   2.683 -0.5588 -0.3930 -0.3997
12089TIP3    H157682   5.890   0.916   2.751 -0.3375 -2.2480  1.0589
12089TIP3    H257683   5.905   0.875   2.606  0.7045 -0.1245  0.5099
12090TIP3   OH257684   4.771   2.212   1.926  0.3212  0.1827 -0.2022
12090TIP3    H157685   4.697   2.153   1.916  0.2206  0.4932 -1.5665
12090TIP3    H257686   4.811   2.188   2.009 -1.2260 -0.0791  0.4954
12091TIP3   OH257687   3.232   3.739  16.320 -0.2810  0.0504 -0.0323
12091TIP3    H157688   3.253   3.731  16.413  1.3207  0.8627 -0.2955
12091TIP3    H257689   3.214   3.649  16.292  0.9274 -0.4513  0.6974
12092TIP3   OH257690   4.150   2.166   6.259 -0.4797 -0.2703 -0.0382
12092TIP3    H157691   4.201   2.234   6.214  0.8674  1.0441  3.1331
12092TIP3    H257692   4.072   2.211   6.291 -0.1601 -0.4469  1.0589
12093TIP3   OH257693   2.378   0.067   1.475  0.1591  0.0880  0.1819
12093TIP3    H157694   2.455   0.075   1.419 -0.0171 -2.3134 -0.5142
12093TIP3    H257695   2.364   0.155   1.509  1.7941  1.0830 -1.5288
12094TIP3   OH257696   4.343   0.706  14.342  0.3646  0.0589  0.3401
12094TIP3    H157697   4.382   0.785  14.304 -2.3795  2.2134  1.6939
12094TIP3    H257698   4.386   0.696  14.427  0.7473  0.0164  0.1464
12095TIP3   OH257699   4.194   3.644   1.156 -0.3788 -0.1005 -0.3021
12095TIP3    H157700   4.284   3.675   1.168 -0.5041  0.1038  0.0981
12095TIP3    H257701   4.178   3.586   1.230 -0.5105 -0.3000 -0.4830
12096TIP3   OH257702   2.252   4.979  16.227  0.7451  0.0047 -0.6943
12096TIP3    H157703   2.338   4.971  16.269  0.6712  1.4181 -0.2184
12096TIP3    H257704   2.194   4.927  16.282  1.1129 -0.1559 -0.4503
12097TIP3   OH257705   0.557   6.220   3.487 -0.2983 -0.0999 -0.5231
12097TIP3    H157706   0.536   6.173   3.406 -0.0662  0.4007 -0.8778
12097TIP3    H257707   0.604   6.298   3.458 -0.0868  0.0104  0.1082
12098TIP3   OH257708   2.173   1.614  14.584  0.1209  0.0471  0.8635
12098TIP3    H157709   2.170   1.657  14.670  1.9952  1.7058  0.1706
12098TIP3    H257710   2.260   1.575  14.580  0.3337  0.5951 -0.5352
12099TIP3   OH257711   3.479   3.046  11.406 -0.0733 -0.0039 -0.0641
12099TIP3    H157712   3.513   2.962  11.373  0.9213 -0.0063  0.9234
12099TIP3    H257713   3.505   3.048  11.498 -0.6656  1.1021  0.0895
12100TIP3   OH257714   5.917   5.605   2.940 -0.0536  0.3886 -0.3106
12100TIP3    H157715   5.869   5.613   3.023  0.0304  0.3822 -0.2609
12100TIP3    H257716   5.974   5.681   2.938  1.3106 -0.5530  0.5322
12101TIP3   OH257717   4.760   2.213  13.305 -0.1266  0.3927 -0.9391
12101TIP3    H157718   4.690   2.149  13.293 -0.3399  0.6169 -0.8940
12101TIP3    H257719   4.752   2.241  13.396  0.4295 -0.0567 -0.7433
12102TIP3   OH257720   0.047   1.474  10.604  0.0921 -0.6180 -0.7229
12102TIP3    H157721   0.036   1.449  10.512 -0.1026 -1.8142 -0.3797
12102TIP3    H257722   0.133   1.517  10.606  0.2388 -0.8683 -1.3977
12103TIP3   OH257723   6.815   0.210  14.413 -0.2382  0.1229 -0.1958
12103TIP3    H157724   6.834   0.170  14.328  0.8923  0.2022  0.0022
12103TIP3    H257725   6.765   0.143  14.460 -0.2372 -0.2123 -0.6649
12104TIP3   OH257726   4.309   4.337   2.978 -0.2879 -0.4152 -0.3455
12104TIP3    H157727   4.244   4.391   3.022 -1.4192 -3.5037  2.1636
12104TIP3    H257728   4.383   4.396   2.963 -1.4101  1.8211  2.1755
12105TIP3   OH257729   6.309   0.551   5.104  0.5686  0.1063 -0.2712
12105TIP3    H157730   6.255   0.559   5.182  0.8792  0.4987 -0.0931
12105TIP3    H257731   6.316   0.456   5.089 -1.2915  0.0490 -1.0987
12106TIP3   OH257732   2.179   5.150  11.880 -0.4241  0.3362 -0.0954
12106TIP3    H157733   2.120   5.225  11.869 -0.2882  0.3104 -1.0257
12106TIP3    H257734   2.131   5.090  11.937 -2.2550 -0.6336 -2.4713
12107TIP3   OH257735   2.467   1.198  15.586 -0.3058 -0.7247  0.8817
12107TIP3    H157736   2.377   1.199  15.618  0.0586 -0.1123  1.9741
12107TIP3    H257737   2.515   1.254  15.648  0.5454  0.1689 -0.5070
12108TIP3   OH257738   1.887   0.567  12.088  0.4596  0.0809 -0.2343
12108TIP3    H157739   1.841   0.608  12.014  0.3516  1.8464  0.7489
12108TIP3    H257740   1.971   0.612  12.093  0.4272  0.0631  0.7642
12109TIP3   OH257741   3.323   6.549   1.841 -0.1668  0.3158 -1.0045
12109TIP3    H157742   3.326   6.454   1.834  0.5736  0.1585  0.8246
12109TIP3    H257743   3.234   6.567   1.871 -0.6963  0.3307 -2.5081
12110TIP3   OH257744   0.670   4.005   2.044 -0.1551  0.6534  0.3605
12110TIP3    H157745   0.701   4.081   2.093  0.8318  0.0640  0.6838
12110TIP3    H257746   0.640   3.943   2.111  0.1522  0.2927  0.1701
12111TIP3   OH257747   6.132   0.905   2.918 -0.3583 -0.3304 -0.1747
12111TIP3    H157748   6.071   0.972   2.888 -0.6382  0.8330  2.6980
12111TIP3    H257749   6.205   0.955   2.955  1.8923 -1.6843 -2.4263
12112TIP3   OH257750   4.271   2.015  14.250  0.3887 -0.2032  0.0897
12112TIP3    H157751   4.328   2.011  14.326 -0.5154  0.8008  0.8393
12112TIP3    H257752   4.331   2.026  14.176  1.4207 -3.0363  0.3795
12113TIP3   OH257753   2.088   3.214   0.797  0.4429 -0.2677 -0.7769
12113TIP3    H157754   2.027   3.206   0.870  1.0066  0.4421 -0.2103
12113TIP3    H257755   2.043   3.172   0.724 -0.6426  0.0849 -0.3349
12114TIP3   OH257756   2.912   2.851  13.677 -0.0814  0.0723  0.5591
12114TIP3    H157757   3.008   2.854  13.679 -0.0678 -0.2941  0.5473
12114TIP3    H257758   2.891   2.797  13.601 -0.2537 -1.5868  1.7268
12115TIP3   OH257759   6.365   0.597  11.922 -0.2209  0.0798  0.4478
12115TIP3    H157760   6.309   0.586  11.845  1.2122 -1.8839 -0.4007
12115TIP3    H257761   6.437   0.652  11.892 -0.0972  0.0163  0.6256
12116TIP3   OH257762   2.547   1.998  15.068 -0.4546 -0.0991  0.2647
12116TIP3    H157763   2.524   2.070  15.009  0.0543 -0.5216 -0.4746
12116TIP3    H257764   2.466   1.948  15.078 -0.3463 -0.5265 -0.8160
12117TIP3   OH257765   6.296   6.829   0.019  0.1512 -0.0432 -0.9200
12117TIP3    H157766   6.353   6.757   0.044  0.4275  0.6787  0.6333
12117TIP3    H257767   6.216   6.815   0.069 -1.2048 -1.1592 -3.2284
12118TIP3   OH257768   4.909   0.980  15.244 -0.0222 -0.0693  0.1243
12118TIP3    H157769   4.968   1.021  15.181 -0.7461  0.6149 -0.1302
12118TIP3    H257770   4.897   0.891  15.212 -0.3628  0.2664 -0.6935
12119TIP3   OH257771   0.418   3.259  14.012  0.1887 -0.2712 -0.0862
12119TIP3    H157772   0.421   3.168  14.042 -0.0954  0.2783  1.7787
12119TIP3    H257773   0.499   3.270  13.961  0.8865 -1.2354  0.7590
12120TIP3   OH257774   3.734   3.790  16.950  0.0934 -0.0738  0.3434
12120TIP3    H157775   3.757   3.831  16.866 -1.1039 -2.7021 -1.4035
12120TIP3    H257776   3.812   3.740  16.975 -0.5820 -1.8691 -0.9565
12121TIP3   OH257777   4.406   4.930   2.698 -0.0604  0.7374  0.9487
12121TIP3    H157778   4.422   4.836   2.688 -1.4261  0.7079 -1.8798
12121TIP3    H257779   4.485   4.963   2.741  1.2372 -1.4375  0.3970
12122TIP3   OH257780   2.955   6.055  12.660 -0.5136  0.0796 -0.2347
12122TIP3    H157781   2.978   6.032  12.571 -1.0218  2.1952 -0.9691
12122TIP3    H257782   2.962   6.150  12.663 -0.1738  0.0406  2.0858
12123TIP3   OH257783   5.638   6.643   3.966 -0.1324  0.0867 -0.4238
12123TIP3    H157784   5.650   6.577   4.033 -1.9311  0.6061  0.4780
12123TIP3    H257785   5.618   6.723   4.015 -2.9166  0.1776 -1.5021
12124TIP3   OH257786   6.131   5.124   1.662  0.5214  0.0492 -0.2255
12124TIP3    H157787   6.075   5.098   1.735 -0.6536  0.4955 -0.9344
12124TIP3    H257788   6.183   5.197   1.695 -0.7503  0.9317 -0.1278
12125TIP3   OH257789   6.561   3.456   5.696  0.0157  0.0849  0.3363
12125TIP3    H157790   6.544   3.376   5.648  2.3135  0.1967 -0.8348
12125TIP3    H257791   6.519   3.443   5.781 -2.6666 -0.8451 -1.0336
12126TIP3   OH257792   6.296   5.300   3.440  0.0354 -0.0374  0.0610
12126TIP3    H157793   6.279   5.392   3.463  0.9258  0.3621 -0.7700
12126TIP3    H257794   6.247   5.249   3.504  0.4554  1.0198  1.2755
12127TIP3   OH257795   1.457   2.029   3.316  0.7397 -0.0445 -0.2064
12127TIP3    H157796   1.481   2.088   3.245  0.6670 -1.7916 -1.7601
12127TIP3    H257797   1.368   2.053   3.339  0.0797 -0.5968 -2.0040
12128TIP3   OH257798   1.484   6.099  15.907 -0.0052 -0.4360  0.2469
12128TIP3    H157799   1.579   6.112  15.901 -0.1895  0.3841 -1.4212
12128TIP3    H257800   1.462   6.124  15.997  1.4589 -1.4674  0.9354
12129TIP3   OH257801   0.487   1.484  12.080 -0.6461 -0.2133  0.0774
12129TIP3    H157802   0.500   1.578  12.063 -0.8076 -0.2542 -0.2859
12129TIP3    H257803   0.396   1.477  12.108 -0.3339 -0.1257  1.1413
12130TIP3   OH257804   5.933   0.182  11.691  0.4267 -0.1365  0.1353
12130TIP3    H157805   5.924   0.262  11.743  0.5420 -0.5850  0.8540
12130TIP3    H257806   5.950   0.213  11.602  1.7144  0.6374  0.6280
12131TIP3   OH257807   5.520   5.608   2.471 -1.2090 -0.3094  0.4987
12131TIP3    H157808   5.570   5.533   2.503  0.1823  0.6121  0.6028
12131TIP3    H257809   5.429   5.578   2.468 -0.6554 -2.0648  0.2911
12132TIP3   OH257810   3.247   5.382  15.999  0.0904  0.3903  0.1778
12132TIP3    H157811   3.204   5.463  15.973  0.4217  0.4588 -0.1635
12132TIP3    H257812   3.204   5.314  15.947 -0.9899  0.1829  1.3157
12133TIP3   OH257813   4.257   6.489  13.559  0.2910  0.4466  0.6460
12133TIP3    H157814   4.221   6.550  13.494 -1.0034  0.9893  1.8128
12133TIP3    H257815   4.195   6.493  13.632  0.5881 -1.7037  1.0836
12134TIP3   OH257816   0.435   0.925  15.733  0.1778 -0.1726  0.0137
12134TIP3    H157817   0.428   0.830  15.741  0.3322 -0.1540  0.3847
12134TIP3    H257818   0.407   0.944  15.643 -0.9849 -0.4466  0.3158
12135TIP3   OH257819   4.242   6.358   5.480  0.2771 -0.9072  0.0538
12135TIP3    H157820   4.220   6.274   5.519 -1.3011 -0.7300 -0.3736
12135TIP3    H257821   4.322   6.342   5.430 -0.8957 -2.6046 -1.4017
12136TIP3   OH257822   1.164   4.797  11.651 -0.0176  0.5100 -0.3736
12136TIP3    H157823   1.186   4.715  11.694  0.3456  1.1264  0.6427
12136TIP3    H257824   1.099   4.773  11.585 -2.2197 -0.1692  1.9148
12137TIP3   OH257825   3.357   3.973  14.093 -0.6740 -0.0812  0.3735
12137TIP3    H157826   3.395   3.934  14.171 -0.1887 -1.0223 -0.3065
12137TIP3    H257827   3.429   4.022  14.053 -1.0176  0.7011  0.7040
12138TIP3   OH257828   3.690   0.111  15.429  0.1491  0.2349 -0.3667
12138TIP3    H157829   3.657   0.152  15.349  0.1951  0.4752 -0.2639
12138TIP3    H257830   3.721   0.184  15.482 -2.4139  0.4022  1.0724
12139TIP3   OH257831   3.558   3.042   3.457  0.1216 -0.2605  0.1199
12139TIP3    H157832   3.576   2.998   3.374 -0.3070  0.9398 -0.6325
12139TIP3    H257833   3.470   3.078   3.446  0.1479  0.0971  1.0191
12140TIP3   OH257834   2.675   4.697   4.050 -0.2177  0.2121 -0.3097
12140TIP3    H157835   2.751   4.639   4.048 -1.1571 -1.0666 -1.5024
12140TIP3    H257836   2.601   4.639   4.034 -1.3542  1.5498 -0.0642
12141TIP3   OH257837   6.763   3.280  13.132 -0.2895  0.3067 -0.1301
12141TIP3    H157838   6.714   3.320  13.204 -1.2685 -1.1906  0.0937
12141TIP3    H257839   6.740   3.187  13.137  0.1531  0.0564 -1.9634
12142TIP3   OH257840   2.513   2.734  12.110  0.4044 -0.1565  0.5279
12142TIP3    H157841   2.455   2.663  12.082  2.2482 -1.7447  0.5246
12142TIP3    H257842   2.500   2.741  12.204  1.1662 -1.4275  0.7376
12143TIP3   OH257843   3.172   2.482   5.804 -0.0719  0.1290 -0.7919
12143TIP3    H157844   3.173   2.513   5.894  1.1091 -2.3794  0.1472
12143TIP3    H257845   3.089   2.435   5.796  0.4364 -0.8570 -0.5081
12144TIP3   OH257846   6.300   1.470  16.949  0.1060 -0.1296  0.1679
12144TIP3    H157847   6.330   1.411  17.019 -0.4723  0.4927  0.9632
12144TIP3    H257848   6.325   1.426  16.868 -1.4177 -2.1079  0.6815
12145TIP3   OH257849   1.517   3.520  14.605  0.4079 -0.1047 -0.4370
12145TIP3    H157850   1.449   3.582  14.580  0.2970  0.3161  0.8454
12145TIP3    H257851   1.594   3.575  14.623  0.8752 -0.5101 -1.1447
12146TIP3   OH257852   6.391   4.446  16.460  0.1550  0.4406 -0.0844
12146TIP3    H157853   6.405   4.351  16.455 -0.9332  0.1671  1.4219
12146TIP3    H257854   6.297   4.457  16.446  0.1161  1.2024  0.7103
12147TIP3   OH257855   4.852   0.345  13.325  0.4156  0.0267  0.6049
12147TIP3    H157856   4.927   0.288  13.313  0.6749  0.4581  0.1445
12147TIP3    H257857   4.794   0.296  13.383  1.2584 -0.1111  1.3526
12148TIP3   OH257858   3.469   1.581  13.512  0.5509  0.0821  0.2456
12148TIP3    H157859   3.457   1.505  13.569 -0.1685 -1.1663 -1.4921
12148TIP3    H257860   3.381   1.616  13.500  0.8188  0.8957  0.6283
12149TIP3   OH257861   4.215   1.822   5.306 -0.3573 -0.0797  0.4715
12149TIP3    H157862   4.136   1.861   5.269 -0.5382  2.8427  3.5025
12149TIP3    H257863   4.275   1.815   5.232 -2.3389  0.5569 -1.3101
12150TIP3   OH257864   3.494   6.653   2.429 -0.2283 -0.3758  0.4350
12150TIP3    H157865   3.458   6.697   2.507 -1.8108  0.3456 -0.6403
12150TIP3    H257866   3.452   6.698   2.355 -1.3147 -3.1243 -0.7669
12151TIP3   OH257867   1.197   2.107  16.524 -0.2579  0.1336  0.0491
12151TIP3    H157868   1.275   2.161  16.511  0.3131 -0.6106  0.3953
12151TIP3    H257869   1.225   2.018  16.505 -1.6386  0.1175 -2.3341
12152TIP3   OH257870   0.561   1.977  12.346  0.6503  0.0537 -0.0829
12152TIP3    H157871   0.481   1.991  12.295  0.5318 -1.4599 -0.3573
12152TIP3    H257872   0.615   2.054  12.327  0.3299 -0.1283 -1.9734
12153TIP3   OH257873   0.900   4.973   1.474  0.4115 -0.1940  0.2453
12153TIP3    H157874   0.808   4.959   1.452  0.7255  0.0242 -1.3194
12153TIP3    H257875   0.928   4.890   1.513 -0.6817  0.0813  1.7087
12154TIP3   OH257876   3.674   5.467   5.513 -0.2254  0.6632  0.2296
12154TIP3    H157877   3.603   5.429   5.461  0.8637  0.0575 -0.8513
12154TIP3    H257878   3.654   5.441   5.603 -1.0734  0.0217 -0.1320
12155TIP3   OH257879   1.093   3.422   3.210 -0.4628  0.3993  0.0158
12155TIP3    H157880   1.044   3.490   3.163 -0.3542 -0.2517 -1.0654
12155TIP3    H257881   1.107   3.353   3.146  0.8130  0.0256  0.6558
12156TIP3   OH257882   3.487   1.156  13.673  0.5503 -0.2783  0.5147
12156TIP3    H157883   3.581   1.168  13.683  0.3146  2.2326  0.2844
12156TIP3    H257884   3.448   1.234  13.713 -1.4214 -1.0926  0.3006
12157TIP3   OH257885   1.975   3.019  16.205 -0.0978  0.4187  0.1829
12157TIP3    H157886   1.939   2.931  16.197  0.0055  0.4886 -1.6354
12157TIP3    H257887   1.917   3.064  16.266 -0.9930 -0.5034  0.0272
12158TIP3   OH257888   0.292   4.293  13.228 -0.2063  0.2762  0.1372
12158TIP3    H157889   0.305   4.387  13.211 -2.2334  0.3662 -1.3406
12158TIP3    H257890   0.378   4.254  13.213  0.1426  1.6112 -1.7799
12159TIP3   OH257891   5.973   6.826   1.142 -0.1393 -0.0845  0.8268
12159TIP3    H157892   5.920   6.784   1.210 -0.1887 -1.8467 -0.2254
12159TIP3    H257893   5.916   6.894   1.106 -0.4640  0.2180  1.8944
12160TIP3   OH257894   2.475   4.462   0.441  0.4690 -1.1613  0.0358
12160TIP3    H157895   2.385   4.484   0.418  0.9822 -0.2428 -1.1866
12160TIP3    H257896   2.490   4.376   0.402  0.5663 -0.6697 -1.0539
12161TIP3   OH257897   3.203   4.123  14.294  0.1604 -0.5618 -0.1328
12161TIP3    H157898   3.274   4.174  14.334  0.7972 -1.7833  0.3349
12161TIP3    H257899   3.246   4.071  14.226 -0.6837  0.4079 -1.4611
12162TIP3   OH257900   0.570   6.347   5.703 -0.1245 -0.3679  0.1930
12162TIP3    H157901   0.485   6.377   5.734 -0.9945 -1.2606 -1.2000
12162TIP3    H257902   0.620   6.427   5.686 -1.2119  0.2049 -0.3604
12163TIP3   OH257903   3.518   2.393   2.384  1.0078  0.2346 -0.2896
12163TIP3    H157904   3.428   2.414   2.360 -0.0167 -0.7639  2.2508
12163TIP3    H257905   3.545   2.464   2.443  0.8679 -0.7620  1.0354
12164TIP3   OH257906   0.151   3.670   3.781 -0.3965 -0.0099  0.7525
12164TIP3    H157907   0.161   3.758   3.818 -0.2686  0.2134  0.1932
12164TIP3    H257908   0.061   3.646   3.802 -0.1588 -0.1154  1.6923
12165TIP3   OH257909   2.582   4.734   5.128  0.2129  0.4563 -0.3827
12165TIP3    H157910   2.525   4.674   5.080  0.8035  0.1807 -0.7647
12165TIP3    H257911   2.663   4.684   5.142  0.7936  1.2221 -0.8856
12166TIP3   OH257912   1.900   3.254   3.397 -0.0335  0.0358  0.4029
12166TIP3    H157913   1.992   3.227   3.397 -0.2914 -0.9312 -0.8368
12166TIP3    H257914   1.900   3.338   3.351  0.0931 -0.5739 -0.7518
12167TIP3   OH257915   4.718   5.672   1.216  0.3485 -0.9032 -0.3783
12167TIP3    H157916   4.731   5.711   1.302 -0.3033 -1.6297  0.0536
12167TIP3    H257917   4.774   5.595   1.215  0.5060 -0.7883 -0.6835
12168TIP3   OH257918   2.047   6.366   0.387  0.5273 -0.0582 -0.0859
12168TIP3    H157919   2.097   6.446   0.399  0.8018 -0.3784  1.1296
12168TIP3    H257920   1.959   6.387   0.419  0.6469 -0.2771  0.4049
12169TIP3   OH257921   4.957   3.266  11.274 -0.3256 -0.3657 -0.1998
12169TIP3    H157922   4.960   3.273  11.178 -0.5732  2.1120 -0.0896
12169TIP3    H257923   5.035   3.313  11.304 -1.3698  0.7882  0.8338
12170TIP3   OH257924   3.647   0.913   0.992  0.5780  0.0007  0.2223
12170TIP3    H157925   3.572   0.970   0.980 -1.5401 -1.9285  2.8425
12170TIP3    H257926   3.698   0.955   1.061  0.9036  0.4011 -0.2599
12171TIP3   OH257927   2.220   6.410   1.650  0.0285  0.1578 -0.5721
12171TIP3    H157928   2.129   6.430   1.671  0.6105  2.4468  0.0654
12171TIP3    H257929   2.215   6.349   1.577 -2.0113  1.1004 -1.2867
12172TIP3   OH257930   4.558   1.291  11.524  0.7583 -0.3141 -0.1942
12172TIP3    H157931   4.556   1.283  11.429 -3.6310 -0.3451 -0.2978
12172TIP3    H257932   4.584   1.204  11.555 -0.3920 -1.1254 -1.4041
12173TIP3   OH257933   3.750   6.524   0.992 -0.3252 -0.2752 -0.4624
12173TIP3    H157934   3.785   6.577   1.065  0.3565  0.7690 -1.4967
12173TIP3    H257935   3.661   6.556   0.979  0.0247  0.5383 -0.9666
12174TIP3   OH257936   3.100   4.519   4.962 -0.1862  0.0202 -0.0915
12174TIP3    H157937   3.070   4.596   4.914 -1.0073  0.5117  1.1549
12174TIP3    H257938   3.190   4.539   4.987  0.6181 -0.6599 -2.2192
12175TIP3   OH257939   5.503   1.660  15.630 -0.5095 -0.4885  0.5209
12175TIP3    H157940   5.437   1.669  15.699  0.3552 -0.4812  1.3626
12175TIP3    H257941   5.489   1.572  15.594 -0.4974 -0.7806  1.2128
12176TIP3   OH257942   6.083   6.675  12.574 -0.7770 -0.7302  0.2819
12176TIP3    H157943   6.061   6.768  12.583  0.2790 -0.3004 -1.1999
12176TIP3    H257944   6.148   6.659  12.641 -1.1246 -0.4525  0.6898
12177TIP3   OH257945   4.921   0.149  16.979  0.0376  0.2346  0.1143
12177TIP3    H157946   4.835   0.108  16.973  0.3502 -0.1956 -2.7960
12177TIP3    H257947   4.982   0.076  16.986  0.2850  0.4592  0.3163
12178TIP3   OH257948   1.847   5.124   6.132 -0.0788 -0.0359  0.5621
12178TIP3    H157949   1.919   5.134   6.071 -0.5738  0.1772  0.0067
12178TIP3    H257950   1.830   5.030   6.134  0.0286 -0.0569  0.4765
12179TIP3   OH257951   2.929   2.624  10.669  0.4837  0.4828  0.2909
12179TIP3    H157952   2.956   2.560  10.604  0.7633 -0.5677  1.4151
12179TIP3    H257953   2.886   2.693  10.618  1.5511  0.1705 -1.0915
12180TIP3   OH257954   0.870   6.187  16.358  0.1700 -0.3290 -0.0384
12180TIP3    H157955   0.865   6.258  16.423 -1.5133 -0.8289  0.4385
12180TIP3    H257956   0.937   6.128  16.392 -0.5543 -0.4869  1.1664
12181TIP3   OH257957   4.954   1.524  13.718 -0.2685 -0.1560  0.2521
12181TIP3    H157958   5.024   1.527  13.653 -0.6191  1.6586 -0.1016
12181TIP3    H257959   4.874   1.540  13.667 -0.4925  1.8844  1.1323
12182TIP3   OH257960   4.145   2.832  16.179 -0.0937 -0.2878 -0.2403
12182TIP3    H157961   4.094   2.911  16.195  1.5477  0.6569  0.5070
12182TIP3    H257962   4.211   2.858  16.115  0.9983 -0.7949  0.6480
12183TIP3   OH257963   6.534   1.026  12.798 -0.0476 -0.6479 -0.2851
12183TIP3    H157964   6.457   1.045  12.853  0.8751 -0.6728  1.0560
12183TIP3    H257965   6.594   0.979  12.856  0.9761 -0.6553 -1.3197
12184TIP3   OH257966   2.756   6.407  12.164 -0.3486 -0.2230 -0.0895
12184TIP3    H157967   2.835   6.452  12.134 -0.5309  1.0068  1.1508
12184TIP3    H257968   2.730   6.455  12.243 -2.9050  0.0618 -0.9981
12185TIP3   OH257969   5.801   3.536   4.400 -0.3098 -0.3939  0.2121
12185TIP3    H157970   5.723   3.503   4.354  0.8938 -0.2350 -2.0827
12185TIP3    H257971   5.859   3.566   4.330  1.7256 -0.2623  1.8677
12186TIP3   OH257972   3.958   2.471  16.154  0.8281  0.0766  0.3745
12186TIP3    H157973   4.002   2.484  16.239 -1.6249  1.7459  1.5014
12186TIP3    H257974   3.883   2.415  16.174  0.9079 -0.5464 -0.9792
12187TIP3   OH257975   1.091   3.385   0.151 -0.2230  0.5565 -0.1284
12187TIP3    H157976   1.180   3.363   0.179 -0.2467 -1.4572 -1.5050
12187TIP3    H257977   1.043   3.397   0.233  0.9718  0.2895  0.6356
12188TIP3   OH257978   2.227   4.222   3.073 -1.0800 -0.3482  0.3212
12188TIP3    H157979   2.175   4.288   3.028 -0.9346 -0.0174  0.6334
12188TIP3    H257980   2.167   4.181   3.135 -0.8922  0.2852  0.9437
12189TIP3   OH257981   3.260   6.646   4.551  0.2961  0.0297 -0.1321
12189TIP3    H157982   3.265   6.728   4.599  0.5253  0.4234 -0.8036
12189TIP3    H257983   3.182   6.654   4.497  1.9226  1.1351 -2.4921
12190TIP3   OH257984   0.129   3.799   4.442 -0.2071  0.3352  0.0790
12190TIP3    H157985   0.145   3.869   4.505  0.8011 -0.8159  1.1732
12190TIP3    H257986   0.164   3.832   4.359  1.4095  0.6809  0.8473
12191TIP3   OH257987   4.904   5.482   1.265  0.1391 -0.5601  0.3723
12191TIP3    H157988   4.937   5.400   1.230 -0.8502 -1.2031  0.9012
12191TIP3    H257989   4.891   5.466   1.358  0.0867  0.2522  0.5175
12192TIP3   OH257990   4.753   2.023   2.796  0.0108 -0.4042 -0.6295
12192TIP3    H157991   4.705   1.948   2.831  0.2436 -0.2609  0.0200
12192TIP3    H257992   4.797   2.061   2.873  0.0134  0.3029 -0.9739
12193TIP3   OH257993   0.781   5.073   2.182  0.0636 -0.4282 -0.0428
12193TIP3    H157994   0.851   5.110   2.237  0.6730 -1.2862 -0.2044
12193TIP3    H257995   0.717   5.041   2.245  1.0419 -1.9508  0.2360
12194TIP3   OH257996   3.372   1.134  13.325 -0.4099 -0.0799  0.2484
12194TIP3    H157997   3.368   1.214  13.272 -0.8836  0.9542  1.7933
12194TIP3    H257998   3.293   1.136  13.378  1.6969  0.8570  3.6288
12195TIP3   OH257999   1.353   2.305  13.864  0.0875 -0.2898 -0.6902
12195TIP3    H158000   1.430   2.277  13.815 -0.1614 -0.5888 -0.9098
12195TIP3    H258001   1.309   2.223  13.889  0.8144 -0.2033  1.0008
12196TIP3   OH258002   5.337   0.859   6.072  0.0506 -0.6479 -0.2106
12196TIP3    H158003   5.272   0.872   6.142  1.2382  1.0625  0.6306
12196TIP3    H258004   5.380   0.777   6.096 -3.4089 -3.3394 -2.2102
12197TIP3   OH258005   3.314   0.620  11.319  0.7773  0.1513  0.0014
12197TIP3    H158006   3.330   0.713  11.300  0.3879 -0.0574 -1.4311
12197TIP3    H258007   3.309   0.578  11.233  1.7233 -1.3479  0.6334
12198TIP3   OH258008   1.820   4.696  15.856  0.1404 -0.3766  0.0274
12198TIP3    H158009   1.881   4.693  15.930  0.3399 -2.2439 -0.1647
12198TIP3    H258010   1.857   4.761  15.797  1.9869 -1.4579 -0.0801
12199TIP3   OH258011   3.988   6.225  12.348 -0.5423 -0.1648  0.3253
12199TIP3    H158012   4.065   6.282  12.344 -0.6632  0.1787  2.1102
12199TIP3    H258013   4.024   6.138  12.364 -0.4448 -0.3424 -0.7847
12200TIP3   OH258014   6.302   5.549   1.947  0.5236 -0.7657 -0.3166
12200TIP3    H158015   6.286   5.457   1.967 -1.5863 -1.0181 -2.7951
12200TIP3    H258016   6.231   5.596   1.990 -0.9548 -0.8037 -2.5762
12201TIP3   OH258017   3.567   6.587   1.452 -0.2995  0.1743 -0.0748
12201TIP3    H158018   3.478   6.555   1.436 -0.2932  0.3806 -0.5198
12201TIP3    H258019   3.576   6.664   1.396 -0.4874  1.2834  1.3524
12202TIP3   OH258020   2.217   5.460  12.845 -0.4581 -0.7601  0.2682
12202TIP3    H158021   2.161   5.390  12.878  1.4310 -1.4594  2.2758
12202TIP3    H258022   2.305   5.433  12.871  0.4516  1.8548  0.1363
12203TIP3   OH258023   5.602   0.043   0.997  0.0074  0.1352  0.0624
12203TIP3    H158024   5.621   0.114   1.058  0.3452  0.3622 -0.3039
12203TIP3    H258025   5.554   0.084   0.926 -2.7725 -0.5778  1.3980
12204TIP3   OH258026   6.012   1.245   1.805 -0.0637  0.2033  0.3505
12204TIP3    H158027   6.014   1.176   1.872  2.0063  0.2847  0.4408
12204TIP3    H258028   5.923   1.241   1.769 -0.5398 -1.3143  1.5706
12205TIP3   OH258029   1.464   0.864  13.085 -0.0057  0.0771  0.2820
12205TIP3    H158030   1.409   0.807  13.031 -1.0559  0.3065  1.0708
12205TIP3    H258031   1.467   0.947  13.038 -1.6363  0.5533  0.9520
12206TIP3   OH258032   0.757   6.644  13.916 -0.5687 -0.1374 -0.0386
12206TIP3    H158033   0.699   6.691  13.857 -1.0888 -1.6976 -0.8274
12206TIP3    H258034   0.829   6.614  13.860 -0.7692 -1.1326  0.2182
12207TIP3   OH258035   5.229   2.674   0.773  1.0144  0.4670 -0.2343
12207TIP3    H158036   5.305   2.725   0.800 -0.0374  1.4043  1.1027
12207TIP3    H258037   5.154   2.721   0.809 -0.0583 -1.6963  0.5587
12208TIP3   OH258038   2.900   1.379   4.031 -0.0581 -0.2762 -0.6021
12208TIP3    H158039   2.930   1.393   3.941  2.5741  0.5323  0.3212
12208TIP3    H258040   2.846   1.455   4.051  0.0416 -0.0401 -1.2166
12209TIP3   OH258041   5.166   6.147  10.175  0.4209  0.0283 -0.4967
12209TIP3    H158042   5.259   6.162  10.160  0.1436  0.2845 -2.1332
12209TIP3    H258043   5.139   6.090  10.104 -0.8400  0.6076 -0.5096
12210TIP3   OH258044   0.258   5.831   4.349 -0.0890  0.1340  0.2530
12210TIP3    H158045   0.349   5.800   4.345  0.1482  0.9491 -1.4824
12210TIP3    H258046   0.214   5.785   4.278 -0.5082  1.3285 -0.2792
12211TIP3   OH258047   6.504   3.865   4.515 -0.3612 -0.1718 -0.3051
12211TIP3    H158048   6.475   3.949   4.479 -0.7351 -0.5675 -0.9406
12211TIP3    H258049   6.547   3.888   4.597  2.3530  1.0083 -1.8989
12212TIP3   OH258050   2.451   6.642  11.443  0.2037  0.2403 -0.0906
12212TIP3    H158051   2.456   6.733  11.471  1.9733  0.2388 -0.2506
12212TIP3    H258052   2.540   6.621  11.414 -0.4993 -1.0956 -1.4697
12213TIP3   OH258053   3.476   6.059  14.695  0.8277 -0.2597 -0.2648
12213TIP3    H158054   3.448   6.038  14.784 -3.9113  0.9635 -1.1586
12213TIP3    H258055   3.464   5.977  14.647  0.2167 -0.1390 -0.3315
12214TIP3   OH258056   3.292   0.348  10.804  0.3842  0.0499 -0.0370
12214TIP3    H158057   3.222   0.307  10.753  1.2214 -0.0487 -1.1396
12214TIP3    H258058   3.303   0.435  10.766 -0.0923  0.6093  1.0601
12215TIP3   OH258059   4.318   1.131  12.932 -0.1005 -0.2381  0.2343
12215TIP3    H158060   4.406   1.111  12.901 -1.2821 -2.7843 -1.8449
12215TIP3    H258061   4.265   1.058  12.902 -3.0108  1.3461  1.1515
12216TIP3   OH258062   1.405   5.634   5.639 -0.1452  1.1210  0.6175
12216TIP3    H158063   1.437   5.629   5.729 -0.8996  0.8686  0.8742
12216TIP3    H258064   1.423   5.724   5.612 -1.0809  1.5838  1.4679
12217TIP3   OH258065   4.172   4.779  10.762 -0.0385  0.2976 -0.2246
12217TIP3    H158066   4.258   4.791  10.723  0.7153 -0.8847  0.9757
12217TIP3    H258067   4.171   4.837  10.838 -0.4533  0.5762 -0.4367
12218TIP3   OH258068   0.474   6.397  15.273 -0.2480  0.7763 -0.1861
12218TIP3    H158069   0.559   6.414  15.234 -0.5808  0.4894 -1.0530
12218TIP3    H258070   0.460   6.303  15.260 -0.8382  0.8816 -0.3320
12219TIP3   OH258071   2.554   3.527   2.192  0.5808  0.1476  0.3802
12219TIP3    H158072   2.616   3.550   2.123 -0.7821  0.6276 -0.7238
12219TIP3    H258073   2.525   3.438   2.170 -0.2712  0.5091 -0.0086
12220TIP3   OH258074   6.163   3.019  16.209  0.3163  0.1416  0.4156
12220TIP3    H158075   6.133   3.107  16.186  0.3683  0.3311  1.0446
12220TIP3    H258076   6.254   3.032  16.238  1.2722 -0.4944 -2.0262
12221TIP3   OH258077   3.238   1.312  16.838 -0.1440  0.6680 -0.1488
12221TIP3    H158078   3.288   1.373  16.784 -0.2368  1.6274  0.8131
12221TIP3    H258079   3.291   1.233  16.840  0.5104  1.0856 -0.5298
12222TIP3   OH258080   4.821   4.188  12.986  0.1318 -0.6701 -0.1535
12222TIP3    H158081   4.896   4.161  13.039  0.8519  2.3141  0.5652
12222TIP3    H258082   4.857   4.202  12.899  0.3531  0.3685  0.0940
12223TIP3   OH258083   5.176   6.609  11.399 -0.1032 -0.0272  1.0744
12223TIP3    H158084   5.271   6.600  11.390 -0.3231 -0.5164 -1.5339
12223TIP3    H258085   5.158   6.697  11.368 -0.7026 -0.8158 -0.9383
12224TIP3   OH258086   1.542   6.578   0.233 -0.4417  0.6843 -0.5272
12224TIP3    H158087   1.514   6.610   0.319  0.4897 -1.6019  0.7150
12224TIP3    H258088   1.600   6.646   0.200  1.5364  0.3727  2.0269
12225TIP3   OH258089   2.766   3.488   4.195 -0.4790  1.0066  0.4099
12225TIP3    H158090   2.861   3.494   4.205 -0.3153 -0.5928  0.0041
12225TIP3    H258091   2.732   3.505   4.283  0.2368  0.7170  0.7540
12226TIP3   OH258092   4.169   0.368  12.940 -0.2913  0.0725  0.1189
12226TIP3    H158093   4.232   0.397  13.006  0.7172  0.1473 -0.8497
12226TIP3    H258094   4.128   0.449  12.909  0.9764  0.2914 -1.0512
12227TIP3   OH258095   5.563   2.816  11.293  0.7332  0.6514 -0.4436
12227TIP3    H158096   5.536   2.729  11.265  1.4626 -0.4497  2.0732
12227TIP3    H258097   5.494   2.874  11.259 -0.0488 -0.9233 -1.6917
12228TIP3   OH258098   1.981   4.518  16.908 -0.2831  0.0141 -0.1288
12228TIP3    H158099   2.007   4.451  16.973  1.1621  0.0978 -0.5920
12228TIP3    H258100   2.063   4.544  16.867 -0.9900  1.1998 -0.8208
12229TIP3   OH258101   0.085   3.534   2.477  0.3903 -0.3472  0.4507
12229TIP3    H158102   0.090   3.620   2.436 -0.5724 -0.3910  0.2244
12229TIP3    H258103   0.173   3.520   2.513  0.5760  0.6892  0.4320
12230TIP3   OH258104   0.999   4.132  13.521  0.2417 -0.1837 -0.1595
12230TIP3    H158105   1.024   4.083  13.442  0.9500 -1.3936  0.7809
12230TIP3    H258106   1.066   4.110  13.585  0.0489  1.3118  0.6069
12231TIP3   OH258107   3.982   2.070   2.727  0.7475  0.1484 -0.0696
12231TIP3    H158108   4.031   2.013   2.786  1.1532  2.1645  1.6932
12231TIP3    H258109   4.047   2.135   2.697 -0.9367  4.6525  4.5326
12232TIP3   OH258110   0.770   0.264  12.260  0.3067 -0.0090  0.3531
12232TIP3    H158111   0.797   0.221  12.341  0.9486 -0.0195  0.1402
12232TIP3    H258112   0.839   0.242  12.197 -0.4847 -0.5160 -0.3740
12233TIP3   OH258113   4.969   0.311   4.142  0.3603 -0.0407  0.1828
12233TIP3    H158114   5.039   0.373   4.120  0.1170 -0.6649 -2.7430
12233TIP3    H258115   4.895   0.339   4.088  0.6220 -3.5142 -2.2825
12234TIP3   OH258116   5.939   6.571  15.185 -0.2471  0.4674 -0.1016
12234TIP3    H158117   5.850   6.548  15.160 -0.0922  0.2318 -0.4440
12234TIP3    H258118   5.929   6.622  15.265 -0.5361 -1.6573  1.2916
12235TIP3   OH258119   3.105   1.081  13.612  0.2448  0.2963  0.2407
12235TIP3    H158120   3.042   1.132  13.663 -0.1893 -0.0131  0.0238
12235TIP3    H258121   3.079   1.095  13.521  0.9262  0.7310  0.1106
12236TIP3   OH258122   2.591   2.930  14.995  0.2319 -0.9746  0.0766
12236TIP3    H158123   2.607   2.995  14.927  1.4895 -2.1673 -0.8233
12236TIP3    H258124   2.499   2.904  14.981  0.1974 -0.5353 -0.5707
12237TIP3   OH258125   3.469   3.912   0.830 -0.7151 -0.0052  0.3480
12237TIP3    H158126   3.510   3.876   0.909  0.3750 -0.2835 -0.3235
12237TIP3    H258127   3.380   3.878   0.831  0.2898 -2.9169 -0.3380
12238TIP3   OH258128   3.351   5.014   2.093  0.3475  0.0187  0.6709
12238TIP3    H158129   3.264   4.976   2.083 -1.2420  3.1927  1.1612
12238TIP3    H258130   3.380   4.986   2.180 -1.1643  0.6198  1.4089
12239TIP3   OH258131   4.705   0.542  11.746 -0.3846  0.5338 -0.3120
12239TIP3    H158132   4.788   0.550  11.792 -0.4057  1.3699 -0.3977
12239TIP3    H258133   4.639   0.546  11.816 -0.3644 -0.0105 -0.2556
12240TIP3   OH258134   3.177   1.919   4.356  0.5960  0.3154 -0.3466
12240TIP3    H158135   3.177   2.007   4.393 -0.3202  0.0562  0.3067
12240TIP3    H258136   3.089   1.886   4.372  1.3670 -1.2909  0.8230
12241TIP3   OH258137   5.682   6.661   5.740 -0.0981  0.0070  0.7574
12241TIP3    H158138   5.746   6.590   5.746  1.6352  1.3149 -0.9195
12241TIP3    H258139   5.643   6.667   5.828  0.7640 -2.0104  1.3217
12242TIP3   OH258140   0.269   3.300   2.976 -0.0387 -0.1253  0.2455
12242TIP3    H158141   0.234   3.241   2.909  1.6670  0.8064 -1.5849
12242TIP3    H258142   0.364   3.289   2.970  0.1776 -0.3015  2.8677
12243TIP3   OH258143   5.223   4.135  13.025 -0.0523 -0.1937 -0.1345
12243TIP3    H158144   5.145   4.127  13.080  1.0431 -0.2007  1.4498
12243TIP3    H258145   5.225   4.228  13.001  0.7052  0.3245  1.7669
12244TIP3   OH258146   0.409   0.693   3.828  0.7277  0.5314 -0.1349
12244TIP3    H158147   0.371   0.605   3.833  0.5935  0.6460  1.6980
12244TIP3    H258148   0.334   0.750   3.810  0.7850  0.3062 -1.1364
12245TIP3   OH258149   4.135   3.110  16.326  0.7435 -0.1622 -0.2339
12245TIP3    H158150   4.179   3.194  16.337 -1.8717  1.0333  2.9736
12245TIP3    H258151   4.060   3.129  16.269 -1.1270  0.4106  2.2385
12246TIP3   OH258152   4.397   1.308   0.058 -0.0511 -0.0281 -0.4064
12246TIP3    H158153   4.391   1.383   0.117  1.3131 -0.4689  0.3502
12246TIP3    H258154   4.489   1.308   0.029 -0.4281 -0.4788 -1.6587
12247TIP3   OH258155   2.743   5.908   4.764 -0.2248 -0.3608 -0.5024
12247TIP3    H158156   2.677   5.841   4.748 -0.5103 -0.3276  0.4903
12247TIP3    H258157   2.780   5.885   4.850 -1.5544  1.7298  0.7209
12248TIP3   OH258158   1.385   6.692  13.949 -0.1305 -0.3786  0.2804
12248TIP3    H158159   1.334   6.618  13.981 -1.4367  0.0985 -0.6112
12248TIP3    H258160   1.437   6.719  14.024 -1.0120 -1.0502  1.1591
12249TIP3   OH258161   3.784   0.036  13.525 -0.0507  0.2769 -0.0477
12249TIP3    H158162   3.752   0.055  13.613 -0.3224 -1.4308  0.2548
12249TIP3    H258163   3.867   0.083  13.519  0.2551 -0.0388  1.3345
12250TIP3   OH258164   3.154   4.619  10.785 -0.1645 -0.2501  0.2706
12250TIP3    H158165   3.178   4.558  10.715  1.1148  0.3589  0.1646
12250TIP3    H258166   3.194   4.582  10.864  0.4317  0.3397  0.2442
12251TIP3   OH258167   3.360   4.087   2.044  0.3556  0.0549 -0.0174
12251TIP3    H158168   3.422   4.018   2.067 -0.9614 -0.9708  0.5970
12251TIP3    H258169   3.300   4.091   2.119 -0.8569  0.3860 -0.9770
12252TIP3   OH258170   0.967   6.792  13.146  0.1027  0.0238 -0.1133
12252TIP3    H158171   1.063   6.791  13.142  0.0482 -0.7131 -2.0670
12252TIP3    H258172   0.945   6.711  13.194  0.4412  0.2573  0.4535
12253TIP3   OH258173   1.400   1.052   0.361 -0.5783 -0.5805  0.5700
12253TIP3    H158174   1.473   1.088   0.412 -0.3392  1.1961 -0.8963
12253TIP3    H258175   1.322   1.074   0.413 -0.2778  0.3875  0.6355
12254TIP3   OH258176   3.531   6.666   2.907 -0.0791 -0.1506  0.4514
12254TIP3    H158177   3.480   6.702   2.980 -1.0140 -0.0572 -0.2323
12254TIP3    H258178   3.501   6.715   2.830  1.2263  0.0786  0.0547
12255TIP3   OH258179   0.738   6.105   1.675 -0.4405 -0.1018  0.8034
12255TIP3    H158180   0.755   6.023   1.720  1.2625 -0.1534  0.1081
12255TIP3    H258181   0.820   6.127   1.631 -1.0579  1.6266  0.4161
12256TIP3   OH258182   0.734   6.752   3.755 -0.2307  0.3135 -0.0188
12256TIP3    H158183   0.785   6.762   3.675  0.2393 -1.3710  0.0273
12256TIP3    H258184   0.791   6.784   3.825  0.3727 -0.5613 -0.0915
12257TIP3   OH258185   6.434   3.518  10.896  0.4388  0.7497 -0.0301
12257TIP3    H158186   6.396   3.595  10.854  0.8497  0.6809 -0.5485
12257TIP3    H258187   6.447   3.544  10.987  2.2383  1.9566 -0.5692
12258TIP3   OH258188   3.282   4.685   4.487  0.2098  0.0906  0.3099
12258TIP3    H158189   3.232   4.628   4.545 -0.9072  0.6777 -0.0561
12258TIP3    H258190   3.282   4.639   4.403 -1.5375  1.0515 -0.2522
12259TIP3   OH258191   6.307   5.288   1.429  0.5386 -0.1072  0.3895
12259TIP3    H158192   6.341   5.355   1.369 -1.5943  0.4124 -0.3135
12259TIP3    H258193   6.278   5.337   1.506  3.3490 -0.7794  2.0207
12260TIP3   OH258194   1.441   1.339   0.701 -0.3535 -0.0432  0.2107
12260TIP3    H158195   1.370   1.341   0.637 -0.6539  0.7768  0.5512
12260TIP3    H258196   1.513   1.294   0.656 -1.3097 -1.5206  0.1082
12261TIP3   OH258197   5.392   3.665  13.897 -0.8001 -0.1594 -0.5109
12261TIP3    H158198   5.438   3.594  13.940 -1.2600 -0.0317  0.2235
12261TIP3    H258199   5.322   3.689  13.959  1.1381  2.9408  0.7151
12262TIP3   OH258200   2.939   2.256  11.339 -0.3179  0.0091 -0.4444
12262TIP3    H158201   2.894   2.262  11.255  1.0307  3.5927 -1.1075
12262TIP3    H258202   3.011   2.194  11.324 -1.0248 -0.5911 -1.4178
12263TIP3   OH258203   2.567   4.377  14.237  0.6141 -0.0662  0.4114
12263TIP3    H158204   2.522   4.460  14.230  0.1968 -0.3712 -0.9387
12263TIP3    H258205   2.639   4.384  14.174  2.1088  0.1809  2.0773
12264TIP3   OH258206   4.881   4.218   3.952 -0.1190 -0.2522 -0.4747
12264TIP3    H158207   4.894   4.190   3.861  1.0050  1.1063 -0.7640
12264TIP3    H258208   4.950   4.174   4.000  0.4824  0.5218 -0.6154
12265TIP3   OH258209   1.975   5.341   4.901  0.9478 -0.0435  0.4241
12265TIP3    H158210   1.912   5.359   4.831 -0.8169  0.2439  2.0275
12265TIP3    H258211   1.935   5.378   4.980  2.4048 -1.2629  1.7889
12266TIP3   OH258212   4.131   3.220  16.992 -0.2812 -0.3028  0.2636
12266TIP3    H158213   4.210   3.174  16.963 -0.3534  0.5021 -1.2950
12266TIP3    H258214   4.163   3.302  17.030 -0.3714  0.7993 -1.8618
12267TIP3   OH258215   2.292   6.036   0.887  0.4011 -0.7294  0.1427
12267TIP3    H158216   2.346   6.101   0.842  0.4247 -0.0233  1.1841
12267TIP3    H258217   2.306   6.051   0.980 -2.1489 -0.0060  0.5026
12268TIP3   OH258218   6.175   4.740  15.690  1.0337 -0.5232  0.2039
12268TIP3    H158219   6.221   4.759  15.609  2.4635  0.3627  1.1748
12268TIP3    H258220   6.225   4.668  15.730  0.0612 -1.2846  0.1062
12269TIP3   OH258221   2.521   0.058   2.280  0.1139 -0.1004 -0.6813
12269TIP3    H158222   2.596   0.003   2.258 -0.1510 -0.5312 -0.5250
12269TIP3    H258223   2.551   0.112   2.353 -0.5888 -2.2997  1.3792
12270TIP3   OH258224   3.420   0.084  12.479  0.0221  0.3346 -0.5775
12270TIP3    H158225   3.474   0.122  12.410  0.2371 -0.4290 -0.8458
12270TIP3    H258226   3.335   0.128  12.470  0.5759  1.5200 -0.1682
12271TIP3   OH258227   4.135   0.019  13.624 -0.4292  0.3274  0.3318
12271TIP3    H158228   4.109  -0.065  13.662 -0.3441  0.4837  0.7433
12271TIP3    H258229   4.083   0.027  13.545 -0.0764 -0.3494  0.0179
12272TIP3   OH258230   2.159   3.878   1.629  0.0851  0.3194  0.1368
12272TIP3    H158231   2.252   3.892   1.609 -0.0621  0.5792 -0.4092
12272TIP3    H258232   2.149   3.908   1.719  0.5111  0.3849  0.1663
12273TIP3   OH258233   2.228   6.236   1.408  0.3521 -0.0198 -0.6007
12273TIP3    H158234   2.149   6.286   1.389  0.1058 -0.7088 -1.4674
12273TIP3    H258235   2.299   6.288   1.370  0.1617 -0.0681 -1.0231
12274TIP3   OH258236   1.898   2.763  16.157 -0.2919 -0.0341 -0.2905
12274TIP3    H158237   1.846   2.751  16.077  1.4702 -2.6475 -1.1865
12274TIP3    H258238   1.897   2.678  16.199 -1.0534  1.2485  2.5189
12275TIP3   OH258239   2.738   3.418  10.976  0.0187 -0.1304 -0.7262
12275TIP3    H158240   2.833   3.419  10.990  0.0110  1.8864 -0.5613
12275TIP3    H258241   2.728   3.396  10.883  0.6587 -0.3164 -0.7541
12276TIP3   OH258242   2.710   6.568  16.311 -0.5401  0.5779 -0.1302
12276TIP3    H158243   2.687   6.481  16.344  0.7187  0.3781  0.2695
12276TIP3    H258244   2.649   6.627  16.356  1.6561  0.4481  3.4545
12277TIP3   OH258245   0.594   1.873   0.309 -0.0530  0.3836  0.1509
12277TIP3    H158246   0.635   1.873   0.396 -2.1169 -0.0837  1.1764
12277TIP3    H258247   0.580   1.781   0.289  0.8632  0.4588 -0.9459
12278TIP3   OH258248   4.416   2.968  12.847 -0.1870  0.4053 -0.3022
12278TIP3    H158249   4.477   2.913  12.896 -0.9863  0.3217  0.6246
12278TIP3    H258250   4.432   2.946  12.755  0.0861 -0.7546  0.0082
12279TIP3   OH258251   4.576   3.578   0.670  0.1253  0.4344 -0.5331
12279TIP3    H158252   4.569   3.499   0.723 -1.9024 -0.5254 -2.0940
12279TIP3    H258253   4.559   3.649   0.731  0.3091 -0.4427  0.5780
12280TIP3   OH258254   0.980   0.482   4.939  0.3098  0.0296 -0.4018
12280TIP3    H158255   1.002   0.529   4.859 -2.9475  0.6663 -1.0889
12280TIP3    H258256   0.997   0.544   5.010  1.9014 -0.0485 -0.6836
12281TIP3   OH258257   5.560   1.321   1.806 -0.5597  0.5607  0.3832
12281TIP3    H158258   5.537   1.299   1.896  0.6334  1.6459  0.9865
12281TIP3    H258259   5.478   1.311   1.757 -1.0361 -0.8710  1.4007
12282TIP3   OH258260   4.541   1.982  11.982 -0.2344 -0.2917 -0.1648
12282TIP3    H158261   4.508   1.970  11.893 -0.7095 -0.0066 -0.0330
12282TIP3    H258262   4.524   2.074  12.002 -1.5621 -0.7105  0.7806
12283TIP3   OH258263   3.442   2.278   4.227 -1.1781 -0.3248 -0.0675
12283TIP3    H158264   3.389   2.356   4.245 -0.4997 -0.1297  1.2181
12283TIP3    H258265   3.476   2.252   4.313 -1.7017 -2.2777 -0.4131
12284TIP3   OH258266   3.609   0.809   4.709  0.2739  0.1562  0.2019
12284TIP3    H158267   3.635   0.901   4.710  1.8649 -0.1861 -2.4208
12284TIP3    H258268   3.687   0.762   4.740  0.0276 -0.4107 -0.0327
12285TIP3   OH258269   0.652   4.301   4.176 -0.0474  0.2691 -0.0942
12285TIP3    H158270   0.652   4.265   4.264  0.4477 -0.5070 -0.4030
12285TIP3    H258271   0.731   4.356   4.173 -0.0225  0.2339 -0.0796
12286TIP3   OH258272   0.848   1.184  16.734  0.0049  0.3635  0.0401
12286TIP3    H158273   0.938   1.185  16.765 -0.6491 -0.7854  2.1965
12286TIP3    H258274   0.834   1.093  16.705 -0.7040  0.2665  0.6353
12287TIP3   OH258275   1.909   5.770   5.193 -0.1228  0.3496  0.0190
12287TIP3    H158276   1.993   5.788   5.236  0.3759 -1.7096 -0.0139
12287TIP3    H258277   1.848   5.756   5.265  0.2455 -1.0434  0.0809
12288TIP3   OH258278   3.260   4.252  11.121  0.4895  0.5012 -0.1492
12288TIP3    H158279   3.350   4.221  11.131  0.5793  1.2666  1.6650
12288TIP3    H258280   3.223   4.194  11.054  2.2607  0.0677 -0.8251
12289TIP3   OH258281   4.210   2.365  11.250  0.6857 -0.5004 -0.5513
12289TIP3    H158282   4.141   2.298  11.247  0.8212 -0.6215 -1.0208
12289TIP3    H258283   4.168   2.441  11.290  0.5326 -0.8671 -0.0070
12290TIP3   OH258284   5.136   1.765   0.752  0.1242  0.0033 -0.2141
12290TIP3    H158285   5.108   1.713   0.827 -0.1078 -0.5386 -0.6689
12290TIP3    H258286   5.183   1.703   0.696 -0.9092  0.0674 -1.1837
12291TIP3   OH258287   2.825   1.954   1.237 -0.3502  0.0453 -0.1879
12291TIP3    H158288   2.848   1.999   1.319 -0.4670 -1.1487  0.5284
12291TIP3    H258289   2.797   1.867   1.265 -0.0088 -0.5230 -1.5379
12292TIP3   OH258290   0.769   6.183  14.379  0.1538 -0.1276  0.4773
12292TIP3    H158291   0.718   6.258  14.410 -0.3811 -0.8827  1.5047
12292TIP3    H258292   0.746   6.175  14.286 -1.6698 -0.4571  0.9118
12293TIP3   OH258293   3.736   3.518  13.897 -0.4478  0.2577 -0.1600
12293TIP3    H158294   3.646   3.521  13.864 -0.7821  2.2140  0.7897
12293TIP3    H258295   3.755   3.424  13.906 -1.6999 -0.2441 -2.1364
12294TIP3   OH258296   2.348   0.802  14.491  0.3355  0.3837 -0.4036
12294TIP3    H158297   2.295   0.774  14.417  1.5425  2.4079 -2.1305
12294TIP3    H258298   2.284   0.837  14.554 -0.9222 -3.2612  0.6139
12295TIP3   OH258299   3.388   4.815  10.375 -0.3233  0.3145  0.1252
12295TIP3    H158300   3.398   4.740  10.433  1.3703  0.1029 -0.3882
12295TIP3    H258301   3.298   4.808  10.343 -0.0454 -1.8598 -0.3768
12296TIP3   OH258302   2.137   0.185  16.032  0.0330  0.2142  0.9641
12296TIP3    H158303   2.163   0.192  16.124 -1.6763  1.8780  1.3846
12296TIP3    H258304   2.053   0.230  16.027 -1.6503 -2.8155 -0.7857
12297TIP3   OH258305   6.414   0.215   5.342  0.6803 -0.3236  0.4455
12297TIP3    H158306   6.446   0.295   5.384 -2.8649  2.3381 -1.4377
12297TIP3    H258307   6.399   0.241   5.251 -1.1208 -2.9752 -0.1014
12298TIP3   OH258308   1.587   5.255   4.460 -0.0644 -0.0310 -0.1704
12298TIP3    H158309   1.519   5.200   4.421 -0.7842 -0.0264  1.0287
12298TIP3    H258310   1.580   5.238   4.554  0.8946  0.7733  0.0549
12299TIP3   OH258311   2.085   5.182   0.813  0.0883  0.2762 -0.3563
12299TIP3    H158312   2.088   5.177   0.717  1.8417 -1.4021 -0.2796
12299TIP3    H258313   2.176   5.175   0.840 -0.3427  1.1297  1.4516
12300TIP3   OH258314   4.067   3.846   5.254 -0.4930 -0.1904  0.0360
12300TIP3    H158315   4.048   3.899   5.331  0.5492 -1.9135  1.5523
12300TIP3    H258316   4.021   3.763   5.269  1.1013 -1.1870 -0.3246
12301TIP3   OH258317   5.942   0.215   2.131 -0.0430  0.8667 -0.0313
12301TIP3    H158318   6.005   0.271   2.176  1.5475  0.6061 -1.7973
12301TIP3    H258319   5.876   0.275   2.097  1.3255  1.6488 -1.3947
12302TIP3   OH258320   3.658   3.174  16.789 -0.0414  0.2161 -0.0879
12302TIP3    H158321   3.753   3.186  16.781  0.1197 -0.3858  0.7489
12302TIP3    H258322   3.624   3.196  16.702  0.8847  0.2305 -0.4642
12303TIP3   OH258323   0.836   3.291   2.694 -0.3191 -0.4549 -0.7196
12303TIP3    H158324   0.867   3.265   2.781 -0.2308  0.1633 -0.5608
12303TIP3    H258325   0.912   3.330   2.652 -0.7539  0.6816 -0.4863
12304TIP3   OH258326   6.239   2.092  16.735  0.0250 -0.1388 -0.5040
12304TIP3    H158327   6.236   2.144  16.655  0.2618 -1.4513 -1.3963
12304TIP3    H258328   6.319   2.040  16.727 -1.3420 -2.3379 -0.7873
12305TIP3   OH258329   4.244   5.066   3.526  0.6889  0.3188  0.2100
12305TIP3    H158330   4.218   4.987   3.574 -0.0732  0.3938 -0.0748
12305TIP3    H258331   4.249   5.038   3.435 -1.5269  1.0348 -0.1829
12306TIP3   OH258332   2.129   0.149  11.431 -0.0908  0.1969 -0.5857
12306TIP3    H158333   2.111   0.072  11.376 -0.1849 -0.0195 -0.2567
12306TIP3    H258334   2.208   0.125  11.480 -0.9561 -0.3025  0.6234
12307TIP3   OH258335   0.456   5.895  14.304  0.0111 -0.4403  0.3313
12307TIP3    H158336   0.414   5.960  14.360 -1.7741 -2.1360  1.0938
12307TIP3    H258337   0.414   5.906  14.218  0.7389  0.3124  0.0573
12308TIP3   OH258338   0.468   4.212  16.097  0.1134 -0.0080 -0.0162
12308TIP3    H158339   0.508   4.152  16.035 -0.5802  0.7041 -1.1775
12308TIP3    H258340   0.480   4.299  16.058 -0.1465  0.4841  0.9502
12309TIP3   OH258341   5.766   0.730  14.633 -0.1933  0.2003  0.0752
12309TIP3    H158342   5.820   0.671  14.684 -0.4516 -0.4525 -0.3992
12309TIP3    H258343   5.699   0.674  14.594 -0.8803  0.9103  0.2106
12310TIP3   OH258344   0.844   2.189   3.465 -0.0951  0.7239 -0.1744
12310TIP3    H158345   0.779   2.225   3.405  0.0605 -0.2084 -0.9314
12310TIP3    H258346   0.794   2.165   3.543 -0.4129  1.3176 -0.1890
12311TIP3   OH258347   5.005   5.334  10.944  0.3205 -0.8549  0.0319
12311TIP3    H158348   4.913   5.313  10.930 -0.0654  1.1049 -0.5962
12311TIP3    H258349   5.047   5.314  10.860  0.6133 -2.2783  0.4846
12312TIP3   OH258350   1.072   3.805   0.912  0.1129 -0.2806 -0.4285
12312TIP3    H158351   1.102   3.724   0.953  0.5191 -0.6158 -1.3388
12312TIP3    H258352   1.038   3.858   0.984  0.2582 -1.0756  0.2420
12313TIP3   OH258353   0.546   3.710   4.864  0.3584 -0.1578  0.3785
12313TIP3    H158354   0.555   3.789   4.811 -0.0879 -1.0189 -1.0391
12313TIP3    H258355   0.475   3.729   4.924 -0.4423  0.1856 -0.6362
12314TIP3   OH258356   4.131   4.803   0.082  0.1933  0.3342 -0.2235
12314TIP3    H158357   4.078   4.817   0.161 -0.1843 -2.7139  0.1743
12314TIP3    H258358   4.121   4.884   0.032 -0.7191  1.8070  2.1798
12315TIP3   OH258359   6.224   2.753   5.065 -0.2502  0.5886  0.4036
12315TIP3    H158360   6.259   2.841   5.079  2.1438  0.0247 -1.2717
12315TIP3    H258361   6.196   2.753   4.973 -2.1278  0.1306  0.9267
12316TIP3   OH258362   0.093   2.264   2.779  0.0044 -0.2214  0.3288
12316TIP3    H158363   0.076   2.229   2.691 -0.4477 -0.1034  0.3657
12316TIP3    H258364   0.034   2.339   2.786  0.3787  0.0534  0.5591
12317TIP3   OH258365   1.655   3.952   3.199 -0.1068  0.6442  0.0537
12317TIP3    H158366   1.583   3.890   3.203  0.1493  0.2837 -0.6544
12317TIP3    H258367   1.729   3.901   3.165 -0.1639  1.5753 -1.5363
12318TIP3   OH258368   5.844   0.208  14.872 -0.3906 -0.1503  0.6441
12318TIP3    H158369   5.809   0.279  14.926  1.7906 -0.1977  2.2813
12318TIP3    H258370   5.917   0.247  14.825 -0.6411 -0.7643 -0.2728
12319TIP3   OH258371   4.595   3.000  12.276  0.3114 -0.0950 -0.1242
12319TIP3    H158372   4.686   2.989  12.248  0.2844 -1.9071  0.3778
12319TIP3    H258373   4.565   3.079  12.231  1.3792 -0.8444 -2.2686
12320TIP3   OH258374   1.682   0.966   0.675 -0.3402  0.6762  0.1642
12320TIP3    H158375   1.776   0.953   0.662 -0.2013  0.8553  0.9371
12320TIP3    H258376   1.641   0.899   0.621  0.2497  0.1956  0.2950
12321TIP3   OH258377   6.229   3.008   3.425  0.3099 -0.4547  0.2894
12321TIP3    H158378   6.280   2.931   3.449  0.9711 -0.5627 -1.3141
12321TIP3    H258379   6.294   3.077   3.415 -0.0368 -0.1917 -0.1957
12322TIP3   OH258380   0.003   3.726  12.046 -0.4277  0.1361  0.0668
12322TIP3    H158381  -0.047   3.680  12.114  0.4832 -0.5608  0.2821
12322TIP3    H258382  -0.004   3.669  11.969  0.3763 -0.1894  0.2221
12323TIP3   OH258383   5.788   4.477   5.853 -0.0507 -0.5868 -0.1816
12323TIP3    H158384   5.858   4.521   5.902 -0.7344  2.2049 -1.4853
12323TIP3    H258385   5.713   4.477   5.913 -0.0332  0.0890 -0.1461
12324TIP3   OH258386   1.833   3.814  14.460 -0.3601  0.8150 -0.6033
12324TIP3    H158387   1.777   3.830  14.384 -1.1546 -0.9425 -0.4244
12324TIP3    H258388   1.922   3.835  14.429 -0.7211  0.5504 -1.8748
12325TIP3   OH258389   5.663   1.362   3.868 -0.0485 -0.2580 -0.0480
12325TIP3    H158390   5.603   1.294   3.838  0.3792 -0.6973  0.0875
12325TIP3    H258391   5.608   1.441   3.875 -0.7886 -0.8318  0.8408
12326TIP3   OH258392   4.105   6.288  14.737 -0.0403  0.1505  0.2492
12326TIP3    H158393   4.089   6.351  14.807 -0.8158  0.7896 -0.4920
12326TIP3    H258394   4.196   6.303  14.711  0.1921  0.0373  0.9792
12327TIP3   OH258395   0.413   6.077   5.136  0.4549 -0.2147 -0.1534
12327TIP3    H158396   0.368   6.144   5.188  0.3996  0.0230 -0.5032
12327TIP3    H258397   0.484   6.124   5.092 -1.2909  0.2863 -2.6755
12328TIP3   OH258398   2.769   1.418   0.779 -0.4832 -0.7502  0.0424
12328TIP3    H158399   2.820   1.373   0.846 -0.7948  0.1239  0.8895
12328TIP3    H258400   2.834   1.448   0.715 -0.0077 -0.3002  0.7262
12329TIP3   OH258401   1.119   5.099  13.373 -0.1666  0.7210 -0.0659
12329TIP3    H158402   1.062   5.166  13.334 -1.5745 -0.3979 -0.0225
12329TIP3    H258403   1.076   5.016  13.351  0.8458 -0.1009  0.9702
12330TIP3   OH258404   1.926   2.388   3.955  0.6734  0.1290  0.2248
12330TIP3    H158405   1.908   2.473   3.996 -0.0590  1.1736 -2.1079
12330TIP3    H258406   2.019   2.392   3.932 -0.0608  1.9312 -3.1042
12331TIP3   OH258407   5.583   2.159   2.704 -0.1695  0.7193  0.0316
12331TIP3    H158408   5.588   2.086   2.642 -1.4223  0.9033 -0.2986
12331TIP3    H258409   5.675   2.179   2.724  0.2767  0.6390 -1.7360
12332TIP3   OH258410   5.744   2.923   4.550 -0.1475 -0.0756 -0.0153
12332TIP3    H158411   5.670   2.980   4.570 -0.7795 -0.1975 -1.8727
12332TIP3    H258412   5.740   2.909   4.456  0.6308 -2.3111  0.2049
12333TIP3   OH258413   6.142   5.998   3.497  0.5104 -0.1797 -0.5197
12333TIP3    H158414   6.216   5.968   3.550  0.8151 -2.5281 -2.0636
12333TIP3    H258415   6.183   6.040   3.421  0.2011  0.2775 -0.4329
12334TIP3   OH258416   4.156   0.542  12.245 -0.3483  0.0583  0.6500
12334TIP3    H158417   4.146   0.583  12.331  0.3259  0.4041  0.5740
12334TIP3    H258418   4.249   0.520  12.240 -0.3931 -0.0106  0.0354
12335TIP3   OH258419   1.917   4.303  10.377  0.1832  0.0796  0.0968
12335TIP3    H158420   1.848   4.366  10.353  0.5679  0.3243 -0.3875
12335TIP3    H258421   1.974   4.351  10.436 -1.7487 -1.0502  3.1354
12336TIP3   OH258422   4.424   2.381  17.008  0.1895 -0.8334  0.5206
12336TIP3    H158423   4.508   2.357  16.968  0.6690 -0.8796  1.5344
12336TIP3    H258424   4.420   2.329  17.089 -0.2186  0.1420  1.1419
12337TIP3   OH258425   3.864   0.881  15.979 -0.1640  0.5416 -0.0147
12337TIP3    H158426   3.934   0.830  15.938 -1.6081 -0.8403 -0.8751
12337TIP3    H258427   3.867   0.857  16.071 -1.3044 -1.8452 -0.5106
12338TIP3   OH258428   1.656   4.920   3.848 -0.6548  0.2041 -0.3055
12338TIP3    H158429   1.608   4.842   3.877 -1.7605  1.0292  0.1610
12338TIP3    H258430   1.723   4.933   3.915  0.6898 -1.3300 -1.2951
12339TIP3   OH258431   0.084   5.726  11.531 -0.6440  0.2399  0.4278
12339TIP3    H158432   0.073   5.643  11.578 -0.5705 -0.0690 -0.0911
12339TIP3    H258433   0.143   5.777  11.587 -1.4599  0.3350  1.2320
12340TIP3   OH258434   6.256   2.236  12.665 -0.3623  0.6434 -0.1919
12340TIP3    H158435   6.331   2.217  12.721  0.1495  1.0529 -0.7319
12340TIP3    H258436   6.187   2.263  12.726  0.2441  1.2685  0.2260
12341TIP3   OH258437   0.797   0.995   2.772 -0.3089 -0.1168  0.2217
12341TIP3    H158438   0.883   0.955   2.763 -0.0243  0.7669 -1.3278
12341TIP3    H258439   0.738   0.922   2.790  0.5851 -0.8864  0.0777
12342TIP3   OH258440   2.647   5.056  16.825  0.4604  0.4645 -0.6960
12342TIP3    H158441   2.731   5.053  16.872  1.1849  0.2816 -1.9605
12342TIP3    H258442   2.620   4.964  16.819 -0.0927  0.5646  0.1485
12343TIP3   OH258443   1.714   6.443  15.992  0.4341  0.0871 -0.2383
12343TIP3    H158444   1.726   6.355  16.028 -0.4892 -0.8481 -2.0846
12343TIP3    H258445   1.803   6.477  15.983  0.7276  0.4450  2.8856
12344TIP3   OH258446   4.103   3.298   4.127  0.2828 -0.1118  0.5088
12344TIP3    H158447   4.077   3.208   4.149 -3.5668  0.6827 -0.0009
12344TIP3    H258448   4.111   3.342   4.212  0.4321 -0.5181  0.7095
12345TIP3   OH258449   6.527   2.838   0.629  0.3814  0.8297 -0.4392
12345TIP3    H158450   6.445   2.855   0.583  0.3400  1.3786 -0.1809
12345TIP3    H258451   6.551   2.749   0.606 -0.8054  0.3050  0.2829
12346TIP3   OH258452   2.842   5.219  12.672  0.1580  0.0988 -0.7521
12346TIP3    H158453   2.752   5.205  12.641 -0.4344 -0.3980  1.0430
12346TIP3    H258454   2.843   5.311  12.699 -0.4983 -0.3917  1.1325
12347TIP3   OH258455   0.509   1.507  16.178 -0.5068  0.6474 -0.9245
12347TIP3    H158456   0.587   1.562  16.174 -0.1942  0.4594  1.2867
12347TIP3    H258457   0.521   1.454  16.257 -1.8049 -1.0610 -1.7988
12348TIP3   OH258458   6.115   0.973   1.414  0.3979 -0.4375 -0.4280
12348TIP3    H158459   6.039   0.971   1.356  0.8375 -0.5972 -1.0041
12348TIP3    H258460   6.080   1.006   1.497 -0.3422 -0.7216 -0.6155
12349TIP3   OH258461   3.198   2.460   4.977  0.3939 -0.0247 -0.3448
12349TIP3    H158462   3.127   2.525   4.973 -1.0860 -1.5018  0.4602
12349TIP3    H258463   3.219   2.454   5.071  0.0008 -1.2084 -0.3210
12350TIP3   OH258464   4.594   1.830   4.054  0.0571 -0.1524  0.1132
12350TIP3    H158465   4.600   1.841   3.960  0.3716  0.7823  0.2302
12350TIP3    H258466   4.505   1.855   4.076  0.6114  1.8310  0.3096
12351TIP3   OH258467   5.095   1.064   1.224 -0.0777 -0.2748 -0.1582
12351TIP3    H158468   5.104   1.051   1.129  3.9895 -1.5791  0.2144
12351TIP3    H258469   5.048   0.987   1.255 -1.3745  0.1260 -1.0341
12352TIP3   OH258470   3.877   4.052   4.558  0.2244 -0.4792 -0.2537
12352TIP3    H158471   3.865   3.978   4.498 -0.9266 -0.8842  0.4509
12352TIP3    H258472   3.936   4.019   4.626  1.3797 -0.0773 -1.0190
12353TIP3   OH258473   6.595   5.860   5.064  0.4575  0.3042  0.4045
12353TIP3    H158474   6.681   5.822   5.046 -0.1876 -1.9437  1.6223
12353TIP3    H258475   6.597   5.882   5.157 -0.3338  0.0120  0.5019
12354TIP3   OH258476   3.871   4.305   4.935  0.0954  0.4715 -0.0600
12354TIP3    H158477   3.778   4.329   4.929 -0.1696 -0.8169 -2.0106
12354TIP3    H258478   3.876   4.251   5.014 -0.4964  1.7148  0.8691
12355TIP3   OH258479   0.588   0.041  11.228  0.4031  0.1575 -0.5097
12355TIP3    H158480   0.668   0.088  11.203 -0.0721  1.3725  0.1570
12355TIP3    H258481   0.533   0.044  11.149  1.1070 -0.9577 -1.0731
12356TIP3   OH258482   1.647   1.369  14.663  0.4285 -0.1089  0.0849
12356TIP3    H158483   1.741   1.384  14.675  0.4349  0.0572 -0.1477
12356TIP3    H258484   1.629   1.290  14.713  0.7012 -0.1643  0.1017
12357TIP3   OH258485   3.535   3.807  13.094 -0.1064 -0.0536 -0.3656
12357TIP3    H158486   3.563   3.856  13.017 -1.2754 -0.6494 -1.1977
12357TIP3    H258487   3.499   3.725  13.059  1.9463 -1.6225  0.9895
12358TIP3   OH258488   2.668   5.805   0.548  0.3878 -0.3447 -0.1914
12358TIP3    H158489   2.687   5.753   0.626  1.2390 -0.0464 -0.1875
12358TIP3    H258490   2.750   5.851   0.530 -0.0106  0.1132 -0.8618
12359TIP3   OH258491   2.358   2.925  11.982  0.1415  0.0231  0.4361
12359TIP3    H158492   2.336   2.997  12.041 -0.9912  1.0697 -1.1681
12359TIP3    H258493   2.421   2.872  12.030  0.6974  1.8715  1.8293
12360TIP3   OH258494   4.372   2.789  13.481 -0.4984  0.6207  0.3082
12360TIP3    H158495   4.422   2.737  13.418 -2.4169  0.5305 -1.2451
12360TIP3    H258496   4.383   2.880  13.451 -3.5932  0.4072 -2.0296
12361TIP3   OH258497   1.728   5.082  17.004 -0.1346  0.0510 -0.4377
12361TIP3    H158498   1.700   5.145  17.070 -0.1378  0.4594 -0.8234
12361TIP3    H258499   1.720   5.129  16.921 -1.0919 -0.7802 -0.8331
12362TIP3   OH258500   0.117   2.000  11.114  0.1007 -0.0818 -0.2030
12362TIP3    H158501   0.054   1.941  11.073  1.6682 -1.7208 -0.4102
12362TIP3    H258502   0.162   2.042  11.041 -0.0482  0.2814 -0.0852
12363TIP3   OH258503   6.030   0.827  14.305 -0.7608 -0.5182  1.1025
12363TIP3    H158504   5.941   0.826  14.341 -0.4149  0.7096  2.0603
12363TIP3    H258505   6.085   0.800  14.378 -0.2498 -0.2855  0.8036
12364TIP3   OH258506   4.497   6.069  14.712  0.1839 -0.2525 -0.3449
12364TIP3    H158507   4.439   6.023  14.651 -2.3939  0.9789  1.0167
12364TIP3    H258508   4.483   6.027  14.796  1.7657 -0.2748 -0.0502
12365TIP3   OH258509   3.773   5.431   3.634  0.3182  0.3593 -0.1370
12365TIP3    H158510   3.781   5.350   3.683 -0.3256 -0.0613 -0.7093
12365TIP3    H258511   3.741   5.404   3.548 -0.0079  1.2301 -0.2998
12366TIP3   OH258512   2.680   0.709  14.078  0.0411 -0.4058 -0.0844
12366TIP3    H158513   2.681   0.624  14.123 -0.5533  0.6141  2.0168
12366TIP3    H258514   2.627   0.766  14.135  3.5015  2.4141  0.7128
12367TIP3   OH258515   6.616   1.045  16.747  0.1051 -0.6904 -0.1997
12367TIP3    H158516   6.587   0.959  16.778 -0.4447 -1.2846 -2.1874
12367TIP3    H258517   6.704   1.028  16.711 -0.1099 -0.5003 -0.8291
12368TIP3   OH258518   4.343   2.860   2.691 -0.3201  0.3905 -0.0648
12368TIP3    H158519   4.272   2.921   2.670 -0.7494  0.3889  1.3143
12368TIP3    H258520   4.363   2.877   2.783 -0.7046 -1.7703  0.4835
12369TIP3   OH258521   4.711   2.105   4.620  0.1887 -0.2074  0.5387
12369TIP3    H158522   4.632   2.153   4.644  1.4196  1.7436  0.9350
12369TIP3    H258523   4.759   2.166   4.563  1.7820 -0.9942  0.9975
12370TIP3   OH258524   3.453   3.007   0.416 -0.0812 -0.3340  0.1126
12370TIP3    H158525   3.515   3.065   0.461  0.5215 -1.4151  0.7030
12370TIP3    H258526   3.417   3.061   0.346  1.1720  0.4795  0.0658
12371TIP3   OH258527   0.095   0.545  15.845  0.9185 -0.2026 -0.1127
12371TIP3    H158528   0.053   0.605  15.783 -0.7139  1.3061  2.2782
12371TIP3    H258529   0.176   0.590  15.871  1.0430 -0.3123 -0.3073
12372TIP3   OH258530   5.203   3.985  13.566  0.1603 -0.4957 -0.5096
12372TIP3    H158531   5.285   3.937  13.561  0.8266  0.5408  0.0519
12372TIP3    H258532   5.210   4.036  13.647 -1.0684 -0.4380 -0.4170
12373TIP3   OH258533   0.905   2.813  11.478 -0.0600 -0.2953 -0.1616
12373TIP3    H158534   0.858   2.743  11.522  0.4411  0.6758  2.0206
12373TIP3    H258535   0.997   2.792  11.489  0.1083  0.8043  0.7659
12374TIP3   OH258536   1.984   1.727   4.983  0.2203  0.0859  0.2875
12374TIP3    H158537   1.897   1.690   4.997  0.2660  0.6325  2.2745
12374TIP3    H258538   1.973   1.821   4.996  0.9350  0.2808 -0.4170
12375TIP3   OH258539   1.549   4.576   3.181 -0.4453  0.0772  0.2874
12375TIP3    H158540   1.641   4.588   3.161 -0.8860 -0.0848 -2.1627
12375TIP3    H258541   1.530   4.486   3.154 -1.0745 -0.3191  1.9205
12376TIP3   OH258542   0.196   0.077   4.154 -0.6178 -0.3440  0.1173
12376TIP3    H158543   0.201   0.087   4.059 -0.3804  0.2479  0.1853
12376TIP3    H258544   0.165  -0.012   4.167  0.7528 -0.9470 -0.5001
12377TIP3   OH258545   0.774   4.827  11.833 -0.2090  0.1057 -0.0668
12377TIP3    H158546   0.766   4.733  11.848 -0.4214  0.2921  1.1573
12377TIP3    H258547   0.776   4.837  11.738 -0.3664 -1.1188 -0.2108
12378TIP3   OH258548   3.473   5.048  14.291  0.1822 -0.0739 -0.6648
12378TIP3    H158549   3.536   5.055  14.363  0.4956  1.2640 -1.0394
12378TIP3    H258550   3.486   4.960  14.257  0.3633 -0.5632  0.6000
12379TIP3   OH258551   2.551   6.690   1.241  0.3795  0.8382 -0.3164
12379TIP3    H158552   2.517   6.695   1.330  0.2578 -2.1624 -0.0738
12379TIP3    H258553   2.479   6.718   1.186 -1.5572 -2.3897  0.3511
12380TIP3   OH258554   6.354   5.523  16.822  0.3127 -0.2056  0.1223
12380TIP3    H158555   6.363   5.618  16.825 -0.6199 -0.1153  0.3531
12380TIP3    H258556   6.407   5.496  16.747  0.9943  0.4346  0.3549
12381TIP3   OH258557   6.438   3.129   5.048  0.4435  0.0697 -0.2247
12381TIP3    H158558   6.358   3.090   5.081 -0.0853  0.9266 -0.4562
12381TIP3    H258559   6.500   3.056   5.040 -0.2074 -0.5422  0.2609
12382TIP3   OH258560   6.518   5.123   6.231  0.1715 -0.0589  0.3471
12382TIP3    H158561   6.536   5.186   6.300 -1.0659  0.5007  0.1884
12382TIP3    H258562   6.456   5.168   6.173 -1.5744 -1.7468  0.7879
12383TIP3   OH258563   2.955   0.470  15.322 -0.0820  0.3265  0.2912
12383TIP3    H158564   2.951   0.558  15.285 -0.4319 -0.2330 -1.0384
12383TIP3    H258565   3.025   0.475  15.388  0.9845  1.1913 -0.8641
12384TIP3   OH258566   2.960   6.619  15.124  0.2882  0.3731 -0.1176
12384TIP3    H158567   2.996   6.703  15.096  0.8007  0.0632 -0.4072
12384TIP3    H258568   2.993   6.556  15.060 -0.7835  0.0726 -0.3996
12385TIP3   OH258569   2.774   2.507   4.178 -0.3787  0.1580  0.3314
12385TIP3    H158570   2.805   2.556   4.101 -0.0701  0.0041  0.3584
12385TIP3    H258571   2.834   2.433   4.185 -0.1946  0.3640  0.9305
12386TIP3   OH258572   4.919   0.292  16.300  0.8321  0.5951 -0.3230
12386TIP3    H158573   4.952   0.317  16.213 -0.9916  0.3319 -1.1269
12386TIP3    H258574   4.959   0.207  16.317  0.7997  0.4045 -1.1532
12387TIP3   OH258575   6.624   6.435  15.111  0.0279 -0.9794 -0.2247
12387TIP3    H158576   6.653   6.526  15.101 -0.2170 -1.0428 -1.7277
12387TIP3    H258577   6.617   6.423  15.205 -0.6504  0.7962 -0.0003
12388TIP3   OH258578   3.164   0.847   1.877  0.4800 -0.2385 -0.3285
12388TIP3    H158579   3.090   0.908   1.880 -3.0891 -4.1046  0.9885
12388TIP3    H258580   3.223   0.877   1.946 -1.9772  0.7988  1.4708
12389TIP3   OH258581   4.015   4.900   0.636 -0.3780 -0.1230  0.5388
12389TIP3    H158582   4.084   4.910   0.571  0.3767  0.7690  1.4288
12389TIP3    H258583   3.938   4.940   0.596  0.4876  1.9384  0.7714
12390TIP3   OH258584   4.794   4.424   4.756  0.0742 -0.0703 -0.1848
12390TIP3    H158585   4.705   4.458   4.768  0.0740 -0.6418  1.7551
12390TIP3    H258586   4.789   4.373   4.675 -1.4703 -0.3950  0.0802
12391TIP3   OH258587   0.355   1.509  14.267  0.2167  0.4312  0.1256
12391TIP3    H158588   0.272   1.466  14.247  0.2762 -0.5222  1.7721
12391TIP3    H258589   0.372   1.564  14.190 -1.1949 -0.4490 -0.8742
12392TIP3   OH258590   0.579   3.450   3.369  0.0756  0.5568  0.2673
12392TIP3    H158591   0.645   3.382   3.382  0.0522 -0.1310 -2.5304
12392TIP3    H258592   0.496   3.408   3.388 -0.1442 -1.0213 -3.3644
12393TIP3   OH258593   0.284   1.897  12.308 -0.7728  0.2156  0.0712
12393TIP3    H158594   0.221   1.866  12.242 -1.4014 -1.0587  1.2258
12393TIP3    H258595   0.260   1.850  12.388  0.3854  1.2412  1.0573
12394TIP3   OH258596   4.304   5.689  16.321  0.3931  0.1228  0.1521
12394TIP3    H158597   4.324   5.646  16.238 -0.8386 -1.0880  0.4622
12394TIP3    H258598   4.215   5.722  16.310  0.0282 -0.4923  1.1711
12395TIP3   OH258599   2.386   6.698   3.800  0.3443 -0.1811 -0.0767
12395TIP3    H158600   2.476   6.677   3.825  0.8769  1.9762 -0.0635
12395TIP3    H258601   2.350   6.742   3.877  0.2089  1.5239 -1.0867
12396TIP3   OH258602   4.064   0.110   2.723 -0.1681 -0.0733  0.1736
12396TIP3    H158603   4.034   0.105   2.814 -0.2311 -3.1918  0.0905
12396TIP3    H258604   4.078   0.203   2.707 -2.0639  0.7617  2.7424
12397TIP3   OH258605   5.686   2.548  15.927  0.3326  0.2622  0.3868
12397TIP3    H158606   5.676   2.471  15.982 -0.0800 -0.0017 -0.0527
12397TIP3    H258607   5.671   2.517  15.838  1.8872  0.5051  0.0192
12398TIP3   OH258608   4.106   6.137  14.523  0.0289 -0.1100 -0.3332
12398TIP3    H158609   4.110   6.201  14.594  1.5804 -0.2711 -0.2435
12398TIP3    H258610   4.163   6.066  14.552  1.4856  0.2558 -2.1360
12399TIP3   OH258611   5.770   3.038  16.137  0.1165 -0.5249 -1.1255
12399TIP3    H158612   5.749   2.957  16.091 -0.9888 -0.3420 -0.9784
12399TIP3    H258613   5.861   3.057  16.114 -0.0541 -1.0596 -2.2761
12400TIP3   OH258614   3.554   3.882  15.545  0.1984  0.1570  0.2967
12400TIP3    H158615   3.523   3.796  15.573 -1.0489  0.4121 -0.2525
12400TIP3    H258616   3.620   3.864  15.478  1.0906 -0.3876  1.2834
12401TIP3   OH258617   4.983   0.640  13.776  0.0702  0.3208  0.0245
12401TIP3    H158618   4.939   0.630  13.692 -2.3757  0.2544  1.2164
12401TIP3    H258619   4.997   0.550  13.806 -0.1733  0.3464  0.2178
12402TIP3   OH258620   2.602   5.701   1.166  0.5150  0.1927 -0.3034
12402TIP3    H158621   2.636   5.736   1.084  0.9085 -0.1887 -0.3075
12402TIP3    H258622   2.513   5.736   1.172  0.3963  0.0224 -1.0149
12403TIP3   OH258623   0.971   3.692  13.037 -0.0146  0.5858  0.5161
12403TIP3    H158624   1.063   3.692  13.010  0.1126 -0.7312  0.8671
12403TIP3    H258625   0.925   3.647  12.966 -0.1024 -0.3599  1.1476
12404TIP3   OH258626   3.813   4.489   0.046  0.0646  0.3043 -0.0515
12404TIP3    H158627   3.732   4.442   0.023  0.2616 -0.3370  0.5299
12404TIP3    H258628   3.812   4.491   0.142  0.7125  0.3478 -0.0474
12405TIP3   OH258629   2.379   4.355   3.857 -0.1948  0.1921  1.2019
12405TIP3    H158630   2.453   4.314   3.813 -1.4562 -0.9973  0.1081
12405TIP3    H258631   2.320   4.282   3.878 -1.4618  1.1893  1.2299
12406TIP3   OH258632   5.802   3.474   5.653 -0.1718 -0.4278  0.3189
12406TIP3    H158633   5.823   3.458   5.745  0.3665 -1.2612  0.0538
12406TIP3    H258634   5.832   3.564   5.638 -0.7366 -0.0960  1.0886
12407TIP3   OH258635   0.478   6.265  11.700  0.0244  0.4311 -0.0755
12407TIP3    H158636   0.491   6.240  11.608  1.4414  0.2008  0.1506
12407TIP3    H258637   0.512   6.189  11.749  1.8072  1.6050  0.6217
12408TIP3   OH258638   5.629   2.618   1.960 -0.0159  0.0759 -0.2233
12408TIP3    H158639   5.566   2.608   2.031 -1.7597 -0.1310 -1.7330
12408TIP3    H258640   5.655   2.710   1.964 -2.8782  1.0434 -1.4712
12409TIP3   OH258641   1.151   2.077   1.696  0.2053 -0.0759 -0.3055
12409TIP3    H158642   1.191   2.022   1.762 -0.0193 -0.9167 -0.8587
12409TIP3    H258643   1.077   2.026   1.663 -0.4567  0.8547 -0.3089
12410TIP3   OH258644   3.728   0.852   0.129 -0.1895 -0.4014 -0.3185
12410TIP3    H158645   3.747   0.762   0.156 -0.3092  0.2951  2.4600
12410TIP3    H258646   3.760   0.858   0.039  2.0582 -2.5295  0.2307
12411TIP3   OH258647   2.076   2.483  16.927 -0.3294 -0.1978 -0.1278
12411TIP3    H158648   2.044   2.393  16.924  1.0409 -0.6827 -1.0392
12411TIP3    H258649   2.006   2.535  16.887 -0.7792 -0.9678 -0.3523
12412TIP3   OH258650   3.500   4.799  14.212  0.1939 -0.2512  0.1345
12412TIP3    H158651   3.454   4.785  14.129  2.0805  1.7543 -1.3618
12412TIP3    H258652   3.584   4.754  14.201  0.6364  0.3896  0.7850
12413TIP3   OH258653   1.983   1.432  16.932  0.3213  0.4318 -0.1276
12413TIP3    H158654   1.910   1.395  16.981  0.7005 -0.9675 -0.5603
12413TIP3    H258655   1.944   1.496  16.873 -0.5795 -0.4253 -0.4786
12414TIP3   OH258656   2.117   5.837  11.408 -0.4221 -0.3201  0.2238
12414TIP3    H158657   2.198   5.791  11.386 -0.1294  0.4817 -0.4020
12414TIP3    H258658   2.130   5.866  11.498 -0.9392 -2.1239  0.9419
12415TIP3   OH258659   5.200   3.127  12.933  0.6140  0.2566  0.2302
12415TIP3    H158660   5.136   3.061  12.906  1.2509  0.4454 -1.8863
12415TIP3    H258661   5.285   3.083  12.921  1.0286  1.3071 -0.8480
12416TIP3   OH258662   5.649   0.853  13.354  1.0376  0.0206 -0.2456
12416TIP3    H158663   5.570   0.903  13.375  1.1208  0.2436 -0.4621
12416TIP3    H258664   5.684   0.828  13.440  0.3021 -0.7606 -0.1568
12417TIP3   OH258665   3.466   1.283   4.113  0.2369  0.1539  0.1058
12417TIP3    H158666   3.442   1.328   4.194  1.2405  2.0167 -0.5669
12417TIP3    H258667   3.522   1.211   4.142  0.9378  1.0474  1.0569
12418TIP3   OH258668   6.529   5.365  15.962 -0.9344  0.4666  0.3238
12418TIP3    H158669   6.440   5.365  15.927 -0.4540 -2.3379 -1.1339
12418TIP3    H258670   6.585   5.385  15.887 -0.2378  0.7371  0.8977
12419TIP3   OH258671   2.334   3.704   3.620 -0.1930 -0.1245  0.7033
12419TIP3    H158672   2.397   3.690   3.549 -1.3187  1.5985 -0.7140
12419TIP3    H258673   2.380   3.762   3.681  0.8148 -1.6869  1.4800
12420TIP3   OH258674   6.365   4.471   2.852 -0.3126  0.6527  0.1588
12420TIP3    H158675   6.416   4.548   2.878  0.3521  0.4031 -0.3676
12420TIP3    H258676   6.405   4.443   2.770 -0.1267 -0.6414  0.6680
12421TIP3   OH258677   3.354   0.333   2.323 -0.1432 -0.2736  0.0973
12421TIP3    H158678   3.315   0.382   2.251 -0.1413 -0.0336  0.2577
12421TIP3    H258679   3.448   0.349   2.315  0.0374 -1.6699 -0.8963
12422TIP3   OH258680   2.073   0.081   3.607  0.5192  0.3474 -0.4071
12422TIP3    H158681   2.055  -0.010   3.630  1.3299 -0.2014 -1.8541
12422TIP3    H258682   2.032   0.132   3.678 -1.4615 -1.0399 -0.4776
12423TIP3   OH258683   3.978   4.747  13.424 -0.0250 -0.5010  0.1475
12423TIP3    H158684   3.986   4.652  13.417 -0.5314 -0.6074  0.8285
12423TIP3    H258685   3.891   4.766  13.391 -0.4757 -0.4484  1.3203
12424TIP3   OH258686   1.107   4.698  15.082 -1.4063 -0.0910 -0.3428
12424TIP3    H158687   1.037   4.759  15.106 -0.0688  0.7678  1.6041
12424TIP3    H258688   1.161   4.690  15.161  0.8053 -0.5846 -1.8092
12425TIP3   OH258689   0.152   0.591   1.735  0.3969 -0.0129  0.0708
12425TIP3    H158690   0.233   0.543   1.751  0.3688 -0.1162 -0.0902
12425TIP3    H258691   0.179   0.665   1.680  0.2704 -0.4491 -0.5890
12426TIP3   OH258692   3.020   4.566   0.466 -0.1655 -0.3451 -0.4440
12426TIP3    H158693   3.072   4.608   0.535 -2.2745  0.3794  0.8472
12426TIP3    H258694   3.005   4.477   0.498  0.2328 -0.5402 -0.7934
12427TIP3   OH258695   3.827   6.451   3.396 -0.6723 -0.1742  0.5717
12427TIP3    H158696   3.831   6.356   3.406  2.6202 -0.3978 -1.5378
12427TIP3    H258697   3.913   6.483   3.425 -0.6591  1.8234 -1.3908
12428TIP3   OH258698   1.745   5.852   4.190  0.2763 -0.2247 -0.1625
12428TIP3    H158699   1.768   5.867   4.282  0.0164  1.0450 -0.2818
12428TIP3    H258700   1.660   5.809   4.193 -0.4765  1.2327  0.1853
12429TIP3   OH258701   2.104   2.904  14.864 -0.1137 -0.0734  0.0872
12429TIP3    H158702   2.116   2.905  14.769 -0.3449  0.3150  0.0620
12429TIP3    H258703   2.148   2.983  14.895  0.5296 -0.5349  0.3754
12430TIP3   OH258704   4.342   5.507  11.127 -0.1561 -0.6421  0.2598
12430TIP3    H158705   4.389   5.452  11.190  0.4025 -1.0779 -0.5220
12430TIP3    H258706   4.259   5.460  11.112 -0.4319 -0.3731  0.9006
12431TIP3   OH258707   4.381   3.624  15.019  0.3272  0.3903  0.2434
12431TIP3    H158708   4.363   3.551  14.960  1.3975 -0.3431  0.7879
12431TIP3    H258709   4.475   3.619  15.036  0.0619  0.6130  1.9557
12432TIP3   OH258710   4.221   1.199  14.195 -0.8774 -0.0520  0.0098
12432TIP3    H158711   4.224   1.110  14.159 -1.8060 -0.9515  1.9920
12432TIP3    H258712   4.154   1.244  14.142 -0.7197 -0.6485 -0.7193
12433TIP3   OH258713   5.821   3.438  14.555  0.0999  0.0699 -0.1223
12433TIP3    H158714   5.855   3.366  14.607 -0.5064 -0.1392 -0.0028
12433TIP3    H258715   5.818   3.512  14.616  0.2288  0.0561 -0.0993
12434TIP3   OH258716   6.635   2.778  15.644 -0.2733  0.1667 -0.2922
12434TIP3    H158717   6.675   2.826  15.717  0.3933 -1.4882  0.4846
12434TIP3    H258718   6.681   2.809  15.566  1.8875 -0.9416  0.4635
12435TIP3   OH258719   4.938   1.833   3.806 -0.3603  0.4372 -0.0150
12435TIP3    H158720   4.913   1.742   3.786  0.3352  0.6576 -2.1822
12435TIP3    H258721   4.983   1.827   3.890 -2.2642 -0.8686  0.9806
12436TIP3   OH258722   2.757   0.546  15.621  0.0172 -0.0434  0.1320
12436TIP3    H158723   2.744   0.464  15.574 -1.2083 -0.1044  0.5442
12436TIP3    H258724   2.692   0.605  15.584  2.0852  1.3832 -1.4803
12437TIP3   OH258725   5.054   5.212   6.217 -0.4094  0.5126  0.5331
12437TIP3    H158726   5.105   5.145   6.172 -0.5019 -0.6943  2.1131
12437TIP3    H258727   5.042   5.281   6.152  1.7556  0.0857 -0.4010
12438TIP3   OH258728   1.147   2.787   3.846 -0.4363  0.4362 -0.2063
12438TIP3    H158729   1.089   2.861   3.865 -1.7634  0.2087 -2.9958
12438TIP3    H258730   1.230   2.828   3.820 -1.1476  0.9846 -1.6893
12439TIP3   OH258731   2.021   6.037   4.170  0.1147  0.1702 -0.2764
12439TIP3    H158732   2.078   6.036   4.247  2.4737  1.9365 -1.8444
12439TIP3    H258733   2.002   5.945   4.154 -0.6994 -0.2432  2.5001
12440TIP3   OH258734   3.498   4.212   6.306  0.9005 -0.5134 -0.2698
12440TIP3    H158735   3.592   4.196   6.301  0.6282 -1.7964 -2.9170
12440TIP3    H258736   3.459   4.150   6.244 -1.7706 -0.4711  1.1836
12441TIP3   OH258737   2.233   6.028   5.172 -0.0620 -0.6448 -0.2355
12441TIP3    H158738   2.186   6.112   5.169 -0.7566 -1.0326 -2.7082
12441TIP3    H258739   2.324   6.051   5.156 -0.3209 -0.3523 -1.4237
12442TIP3   OH258740   1.526   1.252  12.256 -0.0994  0.2998 -0.0245
12442TIP3    H158741   1.534   1.202  12.175  0.9439 -0.4020  0.4969
12442TIP3    H258742   1.580   1.330  12.241  1.6368 -0.7166  0.6383
12443TIP3   OH258743   6.324   4.990   3.315  0.0304  0.2865  0.0458
12443TIP3    H158744   6.237   5.029   3.305  0.3803  1.6349  1.7101
12443TIP3    H258745   6.385   5.059   3.287  0.6129  0.3567  1.3826
12444TIP3   OH258746   0.049   1.887   2.528 -0.1836 -0.5107 -0.4624
12444TIP3    H158747   0.039   1.795   2.504 -1.9572 -0.4419 -0.1325
12444TIP3    H258748  -0.013   1.900   2.600 -0.8948  1.2206 -1.3255
12445TIP3   OH258749   6.132   5.943   6.188  0.7108 -0.0335 -0.9286
12445TIP3    H158750   6.066   5.988   6.241 -0.7132 -1.6087 -1.2721
12445TIP3    H258751   6.114   5.850   6.202  2.6735 -0.5113 -1.3134
12446TIP3   OH258752   0.020   4.878  16.597 -0.2508 -0.1211  0.0811
12446TIP3    H158753   0.097   4.879  16.654 -0.8264  0.0156  0.8734
12446TIP3    H258754   0.050   4.835  16.517  0.4051 -0.9273  0.7386
12447TIP3   OH258755   6.406   4.491  13.784 -0.2888  0.5693  0.6442
12447TIP3    H158756   6.404   4.581  13.752  0.0615  0.3074 -0.1373
12447TIP3    H258757   6.393   4.437  13.706  2.0242 -0.1308  0.6700
12448TIP3   OH258758   6.098   5.658  12.731 -0.2022 -0.0583 -0.1746
12448TIP3    H158759   6.090   5.712  12.809 -0.9597 -1.0631  0.4738
12448TIP3    H258760   6.192   5.643  12.722  0.0039  1.2031 -0.2795
12449TIP3   OH258761   4.657   5.271   1.999 -0.4719 -0.3693  0.1175
12449TIP3    H158762   4.605   5.192   2.013 -1.0645 -0.3544 -1.7359
12449TIP3    H258763   4.723   5.245   1.935 -0.2908  0.4617 -0.0470
12450TIP3   OH258764   6.460   6.236  13.363 -0.0917 -0.6395  0.0457
12450TIP3    H158765   6.464   6.264  13.271 -0.6652 -2.6844 -0.6582
12450TIP3    H258766   6.522   6.293  13.408 -1.3540  1.9171 -1.1679
12451TIP3   OH258767   0.113   6.427   4.861  0.4181  0.4370  0.0293
12451TIP3    H158768   0.093   6.514   4.828  0.6442  0.1496 -0.8930
12451TIP3    H258769   0.146   6.379   4.785 -0.6382 -0.7545  0.2913
12452TIP3   OH258770   6.398   1.273   0.780  0.3928  0.2420  0.1274
12452TIP3    H158771   6.399   1.252   0.687 -0.1451 -0.4028  0.2621
12452TIP3    H258772   6.307   1.293   0.800  0.7126  1.7924  0.2268
12453TIP3   OH258773   1.186   4.926   3.537 -0.3654  0.6393  0.0598
12453TIP3    H158774   1.222   4.959   3.620 -0.7897 -2.4142  1.6313
12453TIP3    H258775   1.122   4.991   3.510 -0.6996  1.4460  2.5413
12454TIP3   OH258776   3.192   5.266  11.894  0.0006 -0.2023  0.6428
12454TIP3    H158777   3.228   5.352  11.874  3.9401 -1.2762  2.1890
12454TIP3    H258778   3.188   5.221  11.810  2.4115  0.0408  0.3375
12455TIP3   OH258779   1.199   2.759   1.342  0.4935  0.3999 -0.6030
12455TIP3    H158780   1.145   2.838   1.349  0.8724  0.5733  0.6796
12455TIP3    H258781   1.139   2.687   1.360  0.2810  0.4441 -1.1306
12456TIP3   OH258782   6.762   6.004   4.733 -0.1542 -0.4165 -0.0439
12456TIP3    H158783   6.773   5.910   4.746  2.2413 -0.0287  1.2278
12456TIP3    H258784   6.818   6.044   4.799 -0.7067  1.9160 -0.9048
12457TIP3   OH258785   2.943   0.445   5.511  0.2089 -0.0722  0.1713
12457TIP3    H158786   2.944   0.370   5.571 -0.3358 -0.1561  0.0805
12457TIP3    H258787   2.962   0.407   5.425  0.8248  0.0248  0.2603
12458TIP3   OH258788   0.863   5.048   4.763  0.1541  0.7042 -0.0380
12458TIP3    H158789   0.794   4.987   4.738  1.5580 -1.0586  0.1462
12458TIP3    H258790   0.825   5.101   4.833 -1.4141  0.7026 -0.8512
12459TIP3   OH258791   1.471   5.354   1.166 -0.0361  0.6138 -0.1888
12459TIP3    H158792   1.440   5.287   1.226  1.8181  0.8637  1.1509
12459TIP3    H258793   1.406   5.356   1.095 -0.4009 -2.2068 -0.0280
12460TIP3   OH258794   0.798   3.233   3.430  0.1884 -0.0912  0.0762
12460TIP3    H158795   0.762   3.145   3.424 -2.6125  1.0048 -0.6436
12460TIP3    H258796   0.890   3.223   3.407  0.2035 -2.9504  1.0386
12461TIP3   OH258797   6.612   6.787   3.766  0.2692  0.3194  0.6471
12461TIP3    H158798   6.648   6.828   3.845 -1.0658  1.1036  0.8860
12461TIP3    H258799   6.657   6.830   3.694 -1.3899  2.6308  0.8707
12462TIP3   OH258800   2.415   0.664   5.201  0.0032 -0.0193  0.2744
12462TIP3    H158801   2.363   0.632   5.127 -1.4218  1.5558  0.5286
12462TIP3    H258802   2.493   0.609   5.201 -0.3051 -0.5568 -1.9437
12463TIP3   OH258803   1.399   1.563  13.372  0.0932 -0.1734 -0.0399
12463TIP3    H158804   1.477   1.559  13.317  0.2051 -0.9323  0.1745
12463TIP3    H258805   1.389   1.475  13.409  0.5284  0.5131  1.8542
12464TIP3   OH258806   1.667   6.400  14.872  0.3006 -0.1449  0.0165
12464TIP3    H158807   1.639   6.353  14.951 -0.5141 -1.1693 -0.8381
12464TIP3    H258808   1.735   6.345  14.834 -1.5857 -1.4543 -1.7141
12465TIP3   OH258809   0.307   5.056  10.926 -0.0544 -0.1520 -0.7300
12465TIP3    H158810   0.345   4.986  10.873  0.7762 -0.7125  0.5529
12465TIP3    H258811   0.380   5.115  10.943 -0.6835  0.8884 -1.5422
12466TIP3   OH258812   1.810   5.620   2.212 -0.7786  0.0479 -0.4876
12466TIP3    H158813   1.825   5.670   2.132 -0.2101 -1.5947 -1.4543
12466TIP3    H258814   1.720   5.588   2.204 -0.5444 -0.5685 -0.7579
12467TIP3   OH258815   3.934   2.400   5.250  0.4182 -0.0997  0.2561
12467TIP3    H158816   4.026   2.374   5.263 -0.2505 -1.2906  3.9724
12467TIP3    H258817   3.936   2.495   5.251  1.7845 -0.0086 -2.3199
12468TIP3   OH258818   5.651   1.353  16.991 -0.1280 -0.9018 -0.4520
12468TIP3    H158819   5.730   1.352  16.937 -0.7455 -0.7083 -1.4003
12468TIP3    H258820   5.682   1.353  17.081  0.9566 -0.0174 -0.8133
12469TIP3   OH258821   6.175   0.832  16.503  0.0124  0.0354  0.1492
12469TIP3    H158822   6.203   0.916  16.467 -0.0112 -0.2513 -0.5787
12469TIP3    H258823   6.250   0.774  16.490 -0.3480 -0.3311 -0.3638
12470TIP3   OH258824   5.612   6.117  12.246 -0.2113 -0.1040  0.3250
12470TIP3    H158825   5.644   6.036  12.206  0.6676  0.1399  0.5191
12470TIP3    H258826   5.581   6.170  12.173  0.0520 -0.2477  0.1075
12471TIP3   OH258827   4.064   2.069   5.493 -0.4350  0.3063  0.4303
12471TIP3    H158828   4.107   2.119   5.424 -2.7969  0.9401 -0.6768
12471TIP3    H258829   3.972   2.066   5.467 -1.2679 -0.1735  3.1290
12472TIP3   OH258830   5.506   0.095   4.034  0.0458  0.3751 -0.0930
12472TIP3    H158831   5.495   0.160   4.104  0.2218 -0.2965  0.5834
12472TIP3    H258832   5.591   0.116   3.996  0.5311  0.0084  0.7339
12473TIP3   OH258833   0.386   6.535  16.854  0.3630  0.4618  0.1141
12473TIP3    H158834   0.332   6.465  16.892  0.6889  0.9278  1.5098
12473TIP3    H258835   0.399   6.596  16.927  3.4680 -0.0402  0.0980
12474TIP3   OH258836   6.761   0.920  13.444  0.1135 -0.5956 -0.2776
12474TIP3    H158837   6.802   0.995  13.401  0.3763 -1.5731 -1.8119
12474TIP3    H258838   6.673   0.950  13.465 -0.0496 -0.0756 -1.5869
12475TIP3   OH258839   2.085   3.598   3.541 -0.2804 -0.6124  0.7246
12475TIP3    H158840   2.064   3.688   3.517  2.7040 -0.1226 -0.5283
12475TIP3    H258841   2.172   3.603   3.582 -1.2818 -2.6280  3.4114
12476TIP3   OH258842   6.657   5.593  15.760 -0.2408  0.4886  0.6297
12476TIP3    H158843   6.752   5.595  15.767 -0.0626  1.0575 -1.5014
12476TIP3    H258844   6.638   5.512  15.713 -0.6554  1.2581 -0.5740
12477TIP3   OH258845   4.055   4.949   1.706  0.2277  0.8221  0.2600
12477TIP3    H158846   4.068   5.039   1.677 -1.2413  0.5960 -1.2315
12477TIP3    H258847   3.981   4.953   1.766 -0.5276  0.5050 -0.6182
12478TIP3   OH258848   5.684   3.663   0.789  0.4481  0.2046 -0.5294
12478TIP3    H158849   5.658   3.737   0.844  1.0844  0.0547 -0.0198
12478TIP3    H258850   5.762   3.692   0.743  0.9801 -0.3127  0.0354
12479TIP3   OH258851   3.672   6.176   6.072  0.0617  0.3054  0.0920
12479TIP3    H158852   3.734   6.177   6.146  1.6337 -0.1228 -1.1593
12479TIP3    H258853   3.696   6.253   6.021 -0.3597  0.0626 -0.4783
12480TIP3   OH258854   4.696   0.006   0.196 -0.4400 -0.5783  0.0233
12480TIP3    H158855   4.724  -0.007   0.286 -0.1292  0.5225  0.0994
12480TIP3    H258856   4.743  -0.062   0.146 -0.4590 -1.0579  0.6554
12481TIP3   OH258857   4.313   3.729   0.470  0.5357 -0.4522  0.1940
12481TIP3    H158858   4.304   3.691   0.382  4.6256 -1.3011 -0.0441
12481TIP3    H258859   4.294   3.657   0.529  0.5162 -0.6422 -0.0407
12482TIP3   OH258860   2.436   3.042  13.568  0.1812  0.0618 -0.1146
12482TIP3    H158861   2.448   3.061  13.475 -0.8677  1.2011 -0.0578
12482TIP3    H258862   2.375   2.968  13.570 -0.5145  0.6122 -0.3534
12483TIP3   OH258863   4.471   6.342  12.681  0.1533 -0.7875 -0.0793
12483TIP3    H158864   4.466   6.261  12.732 -0.0941 -0.3468  0.6105
12483TIP3    H258865   4.565   6.356  12.669  0.1944 -1.3001 -0.4105
12484TIP3   OH258866   3.786   1.385   5.954 -0.0755 -0.1059  0.9740
12484TIP3    H158867   3.831   1.314   5.998  0.1612 -0.3609  0.3390
12484TIP3    H258868   3.704   1.397   6.003 -0.0270 -0.6835  1.1977
12485TIP3   OH258869   0.849   3.641   2.402  0.1474  0.2233  0.5525
12485TIP3    H158870   0.821   3.680   2.485 -1.1571 -0.0127  0.2519
12485TIP3    H258871   0.891   3.713   2.354  0.4676  0.4827  1.2114
12486TIP3   OH258872   2.253   0.474  12.751  0.5855  0.1107 -0.7531
12486TIP3    H158873   2.247   0.412  12.678  0.3874 -1.4800  0.5379
12486TIP3    H258874   2.176   0.456  12.804  0.5591  1.4568 -0.2979
12487TIP3   OH258875   0.621   5.205   3.182 -0.3016 -0.5470 -0.2428
12487TIP3    H158876   0.623   5.148   3.258 -1.8991 -0.1885  0.1104
12487TIP3    H258877   0.549   5.172   3.128 -0.3820  0.3060 -0.6906
12488TIP3   OH258878   5.372   5.295  11.498  1.1085  0.5580  0.4048
12488TIP3    H158879   5.426   5.370  11.523  2.1167 -0.7642  2.4316
12488TIP3    H258880   5.418   5.219  11.535 -0.4926 -0.9431 -0.5631
12489TIP3   OH258881   0.198   5.709  16.900 -0.1719 -0.1979  0.0376
12489TIP3    H158882   0.113   5.666  16.909  0.2810 -1.0002  0.6053
12489TIP3    H258883   0.250   5.676  16.973  0.0483  1.7072  0.7961
12490TIP3   OH258884   4.448   5.944  11.752  0.1043  0.0675 -0.3558
12490TIP3    H158885   4.378   5.947  11.686 -0.9856 -0.5051  0.7251
12490TIP3    H258886   4.409   5.897  11.825  1.4546  0.2539  0.5103
12491TIP3   OH258887   3.891   5.386   3.923  0.0754  0.1034 -0.1548
12491TIP3    H158888   3.902   5.293   3.904 -0.4376  0.1641 -0.7978
12491TIP3    H258889   3.976   5.424   3.905  0.4749 -0.3318  0.7384
12492TIP3   OH258890   3.393   0.166  16.489  0.6784  0.0585 -0.5581
12492TIP3    H158891   3.398   0.212  16.405  1.1279  0.3150 -0.3981
12492TIP3    H258892   3.483   0.142  16.508  0.6968  0.7025  0.2302
12493TIP3   OH258893   6.252   1.679   4.204 -0.1219  0.0329  0.2729
12493TIP3    H158894   6.288   1.767   4.191  0.0141 -0.3116 -2.1600
12493TIP3    H258895   6.195   1.666   4.128 -0.6200 -1.7590  0.9187
12494TIP3   OH258896   1.949   6.068   1.337  0.0749 -0.0513  0.4706
12494TIP3    H158897   1.898   5.992   1.367  1.6737 -1.2512  0.3235
12494TIP3    H258898   1.933   6.135   1.403 -1.6139 -0.4036  0.4571
12495TIP3   OH258899   1.086   2.971   1.851  0.3500 -0.1316  0.0729
12495TIP3    H158900   1.094   3.039   1.784  0.2096 -0.8091 -0.6458
12495TIP3    H258901   0.993   2.949   1.852  0.0546  1.0219  1.6717
12496TIP3   OH258902   1.012   5.619   4.870  0.4761 -0.6838 -0.3424
12496TIP3    H158903   0.958   5.577   4.803  1.0209  0.4602 -1.5401
12496TIP3    H258904   1.088   5.561   4.878  0.3674 -0.8723 -0.6481
12497TIP3   OH258905   0.227   1.130  13.771 -0.3940  0.2000  0.5150
12497TIP3    H158906   0.315   1.098  13.791 -0.2297  0.8510  0.8649
12497TIP3    H258907   0.177   1.116  13.852 -0.7844 -0.7143  0.1321
12498TIP3   OH258908   1.478   1.399   5.676  0.2108 -0.1697  0.0272
12498TIP3    H158909   1.488   1.361   5.764  2.2872 -1.3570 -0.6251
12498TIP3    H258910   1.388   1.429   5.672 -1.4063 -4.2313  1.0211
12499TIP3   OH258911   5.408   4.810  11.491 -0.7045  0.6835  0.2640
12499TIP3    H158912   5.434   4.813  11.583 -2.3248  0.0417  0.7679
12499TIP3    H258913   5.449   4.730  11.457  1.3207  1.8029 -0.0674
12500TIP3   OH258914   0.827   4.742  16.427  0.3421  0.1255  0.4960
12500TIP3    H158915   0.857   4.788  16.505  0.9029  1.1629 -0.3114
12500TIP3    H258916   0.861   4.653  16.438  1.8704  0.6925  0.6670
12501TIP3   OH258917   5.555   5.013  15.095 -0.1499 -0.3269 -0.4900
12501TIP3    H158918   5.601   5.043  15.016  0.7368 -0.9049 -0.2155
12501TIP3    H258919   5.463   5.011  15.070  0.2033 -1.3660 -1.8173
12502TIP3   OH258920   0.101   2.603  15.721 -0.3441  0.1275  0.3249
12502TIP3    H158921   0.036   2.582  15.788  0.9034  1.3406  2.0210
12502TIP3    H258922   0.163   2.661  15.766  1.8972 -0.9514 -1.2090
12503TIP3   OH258923   0.085   6.711  16.121  0.1440  0.6873  0.1961
12503TIP3    H158924   0.169   6.757  16.123  0.5716  0.0223 -1.1471
12503TIP3    H258925   0.032   6.760  16.058 -1.1170  2.0845  2.2493
12504TIP3   OH258926   1.546   6.182  13.333  0.2309 -0.2530 -0.5411
12504TIP3    H158927   1.530   6.162  13.425 -0.7408  1.3230 -0.3322
12504TIP3    H258928   1.580   6.272  13.333  0.3227 -0.2664 -1.7176
12505TIP3   OH258929   3.637   2.411   0.323  0.2637  0.1328 -0.1801
12505TIP3    H158930   3.616   2.347   0.391 -1.6985 -0.9005 -1.6868
12505TIP3    H258931   3.696   2.365   0.264  1.3313  0.7767  0.3460
12506TIP3   OH258932   6.631   4.265  12.215  0.1025 -0.3564 -0.4919
12506TIP3    H158933   6.695   4.324  12.176 -0.0509 -0.7726 -1.3997
12506TIP3    H258934   6.644   4.274  12.310  1.5248 -0.4792 -0.6563
12507TIP3   OH258935   2.903   0.114   1.463 -0.6537 -0.3099  0.2871
12507TIP3    H158936   2.912   0.087   1.371  1.3266 -1.5222  0.7627
12507TIP3    H258937   2.914   0.209   1.461  0.0015 -0.3913 -0.6714
12508TIP3   OH258938   4.558   5.264   9.995  0.3123  0.4216  0.1150
12508TIP3    H158939   4.491   5.195   9.989  2.7800 -2.0781 -1.7672
12508TIP3    H258940   4.638   5.217  10.021  1.4937  3.1936  1.9861
12509TIP3   OH258941   4.278   0.798  11.296  0.8325 -0.0367 -0.6094
12509TIP3    H158942   4.228   0.872  11.331  0.1374  0.0265 -1.6734
12509TIP3    H258943   4.291   0.740  11.371  1.1681  1.0316  0.1846
12510TIP3   OH258944   4.869   6.286   5.289  0.5459 -0.7715 -0.2676
12510TIP3    H158945   4.802   6.297   5.356 -0.3468  1.1575 -1.4153
12510TIP3    H258946   4.840   6.210   5.238 -0.9048  0.1234 -0.8419
12511TIP3   OH258947   2.265   0.120  13.732  0.0851 -0.6225  0.4483
12511TIP3    H158948   2.307   0.035  13.748  0.6131 -0.4179  0.1683
12511TIP3    H258949   2.226   0.144  13.816 -0.5406 -1.3966  0.3917
12512TIP3   OH258950   5.268   0.953  15.735 -0.3891 -0.0775  0.2256
12512TIP3    H158951   5.328   0.884  15.762  1.4235  1.5245  0.4717
12512TIP3    H258952   5.192   0.942  15.792 -0.1097 -1.7480  0.3551
12513TIP3   OH258953   4.713   1.365  13.523  0.5801 -0.1915  0.2423
12513TIP3    H158954   4.725   1.460  13.523  1.3117 -0.2711 -0.7452
12513TIP3    H258955   4.620   1.352  13.537  0.5000  0.6683  0.5617
12514TIP3   OH258956   1.879   3.479  14.222  0.3370  0.3384 -0.4072
12514TIP3    H158957   1.888   3.458  14.315  1.1006  2.3252  0.0258
12514TIP3    H258958   1.814   3.417  14.189  1.2210 -1.4449  1.0678
12515TIP3   OH258959   5.160   5.574  12.529 -0.0216  0.2346 -0.2742
12515TIP3    H158960   5.129   5.506  12.589  0.3200 -0.9397 -1.3959
12515TIP3    H258961   5.169   5.530  12.445 -1.5509  2.0837 -1.4930
12516TIP3   OH258962   4.714   2.455  11.333 -0.2892 -0.0164 -0.0694
12516TIP3    H158963   4.759   2.375  11.308 -0.0837 -0.5565  1.8620
12516TIP3    H258964   4.631   2.425  11.371 -0.4596  0.7286  0.1699
12517TIP3   OH258965   6.311   5.256   4.454  0.3308 -0.9311 -0.3330
12517TIP3    H158966   6.352   5.323   4.510 -1.8807 -0.6183  1.0254
12517TIP3    H258967   6.324   5.174   4.501  0.7659 -1.0731 -0.6967
12518TIP3   OH258968   0.974   3.872   4.319  0.5922  0.1049  0.2650
12518TIP3    H158969   0.928   3.791   4.338 -0.9352  0.7644 -0.4870
12518TIP3    H258970   1.009   3.900   4.403  2.1621 -1.8868  0.3552
12519TIP3   OH258971   0.046   1.798   4.071 -0.1603 -0.0110  0.2563
12519TIP3    H158972   0.037   1.881   4.024 -0.5030 -0.0899  0.1854
12519TIP3    H258973   0.141   1.786   4.079 -0.0719  1.3988  2.0232
12520TIP3   OH258974   0.443   0.601  16.559 -0.4240 -0.2745 -0.1752
12520TIP3    H158975   0.492   0.682  16.546 -2.0660  0.7452 -0.3669
12520TIP3    H258976   0.465   0.547  16.483  1.0426 -0.2344  0.1910
12521TIP3   OH258977   4.049   4.408  11.074 -0.1450  0.1365 -1.3476
12521TIP3    H158978   4.012   4.407  11.162  2.3374 -1.2122 -0.1966
12521TIP3    H258979   4.068   4.500  11.056  0.5408  0.3115  0.1404
12522TIP3   OH258980   6.604   6.696  15.525 -0.6671  0.0106  0.4389
12522TIP3    H158981   6.640   6.682  15.612  0.2919  1.4646  0.3085
12522TIP3    H258982   6.509   6.688  15.536 -0.7507  2.3801  2.1173
12523TIP3   OH258983   2.617   5.306   5.932 -0.2891  0.1156  0.6193
12523TIP3    H158984   2.698   5.357   5.930 -0.2001  0.0089 -1.6328
12523TIP3    H258985   2.548   5.372   5.923 -0.2033 -0.0356 -1.6508
12524TIP3   OH258986   3.275   4.672  16.903  0.0837  0.1960 -0.6602
12524TIP3    H158987   3.309   4.602  16.848  0.2879 -0.1768 -0.0622
12524TIP3    H258988   3.351   4.728  16.921 -0.3291  1.3503 -2.2488
12525TIP3   OH258989   1.704   4.751  11.183 -0.0850  0.0120  0.1177
12525TIP3    H158990   1.663   4.774  11.099 -0.6957 -3.0202 -0.5388
12525TIP3    H258991   1.655   4.802  11.248  0.2360  2.2285 -1.2786
12526TIP3   OH258992   2.954   0.138  13.234 -0.4829 -0.1857  0.1879
12526TIP3    H158993   2.941   0.051  13.273  3.8942  0.1051  2.8825
12526TIP3    H258994   2.995   0.120  13.149 -2.3627 -0.6518 -0.6959
12527TIP3   OH258995   6.529   3.847   0.420  0.3741 -0.1000  0.9201
12527TIP3    H158996   6.525   3.758   0.384  1.7623 -0.2391  1.0642
12527TIP3    H258997   6.522   3.904   0.343 -0.4533 -0.3228  0.8202
12528TIP3   OH258998   3.711   5.769   5.441  0.4721  0.1146  0.2774
12528TIP3    H158999   3.699   5.702   5.373  1.3527 -0.5867  0.8062
12528TIP3    H259000   3.707   5.852   5.393 -1.0230 -0.2646 -0.3388
12529TIP3   OH259001   5.580   1.472   5.916  0.5874 -0.0311  0.3049
12529TIP3    H159002   5.531   1.537   5.966  0.3761 -0.4138  0.6034
12529TIP3    H259003   5.600   1.403   5.979 -0.1754 -0.7881 -0.2666
12530TIP3   OH259004   6.815   5.265  15.833  0.0637 -0.4414  0.1696
12530TIP3    H159005   6.838   5.274  15.925 -1.2801  0.0805  0.4767
12530TIP3    H259006   6.871   5.194  15.801  1.3989  0.1726  1.0689
12531TIP3   OH259007   2.617   1.881  13.800 -0.2034 -0.3546 -0.2273
12531TIP3    H159008   2.619   1.873  13.705 -1.4676 -0.6431 -0.2511
12531TIP3    H259009   2.535   1.927  13.819  0.1044 -0.1612  0.7170
12532TIP3   OH259010   4.606   5.629   0.335  0.2456 -0.6956 -0.1838
12532TIP3    H159011   4.551   5.686   0.282  0.3392 -1.0942 -0.7143
12532TIP3    H259012   4.544   5.572   0.381 -0.0091  1.2086  2.0527
12533TIP3   OH259013   5.368   0.446  14.344  0.6758 -0.2670 -0.3153
12533TIP3    H159014   5.281   0.448  14.304  0.7682 -0.3893 -0.5267
12533TIP3    H259015   5.426   0.418  14.273  1.2311  1.9416 -0.8246
12534TIP3   OH259016   6.436   2.475  11.737 -0.0002  0.1764 -0.0824
12534TIP3    H159017   6.495   2.550  11.738  0.3322 -0.0884  0.3982
12534TIP3    H259018   6.349   2.513  11.730  0.2154  0.5749 -0.6876
12535TIP3   OH259019   0.560   6.489  11.365 -0.9171 -0.3438  0.0017
12535TIP3    H159020   0.610   6.569  11.377 -2.1985  0.3418  1.0266
12535TIP3    H259021   0.540   6.487  11.271 -0.5434  0.3125 -0.1009
12536TIP3   OH259022   1.977   5.012   3.206 -0.0627  0.1524 -0.1092
12536TIP3    H159023   2.021   5.065   3.139 -0.1214  1.0430  0.5454
12536TIP3    H259024   1.987   4.922   3.175  0.6145  0.4882 -0.9066
12537TIP3   OH259025   2.801   6.342   6.262 -0.0060  0.1352 -0.0119
12537TIP3    H159026   2.737   6.398   6.217 -0.1745 -0.6706 -0.8024
12537TIP3    H259027   2.773   6.253   6.241 -0.3726 -0.3034  2.0959
12538TIP3   OH259028   3.978   0.784  13.556 -0.1132  0.4023  0.0579
12538TIP3    H159029   4.041   0.754  13.490  1.7273  1.9491  1.0016
12538TIP3    H259030   3.902   0.813  13.505  0.1315 -1.0021 -1.1650
12539TIP3   OH259031   5.241   1.591  10.765  0.5277  0.2815 -0.2458
12539TIP3    H159032   5.168   1.630  10.717 -0.0637  1.2795  1.3960
12539TIP3    H259033   5.281   1.530  10.703 -2.2956 -1.0522 -0.9095
12540TIP3   OH259034   2.702   2.248  14.433  0.0466  0.1736  0.3670
12540TIP3    H159035   2.743   2.278  14.351  1.7431 -1.3117  0.6101
12540TIP3    H259036   2.721   2.318  14.496  0.2576  0.5346 -0.0889
12541TIP3   OH259037   4.594   5.815   1.662  0.1354 -0.5137 -0.0764
12541TIP3    H159038   4.646   5.814   1.581  0.8531 -1.6650  0.3904
12541TIP3    H259039   4.587   5.724   1.688 -0.2521 -0.1745  1.0744
12542TIP3   OH259040   0.926   2.365   3.198  0.2958  0.3526  0.1348
12542TIP3    H159041   0.834   2.364   3.225  0.1793  0.2384 -0.2626
12542TIP3    H259042   0.972   2.409   3.270  0.0884 -0.5406  0.8353
12543TIP3   OH259043   3.414   4.237  16.840  0.2137  0.1140 -0.2173
12543TIP3    H159044   3.465   4.157  16.828  0.1733 -0.4328  2.5575
12543TIP3    H259045   3.348   4.234  16.771  0.0707 -2.3747 -0.0572
12544TIP3   OH259046   1.708   2.883  16.742 -0.0333 -0.5107  0.1860
12544TIP3    H159047   1.720   2.855  16.651  0.2080 -3.3393  0.9774
12544TIP3    H259048   1.629   2.938  16.740  2.7498  3.9916 -2.4131
12545TIP3   OH259049   5.555   2.087  11.278  0.0335 -0.2913 -0.1974
12545TIP3    H159050   5.544   2.177  11.248  1.8208  0.2457  0.6367
12545TIP3    H259051   5.516   2.086  11.366  2.6200  0.5444  1.0690
12546TIP3   OH259052   5.526   2.769   4.869  0.6109  0.6906  0.2473
12546TIP3    H159053   5.480   2.686   4.858 -1.0666  0.9732  3.6756
12546TIP3    H259054   5.612   2.754   4.831 -0.3115 -1.8632 -1.1268
12547TIP3   OH259055   4.332   4.581  14.154  0.2803 -0.4420 -0.2510
12547TIP3    H159056   4.344   4.538  14.239  0.9044  0.1694 -0.0176
12547TIP3    H259057   4.341   4.674  14.174 -0.3740 -0.2496 -0.8618
12548TIP3   OH259058   6.400   2.152   5.233  0.0627 -0.0931 -1.1937
12548TIP3    H159059   6.315   2.129   5.271  1.0982  0.6575  1.8829
12548TIP3    H259060   6.379   2.210   5.160 -2.0767  0.9362  0.1529
12549TIP3   OH259061   6.663   3.004   5.499 -0.1786 -0.3572 -0.0061
12549TIP3    H159062   6.710   2.924   5.477  0.2612  0.2760 -1.4385
12549TIP3    H259063   6.574   2.990   5.467 -0.1569 -0.3449 -0.0696
12550TIP3   OH259064   3.374   4.923  13.574  0.3172 -0.4289 -0.3837
12550TIP3    H159065   3.359   4.931  13.668  0.1475  0.0460 -0.4474
12550TIP3    H259066   3.301   4.870  13.542  0.8845 -1.4031 -0.1124
12551TIP3   OH259067   0.298   0.338   1.598  0.3662  0.6353  0.7366
12551TIP3    H159068   0.344   0.406   1.549  1.4899  0.6141  1.7147
12551TIP3    H259069   0.353   0.260   1.588 -1.1878 -0.3052 -0.8329
12552TIP3   OH259070   6.398   5.644   4.781  0.0012  0.0316  0.2845
12552TIP3    H159071   6.440   5.717   4.736  0.9372  0.0147  1.0851
12552TIP3    H259072   6.430   5.650   4.871 -1.5137 -0.1555  0.8674
12553TIP3   OH259073   2.351   3.877  13.154  0.2657 -0.8902  0.3685
12553TIP3    H159074   2.402   3.805  13.117  0.0321 -2.0027  2.0821
12553TIP3    H259075   2.305   3.916  13.079  0.5990 -2.3518 -0.6313
12554TIP3   OH259076   3.549   4.671   3.650 -0.3184 -0.2662  0.2685
12554TIP3    H159077   3.619   4.719   3.605 -1.1067  0.8220  0.1735
12554TIP3    H259078   3.553   4.583   3.613 -0.2784  0.3229 -1.1846
12555TIP3   OH259079   0.044   2.001   4.620 -0.3842  0.5211  0.1225
12555TIP3    H159080   0.069   1.917   4.660 -0.1065  0.6293  0.1784
12555TIP3    H259081  -0.051   2.006   4.632 -0.4031  0.2052  0.1035
12556TIP3   OH259082   5.574   0.184   1.666  0.5333  0.1930 -0.0295
12556TIP3    H159083   5.653   0.230   1.634  0.6650 -0.7006 -1.0237
12556TIP3    H259084   5.540   0.139   1.589 -1.1924  0.8804  0.3044
12557TIP3   OH259085   5.384   4.345  12.261 -0.2406  0.0860  0.1318
12557TIP3    H159086   5.307   4.291  12.282 -1.4005  1.4695 -0.3930
12557TIP3    H259087   5.415   4.376  12.346  0.3680 -1.2635  0.4320
12558TIP3   OH259088   4.729   5.235  12.489  0.3002 -0.1932  0.3050
12558TIP3    H159089   4.742   5.160  12.431 -0.1682 -0.5296  0.6421
12558TIP3    H259090   4.812   5.283  12.483  0.1068  0.0186 -0.9916
12559TIP3   OH259091   2.243   5.903  12.182  0.3365 -0.0341  0.2689
12559TIP3    H159092   2.287   5.901  12.097 -0.1901  0.4558 -0.0265
12559TIP3    H259093   2.314   5.903  12.246  0.9285  3.4021 -0.2085
12560TIP3   OH259094   2.872   4.203  16.845 -0.5130 -0.1941  0.3938
12560TIP3    H159095   2.786   4.164  16.828 -1.1852  1.6518 -0.7646
12560TIP3    H259096   2.860   4.297  16.828  1.6619  0.1605  0.4975
12561TIP3   OH259097   3.326   5.884  12.198  0.4016 -0.2094 -0.3778
12561TIP3    H159098   3.367   5.963  12.232 -0.4648  0.4361 -0.7753
12561TIP3    H259099   3.330   5.821  12.270 -2.5402  1.5289  1.5205
12562TIP3   OH259100   4.806   6.611   3.166  0.4702  0.1978 -0.0733
12562TIP3    H159101   4.889   6.595   3.211 -0.8476 -0.7121  2.2156
12562TIP3    H259102   4.827   6.674   3.098  2.5609  2.0315  2.1010
12563TIP3   OH259103   4.835   0.153  14.123  0.1085 -0.3024 -0.3924
12563TIP3    H159104   4.871   0.131  14.209 -2.2484 -0.7221  0.5664
12563TIP3    H259105   4.872   0.088  14.064 -1.4234 -2.7132  1.1260
12564TIP3   OH259106   0.997   2.387  11.979 -0.4521  0.4138 -0.0260
12564TIP3    H159107   1.084   2.355  11.957 -1.1997 -1.5258 -0.3311
12564TIP3    H259108   1.007   2.430  12.064  0.5545 -1.0069  0.6053
12565TIP3   OH259109   2.866   0.233  16.670  0.0361 -0.3943 -0.2455
12565TIP3    H159110   2.885   0.206  16.759 -0.6806 -0.1732 -0.0247
12565TIP3    H259111   2.843   0.152  16.624 -0.8212 -0.3526  0.0878
12566TIP3   OH259112   4.909   6.234   6.128 -0.2900  0.2383  0.1827
12566TIP3    H159113   4.940   6.144   6.116 -0.2093  0.1661  0.8585
12566TIP3    H259114   4.818   6.233   6.100 -0.4030 -0.1530  0.5540
12567TIP3   OH259115   5.563   2.846  11.573 -1.0302 -0.2061  0.2460
12567TIP3    H159116   5.566   2.843  11.477  0.3138 -1.6543  0.2817
12567TIP3    H259117   5.508   2.772  11.597  0.0368 -0.9070  0.6001
12568TIP3   OH259118   5.636   6.094  16.226  0.0759 -0.1968 -0.2870
12568TIP3    H159119   5.601   6.127  16.144  1.7922 -0.7663 -1.2886
12568TIP3    H259120   5.596   6.007  16.236  0.7532 -0.6166 -1.1409
12569TIP3   OH259121   1.742   3.260  15.449 -0.1486  0.4124 -0.0041
12569TIP3    H159122   1.673   3.199  15.422  0.6320 -0.3404 -0.3483
12569TIP3    H259123   1.755   3.318  15.373  0.5093 -0.2995 -0.4542
12570TIP3   OH259124   5.632   1.629   2.552  0.5408 -0.1371  0.3394
12570TIP3    H159125   5.582   1.564   2.601  1.7393 -0.6148  0.9597
12570TIP3    H259126   5.604   1.713   2.589  2.0636 -0.5163  2.5469
12571TIP3   OH259127   3.172   6.527  13.599  0.1334  0.1053  0.1532
12571TIP3    H159128   3.211   6.610  13.573  1.0622 -0.6972 -1.1300
12571TIP3    H259129   3.128   6.495  13.520  0.1463 -0.8154  0.5047
12572TIP3   OH259130   1.802   4.196   2.032  0.0551  0.4652 -0.6542
12572TIP3    H159131   1.713   4.208   2.065  0.3321 -0.5723  0.5770
12572TIP3    H259132   1.848   4.275   2.060 -0.3265  0.7295 -0.7596
12573TIP3   OH259133   1.103   3.829  13.510  0.0583 -0.5273 -0.0814
12573TIP3    H159134   1.156   3.871  13.578 -0.6734  0.6400 -0.2145
12573TIP3    H259135   1.168   3.783  13.456  0.7463 -0.6558  0.8270
12574TIP3   OH259136   1.794   3.938  11.820 -0.4084  0.4907 -0.6874
12574TIP3    H159137   1.846   3.880  11.875  0.1844  0.6125 -1.1138
12574TIP3    H259138   1.858   3.987  11.770 -0.9437 -0.0909 -1.9838
12575TIP3   OH259139   6.089   1.229  15.683 -0.3783 -0.1462 -0.2334
12575TIP3    H159140   5.994   1.223  15.695 -0.3129  0.4851  0.7709
12575TIP3    H259141   6.115   1.302  15.739  1.0230 -1.8333  1.4572
12576TIP3   OH259142   2.440   3.318  12.378  0.1982 -0.2761 -0.5596
12576TIP3    H159143   2.485   3.316  12.463 -0.3068 -1.4199 -0.2998
12576TIP3    H259144   2.356   3.359  12.397  0.1262 -0.4388 -0.5269
12577TIP3   OH259145   2.328   1.319   5.388  0.5364  0.0295 -0.4253
12577TIP3    H159146   2.411   1.275   5.373  0.5434  0.1266 -0.6813
12577TIP3    H259147   2.324   1.332   5.483  2.1472  2.6232 -0.6179
12578TIP3   OH259148   1.077   2.485  10.793  0.3738 -0.1364 -0.3120
12578TIP3    H159149   1.007   2.502  10.856 -0.1713 -2.4570 -0.1971
12578TIP3    H259150   1.097   2.570  10.755 -2.4441  0.6313 -0.2576
12579TIP3   OH259151   5.783   5.347   0.758  0.2501 -0.9958 -0.0006
12579TIP3    H159152   5.736   5.325   0.678  0.1174 -0.6157 -0.0287
12579TIP3    H259153   5.802   5.262   0.798  2.9157 -1.3937 -1.8860
12580TIP3   OH259154   5.641   3.454  14.996 -0.6785 -0.1338 -0.1869
12580TIP3    H159155   5.595   3.373  14.976 -0.8976 -0.8261  2.7426
12580TIP3    H259156   5.576   3.523  14.981 -1.6304 -0.8199  0.6615
12581TIP3   OH259157   2.502   3.441  15.140  0.4032  0.2239 -0.2925
12581TIP3    H159158   2.427   3.394  15.176 -0.0178  0.6920 -0.5572
12581TIP3    H259159   2.548   3.475  15.217 -0.8202  1.7290 -0.1748
12582TIP3   OH259160   6.419   6.193   1.849 -0.0458 -0.1298  0.4483
12582TIP3    H159161   6.359   6.203   1.775  1.2241 -0.5017 -0.6820
12582TIP3    H259162   6.448   6.283   1.868  0.9879 -0.1891 -0.7218
12583TIP3   OH259163   4.620   1.924  15.862 -0.0899  0.1250  0.1257
12583TIP3    H159164   4.544   1.912  15.920 -1.8565  0.5296 -1.9650
12583TIP3    H259165   4.632   2.019  15.857  0.5724  0.0637  0.4417
12584TIP3   OH259166   2.574   3.049   3.266 -0.1758 -0.4585 -0.1601
12584TIP3    H159167   2.561   3.033   3.173 -1.1771 -1.4835  0.1371
12584TIP3    H259168   2.620   2.972   3.299 -0.7329 -0.5753  0.3749
12585TIP3   OH259169   6.414   4.505  13.226 -0.0832  0.2085  0.3403
12585TIP3    H159170   6.416   4.490  13.131 -0.7256 -0.8686  0.4822
12585TIP3    H259171   6.322   4.493  13.250  0.0672  0.5384  1.0986
12586TIP3   OH259172   1.902   5.354   1.842 -0.0306  0.7131 -0.6795
12586TIP3    H159173   1.885   5.396   1.758 -1.6297  1.2118 -0.1575
12586TIP3    H259174   1.976   5.403   1.879  0.3096  0.8601 -1.5304
12587TIP3   OH259175   2.738   0.694   2.888 -0.2374 -0.2641  0.0162
12587TIP3    H159176   2.660   0.671   2.939  0.5155 -1.0389  0.8429
12587TIP3    H259177   2.789   0.750   2.947 -0.7097  1.2529 -0.9580
12588TIP3   OH259178   1.049   2.309   3.567  0.4840 -0.4071  0.4594
12588TIP3    H159179   1.067   2.236   3.625  0.6227 -2.2576 -1.7540
12588TIP3    H259180   0.963   2.290   3.530  0.0649  1.1087  0.5678
12589TIP3   OH259181   5.029   5.640  15.138 -0.0345 -0.3303 -0.0003
12589TIP3    H159182   4.935   5.637  15.116  0.3037 -0.4799 -1.5486
12589TIP3    H259183   5.066   5.701  15.074  1.2676 -1.8842 -0.7924
12590TIP3   OH259184   3.585   0.094   0.517 -0.0268 -0.0089 -0.1900
12590TIP3    H159185   3.498   0.128   0.540 -0.3337 -0.9312  0.0544
12590TIP3    H259186   3.605   0.030   0.585  1.3884  1.0407  0.4263
12591TIP3   OH259187   0.664   5.259  15.204 -0.1465 -0.2646  0.5561
12591TIP3    H159188   0.685   5.339  15.155  0.4780  0.1995  1.5572
12591TIP3    H259189   0.747   5.211  15.208 -0.6954 -1.3985 -0.7629
12592TIP3   OH259190   0.946   4.200  11.978  0.0387 -0.4318  0.3246
12592TIP3    H159191   1.016   4.174  12.038 -1.6640 -3.0747  1.3511
12592TIP3    H259192   0.971   4.162  11.893  1.3593  1.4188 -0.1726
12593TIP3   OH259193   1.914   2.738   3.120 -0.3616  0.2455 -0.3493
12593TIP3    H159194   1.995   2.790   3.127 -0.1986 -0.1877  1.3783
12593TIP3    H259195   1.928   2.684   3.042  0.2307  1.4687 -1.1344
12594TIP3   OH259196   5.833   1.112  16.756 -0.6694 -0.0674  0.4609
12594TIP3    H159197   5.863   1.197  16.789 -0.4968  0.1008 -0.1251
12594TIP3    H259198   5.877   1.048  16.812  1.7813  0.1279 -1.1199
12595TIP3   OH259199   4.848   4.547  14.590 -0.7333  0.1741  0.7021
12595TIP3    H159200   4.854   4.452  14.587  0.1589  0.2464 -0.4099
12595TIP3    H259201   4.812   4.572  14.505 -0.5887  0.8525  0.8266
12596TIP3   OH259202   3.793   1.161   4.725  0.4407 -0.1858 -0.1542
12596TIP3    H159203   3.842   1.242   4.712 -0.3976  0.1879 -1.1008
12596TIP3    H259204   3.851   1.106   4.776  1.4605  0.6027 -0.4389
12597TIP3   OH259205   0.092   4.274  10.233  0.2140  0.2481 -0.0528
12597TIP3    H159206   0.009   4.321  10.222 -0.4928 -0.9658 -0.0665
12597TIP3    H259207   0.074   4.186  10.199  1.6709  0.1219 -0.5509
12598TIP3   OH259208   3.340   6.615  16.231  1.2036 -0.0330 -0.3251
12598TIP3    H159209   3.431   6.594  16.211  1.9487  2.5336  0.0308
12598TIP3    H259210   3.310   6.665  16.155  0.7346  0.7809  0.3767
12599TIP3   OH259211   2.192   3.423  16.120  0.1359  0.0046 -0.2665
12599TIP3    H159212   2.286   3.440  16.126 -0.0684  2.3430 -2.1921
12599TIP3    H259213   2.152   3.491  16.175 -0.4717 -2.0462  1.9948
12600TIP3   OH259214   1.863   2.074  15.336 -0.3916  0.4382  0.3236
12600TIP3    H159215   1.807   2.008  15.376 -0.4217 -0.4927 -1.1718
12600TIP3    H259216   1.803   2.130  15.287 -0.0593 -0.5515 -1.2674
12601TIP3   OH259217   3.602   6.373  12.445 -0.5033 -0.1189 -0.5579
12601TIP3    H159218   3.670   6.309  12.465  0.5305  1.0279 -0.2149
12601TIP3    H259219   3.555   6.385  12.527  0.0966  0.4457 -0.2872
12602TIP3   OH259220   5.938   0.029  11.356 -0.3168  0.3722 -0.2943
12602TIP3    H159221   5.959   0.120  11.333 -1.4614  0.3468 -1.5842
12602TIP3    H259222   5.846   0.033  11.385 -0.8634 -0.5709 -1.7983
12603TIP3   OH259223   2.789   6.270  15.749  0.6803 -0.3176 -0.3219
12603TIP3    H159224   2.781   6.277  15.654  0.7444 -0.9300 -0.3756
12603TIP3    H259225   2.730   6.337  15.783  2.7700  1.8947 -0.8016
12604TIP3   OH259226   3.237   2.683  14.665  0.2010 -0.3806  0.1747
12604TIP3    H159227   3.181   2.759  14.649  1.2497  0.3647 -0.0641
12604TIP3    H259228   3.248   2.642  14.579  0.4231 -0.2363  0.1334
12605TIP3   OH259229   3.446   4.874  15.371  0.0193 -0.0320 -0.0229
12605TIP3    H159230   3.375   4.820  15.404  0.3229  0.4731  1.5799
12605TIP3    H259231   3.436   4.873  15.276 -0.7291 -1.8413  0.0345
12606TIP3   OH259232   2.258   5.063  16.938 -0.6713  0.0261 -0.2368
12606TIP3    H159233   2.270   5.138  16.880 -1.2659 -1.5041 -2.4478
12606TIP3    H259234   2.163   5.049  16.939 -0.6241 -0.3410  0.7053
12607TIP3   OH259235   0.744   1.310  14.552 -0.4769  0.5028  0.2243
12607TIP3    H159236   0.666   1.327  14.605  0.2211  1.5799  0.9612
12607TIP3    H259237   0.778   1.227  14.585  0.3749  1.5202  2.0703
12608TIP3   OH259238   0.107   3.985   5.687  0.1868 -0.0238 -0.1027
12608TIP3    H159239   0.151   3.947   5.763 -2.9700  0.2271  2.0642
12608TIP3    H259240   0.162   4.059   5.662  1.5468 -0.3573  1.6940
12609TIP3   OH259241   1.468   5.231  12.806 -0.2242  0.2563 -0.4556
12609TIP3    H159242   1.409   5.179  12.860 -0.2302 -0.0531 -0.7578
12609TIP3    H259243   1.411   5.293  12.761 -0.4449 -0.6018 -1.4068
12610TIP3   OH259244   2.541   4.133   0.610 -0.1808 -0.2702  0.2124
12610TIP3    H159245   2.567   4.072   0.541  2.3241  1.7734 -0.8147
12610TIP3    H259246   2.478   4.191   0.569  0.2183  0.0738  0.0896
12611TIP3   OH259247   5.959   6.361   0.272 -0.1880  0.0613  0.5658
12611TIP3    H159248   5.916   6.384   0.189  0.3269 -1.1144 -0.0521
12611TIP3    H259249   6.048   6.335   0.247  0.2131  0.3971  1.5801
12612TIP3   OH259250   3.223   1.068  15.802  0.5694  0.4044 -0.2443
12612TIP3    H159251   3.131   1.054  15.781 -0.1540  0.2562  2.6380
12612TIP3    H259252   3.223   1.138  15.866  2.2828 -0.6601  1.0025
12613TIP3   OH259253   0.439   0.383  12.591 -0.3295 -0.0724 -0.1841
12613TIP3    H159254   0.475   0.324  12.658 -0.3200 -0.6641 -0.6963
12613TIP3    H259255   0.491   0.364  12.513 -1.9672 -1.2415 -1.0632
12614TIP3   OH259256   5.363   2.610  10.545  0.5812 -0.8776  0.0599
12614TIP3    H159257   5.280   2.561  10.548  0.5683 -0.8344  0.4867
12614TIP3    H259258   5.431   2.544  10.555  0.5807 -0.8594  0.1833
12615TIP3   OH259259   5.795   6.791   1.599 -0.1783  0.1575 -0.2776
12615TIP3    H159260   5.859   6.722   1.616 -0.0494  0.4305  0.3812
12615TIP3    H259261   5.710   6.748   1.612 -0.1308 -0.1480 -0.9336
12616TIP3   OH259262   1.776   4.293  15.095 -0.0444  0.5344 -0.0007
12616TIP3    H159263   1.791   4.386  15.112  0.8584  0.0422  2.2285
12616TIP3    H259264   1.684   4.279  15.118 -0.1020  0.8028 -0.0667
12617TIP3   OH259265   2.344   6.420   0.848 -0.1498 -0.2510  0.4682
12617TIP3    H159266   2.420   6.432   0.791 -0.4936 -3.1029 -0.7640
12617TIP3    H259267   2.272   6.401   0.787 -0.4970 -3.5746  1.7504
12618TIP3   OH259268   6.675   0.184  13.488 -0.5298 -0.4750  0.0726
12618TIP3    H159269   6.666   0.089  13.491 -2.1426 -0.3673 -0.4761
12618TIP3    H259270   6.641   0.209  13.402  0.0764  0.5897  0.1194
12619TIP3   OH259271   5.592   1.915   5.179  0.1369  0.0827  0.0106
12619TIP3    H159272   5.636   1.985   5.228  0.2156  0.2805 -0.3415
12619TIP3    H259273   5.659   1.880   5.121 -0.1749  0.4373 -0.5844
12620TIP3   OH259274   4.911   1.825  16.578  0.0115 -0.2814 -0.0095
12620TIP3    H159275   4.981   1.764  16.554 -0.9184 -0.9666 -1.1535
12620TIP3    H259276   4.877   1.791  16.661  0.1195 -0.7810 -0.1632
12621TIP3   OH259277   3.479   3.583   1.492  0.1718 -0.3928 -0.3827
12621TIP3    H159278   3.392   3.567   1.455 -0.3301  0.3030  0.4309
12621TIP3    H259279   3.533   3.510   1.462 -0.8273 -1.1040 -0.4920
12622TIP3   OH259280   0.469   3.167  12.316  0.1849 -0.0597 -0.0803
12622TIP3    H159281   0.376   3.145  12.314  0.3265 -0.6662 -0.3382
12622TIP3    H259282   0.487   3.186  12.408  0.1833 -1.7135  0.3043
12623TIP3   OH259283   0.988   1.580  16.546  0.3725  0.2072 -0.0027
12623TIP3    H159284   0.944   1.563  16.629  1.9876  0.8778  1.0504
12623TIP3    H259285   1.081   1.584  16.569  0.8828  0.2042 -1.8868
12624TIP3   OH259286   6.547   3.372  14.382 -0.6030 -0.3491  0.2359
12624TIP3    H159287   6.525   3.461  14.354  0.2564 -0.2971 -0.2935
12624TIP3    H259288   6.629   3.382  14.430 -1.1565 -0.6853  1.2830
12625TIP3   OH259289   0.852   4.807   2.720 -0.1847 -0.5446 -0.4215
12625TIP3    H159290   0.795   4.874   2.757  0.5113  0.3234 -0.8960
12625TIP3    H259291   0.933   4.813   2.771  0.4410  0.0346 -1.4433
12626TIP3   OH259292   3.654   3.615  11.632  0.3774 -0.1451  0.3946
12626TIP3    H159293   3.746   3.641  11.642  1.0494 -2.1340 -0.1299
12626TIP3    H259294   3.631   3.645  11.544  0.4891  0.4149  0.5503
12627TIP3   OH259295   1.400   1.139   3.201 -0.0343 -0.0199 -0.0623
12627TIP3    H159296   1.489   1.162   3.173 -0.1513  1.6697  0.8195
12627TIP3    H259297   1.406   1.046   3.224  1.0849 -0.3591 -1.5241
12628TIP3   OH259298   5.930   1.543   1.116 -0.1481 -0.2837 -0.1894
12628TIP3    H159299   5.840   1.549   1.147  0.2493  0.9571  0.8074
12628TIP3    H259300   5.932   1.599   1.038 -0.5322 -1.3879 -1.0290
12629TIP3   OH259301   1.443   1.452   1.935  0.1828 -0.1496 -0.4988
12629TIP3    H159302   1.463   1.388   1.867 -0.6514 -1.8146  0.7424
12629TIP3    H259303   1.347   1.451   1.940  0.2025  0.5605  0.1475
12630TIP3   OH259304   4.303   5.790  13.713  0.7151 -0.4643  0.3810
12630TIP3    H159305   4.329   5.870  13.668 -0.5771 -0.5549 -0.5858
12630TIP3    H259306   4.385   5.754  13.746  1.5862  0.1731 -0.9637
12631TIP3   OH259307   5.516   0.517   5.792  0.8897  0.6613  0.1749
12631TIP3    H159308   5.573   0.458   5.742  1.3183  0.5344  0.7912
12631TIP3    H259309   5.525   0.487   5.883  1.0112  1.5852  0.4821
12632TIP3   OH259310   5.114   1.963   1.489  0.1010  0.2354 -0.1371
12632TIP3    H159311   5.209   1.970   1.504  0.0375 -0.1549  0.4840
12632TIP3    H259312   5.082   2.052   1.497  0.4279  0.3869 -0.4505
12633TIP3   OH259313   1.222   2.471  16.663 -0.2251  0.5128 -0.0369
12633TIP3    H159314   1.284   2.472  16.737 -1.0771  2.9039  0.7505
12633TIP3    H259315   1.210   2.564  16.642 -1.1751 -0.0552 -2.2270
12634TIP3   OH259316   6.451   5.492   4.293 -0.6361 -0.2012 -0.0148
12634TIP3    H159317   6.464   5.484   4.199 -2.5143  0.2349 -0.3519
12634TIP3    H259318   6.531   5.457   4.332 -0.0439 -0.8520 -1.7518
12635TIP3   OH259319   6.466   2.217  14.390 -0.7485  0.0447 -0.0767
12635TIP3    H159320   6.437   2.167  14.467 -1.5165  0.7238  0.0797
12635TIP3    H259321   6.548   2.258  14.418 -1.1269  0.4523  0.4569
12636TIP3   OH259322   1.625   6.775   2.932 -0.0198 -0.0635  0.0538
12636TIP3    H159323   1.619   6.762   3.027  0.2328 -0.3261  0.0335
12636TIP3    H259324   1.703   6.829   2.920 -0.1824  0.1660  0.0117
12637TIP3   OH259325   1.890   1.726  12.102 -0.6233  0.3130  0.6325
12637TIP3    H159326   1.859   1.660  12.164  0.7105 -0.1829  0.7932
12637TIP3    H259327   1.908   1.677  12.022 -3.3627  1.0977 -0.5851
12638TIP3   OH259328   1.264   1.342   0.176  0.3289 -0.1050  0.3440
12638TIP3    H159329   1.328   1.393   0.225 -2.0881  2.2262  1.3502
12638TIP3    H259330   1.210   1.300   0.243 -0.2483 -0.6137 -0.4135
12639TIP3   OH259331   0.388   6.106  15.999  0.1386  0.5587 -0.0388
12639TIP3    H159332   0.295   6.125  16.004  0.5183  2.6809  0.1834
12639TIP3    H259333   0.401   6.029  16.054 -1.1252  1.7076  1.9729
12640TIP3   OH259334   6.246   2.410   3.427  0.0635  0.4489  0.2547
12640TIP3    H159335   6.262   2.488   3.373  1.2095 -1.3062 -2.0968
12640TIP3    H259336   6.197   2.351   3.370 -0.4918 -0.7059  1.8682
12641TIP3   OH259337   5.632   0.765   2.187 -0.0657 -0.2920 -0.4610
12641TIP3    H159338   5.600   0.697   2.246  2.4274 -0.5347  0.7631
12641TIP3    H259339   5.657   0.717   2.108  2.5812 -1.1305  0.7396
12642TIP3   OH259340   2.193   4.267   1.282  0.2166  0.2024  0.4181
12642TIP3    H159341   2.247   4.194   1.252  0.5029 -0.3111  2.0334
12642TIP3    H259342   2.165   4.240   1.370  0.8345  2.3087  1.3180
12643TIP3   OH259343   1.647   3.483   3.060 -0.9520  0.8035 -0.0867
12643TIP3    H159344   1.734   3.460   3.092 -0.3926  0.0954 -1.9613
12643TIP3    H259345   1.588   3.422   3.105 -0.5373  1.4267  1.3543
12644TIP3   OH259346   5.636   5.750  13.035 -0.6416 -0.1105 -0.5955
12644TIP3    H159347   5.576   5.824  13.038  1.2755  1.4962 -0.0350
12644TIP3    H259348   5.685   5.762  12.954 -2.2154 -2.4153 -1.9908
12645TIP3   OH259349   2.664   3.814   5.076  0.2212  0.3113  1.0339
12645TIP3    H159350   2.749   3.815   5.121 -0.6076 -0.8128  2.7345
12645TIP3    H259351   2.660   3.898   5.031  3.1020 -0.3763 -0.8434
12646TIP3   OH259352   1.556   6.038   0.840 -0.3201  0.3317 -0.0213
12646TIP3    H159353   1.509   6.094   0.903  0.4093 -0.9579  1.7771
12646TIP3    H259354   1.639   6.082   0.827 -0.5918  0.7605 -0.3074
12647TIP3   OH259355   1.962   5.170   0.204 -0.5699  0.1134 -0.2653
12647TIP3    H159356   1.946   5.088   0.251  2.3394 -0.2340  0.2600
12647TIP3    H259357   2.029   5.148   0.139 -0.5577  1.8473 -0.8897
12648TIP3   OH259358   6.523   4.344  13.989 -0.0174  0.5518  0.0745
12648TIP3    H159359   6.496   4.373  13.902 -1.2423  0.8378  0.5397
12648TIP3    H259360   6.487   4.256  13.997  0.3828  0.3946  0.1710
12649TIP3   OH259361   1.748   4.302  13.205 -0.4165  0.3854  0.4992
12649TIP3    H159362   1.779   4.224  13.159 -1.5233  0.6555 -0.7816
12649TIP3    H259363   1.662   4.320  13.166 -0.5840  1.7056  1.4133
12650TIP3   OH259364   3.715   6.164  13.075 -0.5071  0.3327 -0.2542
12650TIP3    H159365   3.785   6.228  13.090  1.5456 -1.6390 -0.7754
12650TIP3    H259366   3.670   6.195  12.996  0.6067  1.0137 -0.6460
12651TIP3   OH259367   3.830   5.902  10.130 -0.0383  0.4213 -0.0939
12651TIP3    H159368   3.884   5.981  10.121 -1.0077  1.3598  1.7775
12651TIP3    H259369   3.740   5.934  10.119 -0.4699 -0.3419  1.0608
12652TIP3   OH259370   2.929   2.954  14.065 -0.2754  0.2654 -0.1840
12652TIP3    H159371   2.871   2.901  14.011  0.6274  0.6360 -1.5504
12652TIP3    H259372   2.880   2.967  14.146 -0.2285 -3.3619  0.6118
12653TIP3   OH259373   3.601   6.308  12.691 -0.0889 -0.7754 -0.9651
12653TIP3    H159374   3.581   6.323  12.783  0.4912 -0.5074 -0.8746
12653TIP3    H259375   3.555   6.228  12.669 -0.2071 -0.8580 -0.4301
12654TIP3   OH259376   1.962   3.214  14.764  0.0471 -0.1396 -0.6476
12654TIP3    H159377   1.958   3.199  14.858  0.2304 -1.7839 -0.8713
12654TIP3    H259378   2.008   3.298  14.755 -0.0243  0.0658  0.7172
12655TIP3   OH259379   6.048   1.626   4.011 -0.0870 -0.1336 -0.6489
12655TIP3    H159380   6.003   1.562   4.066  1.3141 -1.1070 -0.5656
12655TIP3    H259381   6.008   1.616   3.925 -0.6895 -0.2704 -0.3572
12656TIP3   OH259382   0.678   3.333   3.994 -0.2560  0.5233 -0.3965
12656TIP3    H159383   0.702   3.417   3.955 -1.1556 -0.1538 -2.5648
12656TIP3    H259384   0.755   3.307   4.044 -0.4632  3.2881  1.6136
12657TIP3   OH259385   4.127   6.099   0.936  0.5071 -0.1533 -0.1498
12657TIP3    H159386   4.103   6.128   0.848  2.7272  2.3627 -0.0384
12657TIP3    H259387   4.063   6.140   0.994 -0.0845 -0.6388 -0.4457
12658TIP3   OH259388   5.165   3.677   1.584  0.7032 -0.8663 -0.2458
12658TIP3    H159389   5.243   3.703   1.535 -0.4815 -0.1582 -1.7952
12658TIP3    H259390   5.133   3.759   1.622  0.1384 -0.9882 -0.4629
12659TIP3   OH259391   2.294   5.266  10.898  0.0042  0.2543 -0.3289
12659TIP3    H159392   2.235   5.284  10.971  1.1987 -1.4057  1.1204
12659TIP3    H259393   2.345   5.346  10.888 -0.9771  0.9219 -0.1545
12660TIP3   OH259394   4.103   1.033  11.902 -0.1382  0.0176  0.1492
12660TIP3    H159395   4.068   0.946  11.882  1.3271 -0.6281  0.2625
12660TIP3    H259396   4.186   1.036  11.854 -1.7028  2.7088 -2.7694
12661TIP3   OH259397   4.276   2.337  11.957 -0.0096  0.0087  0.1100
12661TIP3    H159398   4.267   2.428  11.985 -0.7306 -0.0666  0.1387
12661TIP3    H259399   4.368   2.315  11.975  0.4503  1.0558 -0.8807
12662TIP3   OH259400   2.811   1.927  11.399  0.1359 -0.2800  0.1520
12662TIP3    H159401   2.820   1.833  11.413 -2.3009 -0.3840  1.6299
12662TIP3    H259402   2.726   1.949  11.438 -0.1772  2.2329 -1.6864
12663TIP3   OH259403   5.090   0.170  13.307  0.1716 -0.1184  0.0441
12663TIP3    H159404   5.066   0.165  13.399  1.2954 -0.5761  0.3316
12663TIP3    H259405   5.125   0.083  13.287 -1.6695 -0.6187 -1.3099
12664TIP3   OH259406   5.919   5.074   1.482 -0.1430  0.6579  0.2857
12664TIP3    H159407   5.987   5.086   1.548  1.8312  0.4813 -1.6092
12664TIP3    H259408   5.948   5.126   1.407 -0.7723 -1.4146 -1.5007
12665TIP3   OH259409   1.033   0.952   9.947 -0.0594 -0.3771 -0.2137
12665TIP3    H159410   1.053   1.033   9.993 -1.6363 -0.1795  0.1792
12665TIP3    H259411   1.091   0.887   9.986 -1.3589 -0.2250  2.1403
12666TIP3   OH259412   2.621   2.514   4.578  0.0701 -0.0241  0.3051
12666TIP3    H159413   2.712   2.499   4.555  0.1307  1.9354 -0.8679
12666TIP3    H259414   2.572   2.493   4.499 -0.4419 -0.3134  0.6895
12667TIP3   OH259415   4.454   3.883  10.479  0.3310  0.2777 -0.0950
12667TIP3    H159416   4.384   3.917  10.423  2.0703  1.7261 -1.5357
12667TIP3    H259417   4.534   3.925  10.445  1.7947 -0.6685  1.9871
12668TIP3   OH259418   2.608   1.967   0.681 -0.3914 -0.1253  0.3629
12668TIP3    H159419   2.589   2.060   0.670 -2.3470 -0.4906  0.2315
12668TIP3    H259420   2.569   1.945   0.766  0.5999 -0.7193  0.6852
12669TIP3   OH259421   1.893   1.748   2.451 -0.8522 -0.4483  0.6162
12669TIP3    H159422   1.925   1.768   2.363 -4.0054 -1.3485 -0.8773
12669TIP3    H259423   1.867   1.656   2.448 -0.7074 -0.6097  2.6253
12670TIP3   OH259424   0.607   2.068   4.010  0.5686 -0.7609  0.1060
12670TIP3    H159425   0.677   2.012   3.978  0.1743 -0.9175 -0.4939
12670TIP3    H259426   0.651   2.134   4.064  1.2346 -0.5631 -0.6726
12671TIP3   OH259427   6.556   2.072  11.946 -0.8749  0.2028 -0.4500
12671TIP3    H159428   6.518   2.146  11.898 -3.0973 -0.6713 -0.1316
12671TIP3    H259429   6.529   2.086  12.037 -0.8569 -0.7072 -0.2982
12672TIP3   OH259430   5.178   6.494  16.924 -0.2828  0.8214 -0.5196
12672TIP3    H159431   5.249   6.490  16.989 -0.7142  0.8125 -0.0417
12672TIP3    H259432   5.219   6.468  16.842  0.0142 -0.3152 -0.0326
12673TIP3   OH259433   4.607   4.808   2.049 -0.0347 -0.2512  0.3417
12673TIP3    H159434   4.559   4.891   2.047 -2.1688 -1.4178 -1.2872
12673TIP3    H259435   4.590   4.773   2.137  1.4057  1.2365  1.2728
12674TIP3   OH259436   1.454   5.101  14.811  0.2817  0.0542 -0.0418
12674TIP3    H159437   1.525   5.063  14.758 -0.6532 -2.2180  0.2229
12674TIP3    H259438   1.396   5.141  14.747 -0.1322 -1.4649 -0.6678
12675TIP3   OH259439   4.847   0.970   1.525  0.0435 -0.0159 -0.1207
12675TIP3    H159440   4.797   0.899   1.485  0.1482 -1.5516  2.2893
12675TIP3    H259441   4.788   1.008   1.590 -0.1160  2.3769 -1.5400
12676TIP3   OH259442   5.996   2.817   2.444 -0.2066  0.7380  0.4442
12676TIP3    H159443   5.914   2.803   2.396 -1.2283  2.0880  1.7101
12676TIP3    H259444   6.063   2.824   2.375 -1.3236  0.7756 -0.6829
12677TIP3   OH259445   2.003   3.050  10.452  0.1306  0.1355  0.2320
12677TIP3    H159446   1.968   3.137  10.435 -0.5282  0.0818  1.2490
12677TIP3    H259447   1.928   3.000  10.485  1.0846 -0.0201  2.3424
12678TIP3   OH259448   6.200   5.497  10.776 -0.5786  0.1960  0.1558
12678TIP3    H159449   6.220   5.432  10.709  0.5684  0.1865  0.4758
12678TIP3    H259450   6.205   5.581  10.730  0.9484  0.2461  0.3372
12679TIP3   OH259451   4.399   5.841   2.062 -0.4295 -0.1714  0.5562
12679TIP3    H159452   4.378   5.925   2.102  0.6043  0.6796 -0.5882
12679TIP3    H259453   4.348   5.840   1.981  0.6855  0.0528 -0.1694
12680TIP3   OH259454   0.509   4.379   2.750 -0.4215 -0.6542 -0.0849
12680TIP3    H159455   0.595   4.422   2.748 -0.4286 -0.6298  0.1925
12680TIP3    H259456   0.450   4.443   2.710 -0.0425 -1.2684 -1.6990
12681TIP3   OH259457   6.147   3.957   1.616 -0.6916  0.4892  0.2142
12681TIP3    H159458   6.170   3.937   1.526 -1.6428  1.0914 -0.1870
12681TIP3    H259459   6.131   4.052   1.616 -2.6215  0.2171  0.5308
12682TIP3   OH259460   3.189   4.811   1.298 -0.1559 -0.5268 -0.2385
12682TIP3    H159461   3.099   4.843   1.294 -0.2583 -0.8844 -0.7746
12682TIP3    H259462   3.182   4.716   1.299  0.2581 -0.5992 -1.8113
12683TIP3   OH259463   2.249   6.716  16.870 -0.8071 -0.5745  0.1459
12683TIP3    H159464   2.244   6.637  16.923 -0.4328 -0.5795  0.1761
12683TIP3    H259465   2.334   6.755  16.892 -1.2838  0.2013  0.6565
12684TIP3   OH259466   0.406   3.351  16.948  0.0711  0.1891 -0.0469
12684TIP3    H159467   0.434   3.392  16.866 -2.4750  1.5412 -0.3305
12684TIP3    H259468   0.465   3.276  16.958  0.4707 -0.0393 -3.1283
12685TIP3   OH259469   1.501   6.750   3.844 -0.6088 -0.3411  0.0129
12685TIP3    H159470   1.536   6.661   3.836  0.5182  0.0276  0.5006
12685TIP3    H259471   1.495   6.782   3.754 -1.0233 -0.9079 -0.1635
12686TIP3   OH259472   5.122   5.064  12.596 -0.1321  0.4815  0.3751
12686TIP3    H159473   5.189   5.066  12.665 -2.0209 -0.7614  2.3556
12686TIP3    H259474   5.041   5.091  12.640 -1.1280  1.2172 -1.7759
12687TIP3   OH259475   0.142   1.327   3.258  0.0615 -0.1305 -0.4472
12687TIP3    H159476   0.149   1.413   3.299 -0.4184 -0.7209  0.9079
12687TIP3    H259477   0.072   1.338   3.192  0.5094  0.6942 -0.8011
12688TIP3   OH259478   4.821   1.348  11.874 -0.7501  0.5303 -0.2609
12688TIP3    H159479   4.823   1.268  11.926 -3.1544  1.3171  1.2306
12688TIP3    H259480   4.730   1.377  11.880 -0.4650  2.1802 -2.6580
12689TIP3   OH259481   1.997   4.819   1.244 -0.5003 -0.4538 -0.1627
12689TIP3    H159482   1.990   4.860   1.331 -0.7409  0.0966 -0.4353
12689TIP3    H259483   1.927   4.860   1.193 -0.6039 -1.0568 -0.5108
12690TIP3   OH259484   4.309   0.687   0.824  0.0711  0.0222 -0.2119
12690TIP3    H159485   4.232   0.673   0.769  1.0665  0.4120 -1.7774
12690TIP3    H259486   4.374   0.727   0.765  0.7000  1.8858  1.6149
12691TIP3   OH259487   0.703   2.211  12.325 -0.2091  0.1640  0.2835
12691TIP3    H159488   0.740   2.254  12.248  0.1387  0.1487  0.4359
12691TIP3    H259489   0.738   2.261  12.399 -0.1817 -0.0884  0.4442
12692TIP3   OH259490   0.724   3.849   4.042  0.6665  0.1793  0.0782
12692TIP3    H159491   0.669   3.906   3.988  1.4946 -0.5116 -1.5706
12692TIP3    H259492   0.682   3.849   4.128 -1.6196  0.0577 -0.9822
12693TIP3   OH259493   2.756   6.613  16.984  0.0918  0.5268  0.1869
12693TIP3    H159494   2.723   6.686  17.037  1.2930 -0.7338  2.8262
12693TIP3    H259495   2.772   6.652  16.898 -1.8134  2.7138  0.7205
12694TIP3   OH259496   1.713   2.913   6.523 -0.5140  0.3942 -0.5233
12694TIP3    H159497   1.666   2.839   6.484  1.0644 -1.2896  0.6016
12694TIP3    H259498   1.652   2.950   6.586 -0.7994 -0.9847  0.0380
12695TIP3   OH259499   5.721   6.609  12.775  0.5079  0.2064  0.0864
12695TIP3    H159500   5.692   6.696  12.746  2.2660  0.9776  0.4764
12695TIP3    H259501   5.736   6.619  12.869 -0.8413 -1.0040  0.4531
12696TIP3   OH259502   6.737   0.519  12.343 -0.0954  0.5212  0.5573
12696TIP3    H159503   6.701   0.524  12.432 -1.5146  1.7311 -0.0363
12696TIP3    H259504   6.729   0.608  12.309  0.7060  0.1447 -0.6884
12697TIP3   OH259505   5.162   3.451  14.625 -0.3129 -0.6156  0.3143
12697TIP3    H159506   5.069   3.475  14.619 -0.0443  0.8568  1.3356
12697TIP3    H259507   5.203   3.527  14.666  1.2334 -1.5362  0.5465
12698TIP3   OH259508   6.819   2.525   5.402 -0.0896 -0.0094  0.2326
12698TIP3    H159509   6.756   2.537   5.330  0.3007  0.0433 -0.1050
12698TIP3    H259510   6.874   2.453   5.373  0.6685  0.6298  0.0491
12699TIP3   OH259511   5.442   0.566  16.576  0.2749  0.0285  0.6377
12699TIP3    H159512   5.389   0.553  16.655 -1.9709 -2.3262 -1.0872
12699TIP3    H259513   5.391   0.629  16.524  0.8863  0.2848  0.3486
12700TIP3   OH259514   2.619   2.040   3.963 -0.1953  0.1984 -0.5413
12700TIP3    H159515   2.579   1.990   4.034 -1.1625  1.2395 -0.3142
12700TIP3    H259516   2.554   2.040   3.893  0.4158 -0.1338 -1.1129
12701TIP3   OH259517   0.043   3.762   0.556 -0.0586 -0.0296  0.2946
12701TIP3    H159518  -0.021   3.698   0.527 -2.0423  0.3647  3.3116
12701TIP3    H259519   0.111   3.710   0.599  1.3570 -0.3876 -2.1996
12702TIP3   OH259520   5.861   5.076  11.803  0.6302  0.1962  0.8979
12702TIP3    H159521   5.819   5.057  11.720 -0.6010 -0.2677  1.6017
12702TIP3    H259522   5.950   5.103  11.780 -0.0835  1.3588 -0.6492
12703TIP3   OH259523   2.375   1.961  15.402  0.1938  0.2943  0.3534
12703TIP3    H159524   2.376   1.997  15.313  0.5403 -0.6327 -0.0294
12703TIP3    H259525   2.290   1.987  15.437 -0.2203  0.1169 -0.4833
12704TIP3   OH259526   4.392   3.134  11.160  0.2426 -0.5659 -0.2557
12704TIP3    H159527   4.484   3.155  11.146  0.0807 -0.0895 -0.6493
12704TIP3    H259528   4.345   3.212  11.130 -0.2827 -0.7644  0.0337
12705TIP3   OH259529   1.633   6.496  13.084  0.0922  0.2356 -0.2731
12705TIP3    H159530   1.549   6.451  13.073 -0.6974  1.6263 -0.1534
12705TIP3    H259531   1.639   6.556  13.009  1.0894  0.0071 -0.3967
12706TIP3   OH259532   2.146   3.992   3.595  0.8469 -0.5556  0.5228
12706TIP3    H159533   2.123   4.022   3.682  1.8624  1.7235  0.0837
12706TIP3    H259534   2.070   3.942   3.565 -0.8605  1.3246  1.5004
12707TIP3   OH259535   6.520   6.646   3.057 -0.1177  0.4092  0.0364
12707TIP3    H159536   6.549   6.644   3.148 -1.3546  1.1154  0.4622
12707TIP3    H259537   6.527   6.555   3.028  0.2732  0.1755  0.8312
12708TIP3   OH259538   1.440   1.272  13.363 -0.6034  0.0433  0.3490
12708TIP3    H159539   1.357   1.301  13.327 -0.5925 -3.1800 -2.8894
12708TIP3    H259540   1.432   1.177  13.369  2.4024 -0.2796  1.1604
12709TIP3   OH259541   6.017   6.378   1.314  0.4080 -0.1253 -0.1312
12709TIP3    H159542   5.968   6.431   1.250  0.8891  0.4658 -0.0154
12709TIP3    H259543   5.969   6.295   1.317  1.9021 -1.2698 -3.3442
12710TIP3   OH259544   6.259   3.410  11.577 -0.6300  0.4430  0.4719
12710TIP3    H159545   6.341   3.459  11.573 -0.2394 -0.2674 -0.4892
12710TIP3    H259546   6.192   3.474  11.554 -0.1970  0.6795 -0.1594
12711TIP3   OH259547   3.555   0.697   1.194  0.1835 -0.6037  0.4537
12711TIP3    H159548   3.573   0.742   1.276 -0.1373  0.3108  0.0393
12711TIP3    H259549   3.642   0.675   1.159  0.3927  0.3806  0.3098
12712TIP3   OH259550   3.043   6.362  11.517 -0.3986  0.0134 -0.0365
12712TIP3    H159551   3.072   6.297  11.581  1.8204 -0.9404 -1.8947
12712TIP3    H259552   2.986   6.314  11.458  0.0122  0.1311 -0.5317
12713TIP3   OH259553   1.710   3.546   9.901  0.2235 -0.3425  0.6931
12713TIP3    H159554   1.749   3.504   9.824 -1.8101 -1.2441  0.0837
12713TIP3    H259555   1.688   3.634   9.872 -0.3461 -0.6129  0.2721
12714TIP3   OH259556   4.117   5.524   6.023 -0.1754  0.3100 -0.0231
12714TIP3    H159557   4.127   5.581   6.099 -1.2619 -0.0828  0.4242
12714TIP3    H259558   4.023   5.521   6.007 -0.0375 -0.4409 -0.7417
12715TIP3   OH259559   4.224   2.908   0.642  0.1695 -0.1738  0.0605
12715TIP3    H159560   4.264   2.850   0.578  2.0920 -0.9231  1.8219
12715TIP3    H259561   4.148   2.859   0.674  0.6415 -0.8905  0.1131
12716TIP3   OH259562   0.203   5.705   0.662 -0.2988 -0.1833 -0.1363
12716TIP3    H159563   0.172   5.784   0.616  1.3187  0.3408 -0.3974
12716TIP3    H259564   0.246   5.739   0.741  0.4216 -0.7874 -0.2565
12717TIP3   OH259565   1.677   2.820   3.221 -0.1058 -0.2335 -0.0966
12717TIP3    H159566   1.673   2.893   3.159  1.6895  0.4125  0.4786
12717TIP3    H259567   1.754   2.770   3.194  0.1940 -0.4332  1.0727
12718TIP3   OH259568   5.728   5.846  10.718 -0.2540 -0.1958 -0.1750
12718TIP3    H159569   5.790   5.919  10.711 -0.0893 -0.2943  0.2225
12718TIP3    H259570   5.759   5.796  10.793  0.9162 -1.8933 -1.7222
12719TIP3   OH259571   3.595   2.361  13.154  0.2492 -0.1099  0.1117
12719TIP3    H159572   3.514   2.364  13.103  1.0258 -0.3608 -1.1655
12719TIP3    H259573   3.658   2.411  13.102  0.9219  0.1162  1.1078
12720TIP3   OH259574   4.455   1.623  13.827 -0.0161 -0.6062 -0.2837
12720TIP3    H159575   4.501   1.661  13.752 -0.2747 -0.2966 -0.2890
12720TIP3    H259576   4.515   1.556  13.860  0.7534  0.2723  0.1417
12721TIP3   OH259577   1.759   1.252   1.902  0.3071  0.3357 -0.0879
12721TIP3    H159578   1.793   1.261   1.991 -1.2972 -0.1958  0.6129
12721TIP3    H259579   1.688   1.189   1.910  0.3702  0.0106 -1.8257
12722TIP3   OH259580   0.532   1.786  12.109  0.0604 -0.0147 -0.4653
12722TIP3    H159581   0.554   1.875  12.081  0.1189  0.0198 -0.3133
12722TIP3    H259582   0.460   1.798  12.172 -1.5123 -0.2356 -2.1386
12723TIP3   OH259583   5.813   0.781   3.772  0.2379 -0.0904  0.1424
12723TIP3    H159584   5.891   0.787   3.717 -0.4825  0.7765 -0.8289
12723TIP3    H259585   5.740   0.799   3.712 -0.7643 -1.3606  0.9132
12724TIP3   OH259586   0.559   4.621  13.167  0.4843 -0.2049  0.2753
12724TIP3    H159587   0.469   4.590  13.170 -0.3123  1.8554 -0.5632
12724TIP3    H259588   0.596   4.583  13.087 -0.6471  1.3627 -1.0475
12725TIP3   OH259589   0.221   4.661  11.644 -0.1653 -0.2916 -0.1585
12725TIP3    H159590   0.290   4.721  11.617  0.3276  0.1763  1.9346
12725TIP3    H259591   0.159   4.662  11.572  0.8388  1.1342 -1.0669
12726TIP3   OH259592   0.811   3.041   5.860  0.3517 -0.3484  0.3166
12726TIP3    H159593   0.778   2.986   5.931 -1.7085 -0.0198 -0.3222
12726TIP3    H259594   0.790   3.130   5.886  2.4161  0.0976  0.6830
12727TIP3   OH259595   0.595   2.889  13.482 -0.3976 -0.5789  0.7726
12727TIP3    H159596   0.632   2.804  13.459 -1.7794 -0.9538 -0.2161
12727TIP3    H259597   0.603   2.894  13.577  1.7821 -0.7824  0.6604
12728TIP3   OH259598   2.165   0.004   0.094  0.6607  0.5909  0.2563
12728TIP3    H159599   2.236   0.003   0.031  0.2808 -1.2488 -0.2028
12728TIP3    H259600   2.175   0.087   0.140  1.2352  1.7956 -1.8772
12729TIP3   OH259601   4.646   4.150   2.709  0.2353  0.1267 -0.5708
12729TIP3    H159602   4.736   4.128   2.685  1.1675  0.1604  2.4927
12729TIP3    H259603   4.644   4.246   2.711  0.5082  0.1209  0.5095
12730TIP3   OH259604   6.690   5.706   5.679 -0.0894 -0.6734 -0.4447
12730TIP3    H159605   6.612   5.725   5.626  0.5126  0.6459 -0.9042
12730TIP3    H259606   6.676   5.754   5.761  0.2626 -0.3555 -0.5649
12731TIP3   OH259607   0.671   0.314  16.617 -0.3112  0.0431 -0.5115
12731TIP3    H159608   0.611   0.296  16.689  1.2188  2.3453  1.5052
12731TIP3    H259609   0.728   0.237  16.613 -1.5363 -0.8921 -0.5387
12732TIP3   OH259610   6.224   0.540   1.072  0.0978 -0.1834  0.2041
12732TIP3    H159611   6.315   0.543   1.103 -0.0527 -1.6579  0.8811
12732TIP3    H259612   6.172   0.570   1.147 -0.0294 -0.2136  0.1277
12733TIP3   OH259613   2.979   0.649   4.890 -0.0157  0.7111  0.4678
12733TIP3    H159614   2.964   0.733   4.934  0.1603  1.0544 -0.1201
12733TIP3    H259615   2.890   0.615   4.874 -0.0842  0.7016  0.8584
12734TIP3   OH259616   5.741   4.437  12.215  0.0606  0.2532 -0.0746
12734TIP3    H159617   5.709   4.350  12.192  0.4928  0.1008 -0.1059
12734TIP3    H259618   5.735   4.440  12.311  2.9369 -0.9877  0.2337
12735TIP3   OH259619   5.579   3.394  14.378 -0.1289 -0.4993 -0.2772
12735TIP3    H159620   5.673   3.411  14.381 -0.0576 -0.9977  1.3372
12735TIP3    H259621   5.541   3.460  14.436 -0.7581 -0.4494 -0.7390
12736TIP3   OH259622   6.033   3.436   6.004 -0.2187  0.3269  0.0514
12736TIP3    H159623   6.094   3.460   6.074  0.0094 -0.5302  0.1501
12736TIP3    H259624   6.072   3.473   5.925 -0.4961  1.3364  0.3627
12737TIP3   OH259625   0.608   4.786   0.733  0.1010  0.4829 -0.2270
12737TIP3    H159626   0.682   4.726   0.747 -0.7182 -0.1480  1.7665
12737TIP3    H259627   0.645   4.873   0.748  0.6105  0.2229  0.0622
12738TIP3   OH259628   2.221   4.876   3.417 -0.1120  0.1068 -0.1192
12738TIP3    H159629   2.309   4.838   3.418 -0.6564 -1.1880 -0.3515
12738TIP3    H259630   2.227   4.945   3.350  0.3902 -0.8257 -1.0745
12739TIP3   OH259631   3.198   1.950  15.201  0.5927 -0.4028 -0.3537
12739TIP3    H159632   3.281   1.964  15.156  2.3799 -3.0529  1.7304
12739TIP3    H259633   3.171   1.862  15.173 -0.5336 -0.3098  0.3910
12740TIP3   OH259634   6.530   4.117   3.683  0.1701 -0.5478 -0.0903
12740TIP3    H159635   6.472   4.183   3.720 -0.7550 -1.3416 -0.1088
12740TIP3    H259636   6.477   4.072   3.617  1.2704 -0.2653 -1.2264
12741TIP3   OH259637   3.887   1.803  13.076  0.1214 -0.3755 -0.0496
12741TIP3    H159638   3.883   1.778  12.983  0.2452 -0.2536 -0.0888
12741TIP3    H259639   3.943   1.737  13.116 -3.3532 -3.0677  0.8287
12742TIP3   OH259640   2.898   5.364  14.760  0.0944 -0.4037  0.3830
12742TIP3    H159641   2.960   5.298  14.789 -0.8023 -1.3993  0.1165
12742TIP3    H259642   2.835   5.370  14.832  0.1217  0.1006  0.3666
12743TIP3   OH259643   0.598   4.611   5.538 -0.2912  0.3911  0.3965
12743TIP3    H159644   0.610   4.641   5.448  2.1154 -2.2471 -0.2899
12743TIP3    H259645   0.506   4.584   5.542 -0.2822 -0.0765 -1.4880
12744TIP3   OH259646   2.629   5.499   1.818  0.3260  0.8766  0.1361
12744TIP3    H159647   2.717   5.464   1.826 -0.3051 -1.1495 -1.0251
12744TIP3    H259648   2.617   5.552   1.896  2.1843  0.3438  0.8359
12745TIP3   OH259649   5.778   3.847  14.169 -0.5060  0.4853  0.0876
12745TIP3    H159650   5.803   3.768  14.217 -0.6750  0.7214  0.5758
12745TIP3    H259651   5.709   3.819  14.110 -0.6940  0.3017  0.3932
12746TIP3   OH259652   4.868   4.700   5.347 -0.6250  1.0789 -0.1092
12746TIP3    H159653   4.879   4.679   5.254 -1.5800 -1.7305  0.2947
12746TIP3    H259654   4.934   4.766   5.365  1.8328 -0.6179 -2.0885
12747TIP3   OH259655   2.978   6.578   2.213 -0.4114  0.1068 -0.3522
12747TIP3    H159656   2.981   6.548   2.122 -0.1629 -1.8845  0.2579
12747TIP3    H259657   3.063   6.553   2.249 -1.4943 -1.6823  1.1307
12748TIP3   OH259658   4.226   4.909   0.437 -0.3889 -0.0333 -0.4637
12748TIP3    H159659   4.173   4.937   0.363  0.4454  0.2379 -0.9650
12748TIP3    H259660   4.305   4.871   0.398 -0.0440 -0.1028  0.2791
12749TIP3   OH259661   1.578   2.944  10.949  0.1151  0.0091 -0.0530
12749TIP3    H159662   1.592   2.854  10.977 -1.9305 -0.8096 -1.4210
12749TIP3    H259663   1.594   2.996  11.027 -2.7499 -1.9108  2.0242
12750TIP3   OH259664   5.087   3.712   3.383 -0.0103  0.5449  0.1416
12750TIP3    H159665   5.055   3.713   3.473 -0.5968  0.6361 -0.0591
12750TIP3    H259666   5.063   3.797   3.348  1.4291  1.0294  0.2964
12751TIP3   OH259667   0.298   2.333  13.691 -0.2347  0.3107 -0.5460
12751TIP3    H159668   0.205   2.312  13.704 -0.1017  0.4190  0.7456
12751TIP3    H259669   0.326   2.370  13.775  0.8859  0.6283 -1.0400
12752TIP3   OH259670   0.493   1.392   1.797 -0.0162 -0.0617  0.4338
12752TIP3    H159671   0.479   1.367   1.888 -0.3022  0.0828  0.4335
12752TIP3    H259672   0.461   1.318   1.746  0.5472 -0.3239  0.4565
12753TIP3   OH259673   1.934   1.435  12.797  0.3047  0.2713  0.2077
12753TIP3    H159674   1.936   1.343  12.824  0.3110  0.0904 -0.3935
12753TIP3    H259675   2.020   1.468  12.823  0.2864  0.1224  0.4695
12754TIP3   OH259676   1.193   3.430  14.208  0.2635 -0.1736 -0.2623
12754TIP3    H159677   1.171   3.431  14.301 -0.1699  0.0755 -0.3656
12754TIP3    H259678   1.109   3.434  14.163  0.5074  0.6865 -0.6634
12755TIP3   OH259679   6.441   5.519   3.757 -0.3537  0.2463 -0.2237
12755TIP3    H159680   6.417   5.606   3.789 -0.4239  0.8623 -1.8184
12755TIP3    H259681   6.376   5.460   3.795 -1.7038  1.2370 -0.8938
12756TIP3   OH259682   5.441   2.842   5.756  0.1092  0.6306 -0.4312
12756TIP3    H159683   5.485   2.762   5.784  1.1370  0.2668 -2.8280
12756TIP3    H259684   5.511   2.906   5.747 -0.4206  1.2112 -0.4906
12757TIP3   OH259685   0.190   6.005  14.932 -0.3557  1.1958  0.1891
12757TIP3    H159686   0.241   6.067  14.983 -0.4039  3.5889 -2.4229
12757TIP3    H259687   0.250   5.974  14.864 -0.8148 -0.3867  0.4736
12758TIP3   OH259688   4.271   0.013   3.046  0.3862  0.2850  0.9796
12758TIP3    H159689   4.292  -0.030   2.964  0.7633  0.4730  0.9745
12758TIP3    H259690   4.184   0.050   3.033  0.5759  0.5861  0.5520
12759TIP3   OH259691   3.910   5.729   3.716 -0.1349 -0.5844  0.0156
12759TIP3    H159692   3.940   5.807   3.670 -3.3330  0.7740  0.0160
12759TIP3    H259693   3.926   5.657   3.654 -0.2862  0.5621 -1.4024
12760TIP3   OH259694   2.879   4.890   0.534  0.0459  0.4905 -0.8849
12760TIP3    H159695   2.870   4.985   0.538  0.0884  0.4437  2.2523
12760TIP3    H259696   2.971   4.876   0.512  0.6230  1.2591  0.8504
12761TIP3   OH259697   1.467   2.574   3.363  0.5425  0.5369  0.0461
12761TIP3    H159698   1.404   2.618   3.306  0.7064  0.0195 -0.5469
12761TIP3    H259699   1.540   2.550   3.305  1.4240  1.3860  0.7772
12762TIP3   OH259700   2.835   3.545  15.358 -0.2610 -0.4468 -0.4588
12762TIP3    H159701   2.909   3.526  15.300 -0.2923  0.4355 -0.7992
12762TIP3    H259702   2.859   3.502  15.441  0.4774 -0.4556 -0.6645
12763TIP3   OH259703   6.526   6.133   4.991  0.2768  0.2215  0.3647
12763TIP3    H159704   6.600   6.188   5.018  0.3191  0.6649 -0.6139
12763TIP3    H259705   6.557   6.043   5.007  0.7805  0.4231  0.5542
12764TIP3   OH259706   5.822   3.478   1.368 -0.0710  0.1890  0.8677
12764TIP3    H159707   5.772   3.535   1.311 -0.7070 -0.6644  0.5485
12764TIP3    H259708   5.781   3.488   1.454  0.4410  0.9444  1.0276
12765TIP3   OH259709   6.386   0.305  14.887  0.0809  0.7422  0.1605
12765TIP3    H159710   6.396   0.333  14.796  1.1185  2.6936  0.8080
12765TIP3    H259711   6.316   0.240  14.885  0.1106  0.7085 -2.0235
12766TIP3   OH259712   3.256   4.072  13.232  0.1505  0.3155 -0.2113
12766TIP3    H159713   3.338   4.056  13.278  0.2859 -1.1790 -0.9179
12766TIP3    H259714   3.281   4.112  13.149  0.2263 -0.6764 -0.6765
12767TIP3   OH259715   5.687   5.535  16.400 -0.2448 -0.0441  0.1398
12767TIP3    H159716   5.677   5.618  16.448 -0.6884  0.8884 -1.4782
12767TIP3    H259717   5.782   5.526  16.388 -0.2489  1.1939 -1.1752
12768TIP3   OH259718   5.665   5.537  15.184  0.4958 -0.8061  0.0979
12768TIP3    H159719   5.713   5.573  15.110  2.3857  0.9525  2.0139
12768TIP3    H259720   5.732   5.496  15.239 -0.2206  0.8381  2.3837
12769TIP3   OH259721   2.404   1.759   5.662 -0.2089  0.2026  0.0318
12769TIP3    H159722   2.451   1.675   5.664  0.5420  0.6017 -0.4309
12769TIP3    H259723   2.456   1.816   5.719  0.2930  0.8571 -1.0625
12770TIP3   OH259724   5.945   2.467  16.413 -0.2643 -0.0441 -0.1062
12770TIP3    H159725   5.974   2.481  16.503 -0.5143  0.1278 -0.0531
12770TIP3    H259726   5.855   2.499  16.411 -0.3389 -0.2678 -0.3587
12771TIP3   OH259727   1.093   6.029  11.428 -0.5857  0.7738 -0.2170
12771TIP3    H159728   1.151   6.079  11.371  0.2952  0.4689  0.3881
12771TIP3    H259729   1.084   6.083  11.506 -0.2070  0.3180  0.1466
12772TIP3   OH259730   2.181   4.853   1.027  0.0515  0.9149  0.8218
12772TIP3    H159731   2.242   4.922   1.054 -1.0978  1.3476  2.4332
12772TIP3    H259732   2.109   4.858   1.090 -0.4261 -1.2755  0.5298
12773TIP3   OH259733   5.195   5.845  15.986 -0.0024  0.9037 -0.0345
12773TIP3    H159734   5.217   5.936  16.004  0.6058  0.5512  1.1641
12773TIP3    H259735   5.252   5.820  15.913  1.9866  0.6864  1.5002
12774TIP3   OH259736   1.758   6.833   4.159 -0.3937 -0.2234  0.2171
12774TIP3    H159737   1.822   6.763   4.143  0.9237  1.2274 -1.2192
12774TIP3    H259738   1.732   6.820   4.251  2.0370 -0.8434  0.8975
12775TIP3   OH259739   6.588   2.640   2.212 -0.1003 -0.2826  0.0335
12775TIP3    H159740   6.573   2.550   2.241 -0.4788 -0.2717 -0.1331
12775TIP3    H259741   6.501   2.675   2.192  0.0279  0.1722  0.2466
12776TIP3   OH259742   2.034   4.368  13.992  0.3156 -0.2245 -0.0781
12776TIP3    H159743   2.119   4.325  13.998 -1.1892 -3.4663  0.2743
12776TIP3    H259744   1.999   4.341  13.907 -1.0777 -0.5278  0.5580
12777TIP3   OH259745   2.721   0.733   4.186  0.1769  0.0779  0.4207
12777TIP3    H159746   2.647   0.690   4.143 -0.0959 -0.1036  1.0729
12777TIP3    H259747   2.795   0.717   4.127  0.5783 -3.0513  1.5623
12778TIP3   OH259748   3.803   2.681  11.770 -0.3585  0.0338 -0.1019
12778TIP3    H159749   3.817   2.642  11.857  0.3221  1.3414  0.4072
12778TIP3    H259750   3.712   2.660  11.749 -0.3856 -0.7368  0.6991
12779TIP3   OH259751   5.148   2.875  15.220  0.0612 -0.1353 -0.1116
12779TIP3    H159752   5.205   2.864  15.145  1.1011  0.9787  0.4721
12779TIP3    H259753   5.064   2.903  15.183 -0.3429 -2.3675 -1.0202
12780TIP3   OH259754   1.350   5.425  16.762 -0.2840 -0.0644  0.8529
12780TIP3    H159755   1.377   5.516  16.751 -1.3029  0.2855  1.1246
12780TIP3    H259756   1.430   5.378  16.786  0.1613  0.8425  1.1568
12781TIP3   OH259757   5.332   4.234   3.382 -0.7477 -0.1218  0.7607
12781TIP3    H159758   5.322   4.215   3.475 -0.6344  2.7272  1.4345
12781TIP3    H259759   5.427   4.230   3.367 -0.8090 -1.1997  0.5874
12782TIP3   OH259760   0.643   3.762  11.586  0.3148 -0.5037 -0.2318
12782TIP3    H159761   0.694   3.691  11.626  1.1482 -0.2053 -0.7276
12782TIP3    H259762   0.562   3.720  11.558  0.8290 -1.2951 -0.5948
12783TIP3   OH259763   2.294   2.986   5.092  0.3096  0.1034 -0.0856
12783TIP3    H159764   2.300   2.939   5.175  1.2470 -1.5256 -1.0131
12783TIP3    H259765   2.384   3.013   5.075  0.6444 -1.8276 -1.7538
12784TIP3   OH259766   1.342   4.637  12.565 -0.2287  0.5229  0.2953
12784TIP3    H159767   1.352   4.717  12.616  1.0792 -0.5728  1.8435
12784TIP3    H259768   1.432   4.605  12.554 -0.7340 -0.7144 -0.3339
12785TIP3   OH259769   5.665   4.565   4.383 -0.3583 -0.0351  0.2011
12785TIP3    H159770   5.677   4.563   4.288  0.5283  1.4156  0.2586
12785TIP3    H259771   5.575   4.535   4.397 -0.6990  0.3214 -1.1401
12786TIP3   OH259772   1.279   5.825   2.293  0.1473 -0.0432 -0.0125
12786TIP3    H159773   1.256   5.733   2.306  0.2815  0.0266  0.7826
12786TIP3    H259774   1.345   5.843   2.360 -0.7770  0.9535  0.6604
12787TIP3   OH259775   1.997   2.503  14.324 -0.3369  0.7558 -0.4605
12787TIP3    H159776   1.994   2.429  14.263 -0.8188  0.9096 -0.6285
12787TIP3    H259777   1.973   2.466  14.409  0.9007  0.4258 -0.2384
12788TIP3   OH259778   1.970   1.513   0.806 -0.1895 -0.0034 -0.0656
12788TIP3    H159779   2.031   1.440   0.822 -0.9131 -0.3179  1.4928
12788TIP3    H259780   1.900   1.475   0.753  1.0071  0.4015 -2.0122
12789TIP3   OH259781   0.455   0.672   3.153  0.4848 -0.0233 -0.0265
12789TIP3    H159782   0.388   0.618   3.112 -0.1688  0.8380 -0.1087
12789TIP3    H259783   0.536   0.646   3.109 -0.1283  0.5322 -1.5445
12790TIP3   OH259784   5.751   0.360  16.994 -0.0705 -0.1577 -0.4360
12790TIP3    H159785   5.800   0.292  16.949  0.0463 -1.2955  1.3413
12790TIP3    H259786   5.812   0.395  17.059 -0.9723 -0.2121  0.4604
12791TIP3   OH259787   5.512   6.148  12.533  0.2574 -0.5041 -0.3061
12791TIP3    H159788   5.559   6.190  12.460  0.8557 -0.7397 -0.0561
12791TIP3    H259789   5.432   6.115  12.493  0.7343 -0.9305 -0.9371
12792TIP3   OH259790   1.161   2.027   0.367  0.0353  0.1264  0.8179
12792TIP3    H159791   1.154   2.039   0.462  1.7230  0.0947  0.9740
12792TIP3    H259792   1.104   2.095   0.330  1.4984  2.0166  1.8346
12793TIP3   OH259793   5.841   6.182   5.674  1.0525  0.2250  0.3529
12793TIP3    H159794   5.860   6.192   5.768  1.0955  1.6515  0.2178
12793TIP3    H259795   5.746   6.185   5.668  1.0356 -0.2060  0.3777
12794TIP3   OH259796   0.287   4.594  15.594 -0.2501 -0.1606 -0.3464
12794TIP3    H159797   0.312   4.524  15.654  1.7381  0.0560 -0.8583
12794TIP3    H259798   0.256   4.549  15.516 -2.6734 -0.4433  0.6981
12795TIP3   OH259799   3.870   0.142  13.123  0.1124  0.5036  0.0723
12795TIP3    H159800   3.780   0.127  13.095  1.2475  0.3876 -4.1633
12795TIP3    H259801   3.893   0.227  13.084  2.0554  0.1621  0.4004
12796TIP3   OH259802   0.409   4.472   4.861 -0.2098 -0.1255  0.3094
12796TIP3    H159803   0.391   4.558   4.900 -0.4234 -0.3356  0.6703
12796TIP3    H259804   0.330   4.421   4.876 -0.8999  0.2629 -1.7131
12797TIP3   OH259805   0.779   3.248  11.693 -0.0334  0.3654 -0.1316
12797TIP3    H159806   0.744   3.184  11.631  0.4577  1.4868 -1.6517
12797TIP3    H259807   0.722   3.242  11.769 -1.0972 -0.6049 -0.9635
12798TIP3   OH259808   3.384   0.199   4.964  0.3257  0.4208 -0.0042
12798TIP3    H159809   3.421   0.139   5.030  1.6629 -0.5706 -1.5775
12798TIP3    H259810   3.313   0.149   4.924 -0.3580  0.9534  0.5031
12799TIP3   OH259811   1.188   1.338  10.892 -0.2008  0.1172 -0.2456
12799TIP3    H159812   1.129   1.376  10.828 -0.0626  0.0193 -0.4311
12799TIP3    H259813   1.144   1.351  10.976 -0.0123  0.9853 -0.2654
12800TIP3   OH259814   1.473   4.782   2.550 -0.4402  0.2432 -0.1217
12800TIP3    H159815   1.527   4.736   2.486  1.0401 -0.1677  1.3570
12800TIP3    H259816   1.432   4.853   2.501 -2.1697 -2.0671 -2.3100
12801TIP3   OH259817   6.572   3.124  15.290  0.6394 -0.5527  0.6084
12801TIP3    H159818   6.483   3.121  15.326  0.8503  1.0318  1.3730
12801TIP3    H259819   6.566   3.078  15.207 -0.6209 -1.4998  1.1790
12802TIP3   OH259820   0.715   1.029   1.366  0.1769  0.1997  0.2905
12802TIP3    H159821   0.760   1.106   1.401  3.1705 -1.0853 -0.4273
12802TIP3    H259822   0.695   1.052   1.275  0.7870  0.2354  0.1652
12803TIP3   OH259823   1.204   3.020   3.225 -0.2376  0.0471  0.1857
12803TIP3    H159824   1.203   2.928   3.253 -1.0012  0.1387  0.4736
12803TIP3    H259825   1.261   3.021   3.148  1.5814 -0.2759  1.4707
12804TIP3   OH259826   0.220   6.276   4.660 -0.3056  0.2236  0.1223
12804TIP3    H159827   0.221   6.233   4.575  3.9584 -0.6127  0.3348
12804TIP3    H259828   0.287   6.230   4.711 -0.4949  2.6471  2.8537
12805TIP3   OH259829   6.367   5.330   6.086  1.0692  0.1311  0.5273
12805TIP3    H159830   6.274   5.308   6.090  1.4006 -1.5627 -0.3236
12805TIP3    H259831   6.370   5.405   6.026  0.1166  1.2139  1.7857
12806TIP3   OH259832   6.682   4.371  13.296 -0.2615 -0.0324  0.0190
12806TIP3    H159833   6.617   4.433  13.265  1.6591  1.3010 -1.5288
12806TIP3    H259834   6.662   4.290  13.250 -2.1790 -0.3669  1.3145
12807TIP3   OH259835   4.909   6.536  11.533 -0.3499 -0.2519 -0.4378
12807TIP3    H159836   4.844   6.522  11.602  1.9854 -0.0785  1.9675
12807TIP3    H259837   4.895   6.626  11.504 -1.3416 -0.3146 -0.1971
12808TIP3   OH259838   2.442   4.808  13.408  0.3314 -0.1904  0.0297
12808TIP3    H159839   2.519   4.795  13.353  0.4197  1.1677 -0.2118
12808TIP3    H259840   2.368   4.799  13.348  0.4706  3.0216 -0.7987
12809TIP3   OH259841   3.521   1.868   4.120 -0.2913 -0.0364  0.6860
12809TIP3    H159842   3.511   1.773   4.117  0.4771 -0.1393  1.1822
12809TIP3    H259843   3.498   1.892   4.210 -0.0939  0.2005  0.6740
12810TIP3   OH259844   1.640   5.815   4.453 -0.2255 -0.0383 -0.0518
12810TIP3    H159845   1.656   5.727   4.419  0.7381  0.7426 -1.7919
12810TIP3    H259846   1.726   5.847   4.480 -0.2128  1.0015 -1.1813
12811TIP3   OH259847   1.622   5.033  13.749 -0.5939  0.2237  0.3995
12811TIP3    H159848   1.546   5.090  13.735  0.5601  1.3433 -1.9223
12811TIP3    H259849   1.694   5.093  13.767  0.1730 -0.6728  0.3971
12812TIP3   OH259850   3.808   5.691   2.875 -0.3763  0.0389 -0.7246
12812TIP3    H159851   3.766   5.622   2.824 -1.6604  0.2456  0.0038
12812TIP3    H259852   3.735   5.744   2.908  0.5321  1.0869 -0.3518
12813TIP3   OH259853   0.862   5.556  16.624  0.1001 -0.3167  0.7452
12813TIP3    H159854   0.783   5.603  16.597 -0.5038 -1.3443  0.6797
12813TIP3    H259855   0.926   5.625  16.642 -1.0157  0.5666  1.4451
12814TIP3   OH259856   4.793   6.186   1.089 -0.1276 -0.1790  0.0064
12814TIP3    H159857   4.808   6.140   1.006  0.3875  0.2632 -0.1478
12814TIP3    H259858   4.733   6.257   1.066  1.0011  0.7028 -0.2374
12815TIP3   OH259859   0.001   0.168  12.191 -0.0335 -0.8465 -0.3698
12815TIP3    H159860   0.084   0.128  12.162  0.2351 -0.0654 -0.7109
12815TIP3    H259861   0.026   0.225  12.263  0.0544  0.8230 -1.6441
12816TIP3   OH259862   0.072   1.870   6.481 -1.1631  0.0484  0.3504
12816TIP3    H159863   0.032   1.800   6.533 -0.7410  0.7704  1.6869
12816TIP3    H259864  -0.000   1.929   6.459 -1.3260 -0.2163  0.1660
12817TIP3   OH259865   1.813   6.468   5.751 -0.2714  0.4547  0.5878
12817TIP3    H159866   1.732   6.500   5.711 -0.0921  0.5218  0.2806
12817TIP3    H259867   1.796   6.473   5.845 -1.0092 -0.4989  0.5263
12818TIP3   OH259868   5.761   4.727  15.999  0.2670  0.0211  0.0710
12818TIP3    H159869   5.671   4.752  15.977 -0.3134 -0.2502  1.9733
12818TIP3    H259870   5.763   4.632  15.986  0.0430 -0.0819  0.7625
12819TIP3   OH259871   0.010   6.438   3.842  0.3254 -0.0121  0.3431
12819TIP3    H159872  -0.028   6.415   3.926  2.1958 -0.4477  1.1282
12819TIP3    H259873   0.090   6.487   3.864  1.6047 -1.3338 -1.0976
12820TIP3   OH259874   2.621   3.393  16.801  0.2027 -0.5444  0.1819
12820TIP3    H159875   2.698   3.399  16.857  0.2265 -0.6705  0.1634
12820TIP3    H259876   2.598   3.483  16.781  1.1098 -0.5164 -0.8596
12821TIP3   OH259877   6.678   6.375  10.356  0.0188  0.0714  0.1116
12821TIP3    H159878   6.696   6.384  10.450  0.8429  0.9462 -0.1064
12821TIP3    H259879   6.584   6.390  10.347  0.0902  0.9274  0.7036
12822TIP3   OH259880   2.657   2.446  11.172 -0.0985  0.2348  0.1107
12822TIP3    H159881   2.607   2.437  11.253 -0.7672  0.9648 -0.2018
12822TIP3    H259882   2.635   2.367  11.122  0.1456 -0.1122  0.5492
12823TIP3   OH259883   5.266   6.373   9.756 -0.2783 -0.2979  0.4450
12823TIP3    H159884   5.216   6.455   9.752  0.9146  0.4336 -0.3204
12823TIP3    H259885   5.209   6.307   9.717 -1.3458  0.1071  1.2720
12824TIP3   OH259886   3.156   5.481  12.808  0.9229  0.3353  0.4737
12824TIP3    H159887   3.162   5.416  12.877 -0.7039 -1.5165 -0.9971
12824TIP3    H259888   3.239   5.475  12.761  1.0701 -0.1630  0.7918
12825TIP3   OH259889   4.125   5.785   2.729  0.5416  0.7183  0.2971
12825TIP3    H159890   4.200   5.843   2.743  0.6092  0.5252  0.7505
12825TIP3    H259891   4.149   5.703   2.773 -0.2757  0.9245  1.1568
12826TIP3   OH259892   6.664   6.663  14.663  0.1627 -0.1799  0.1075
12826TIP3    H159893   6.647   6.659  14.569 -3.1568  3.4866  0.2932
12826TIP3    H259894   6.599   6.605  14.702 -0.0383  0.1097  0.2075
12827TIP3   OH259895   0.658   0.831  15.382  0.2600  0.1346 -0.2049
12827TIP3    H159896   0.600   0.858  15.452 -0.1901  1.2789 -0.9807
12827TIP3    H259897   0.614   0.758  15.340 -1.1069  1.5124 -1.3176
12828TIP3   OH259898   2.793   3.739  12.668  0.2343 -0.0946 -0.2246
12828TIP3    H159899   2.729   3.747  12.598  0.1373 -2.5614 -0.5104
12828TIP3    H259900   2.873   3.776  12.632 -0.3408  0.5853 -0.8364
12829TIP3   OH259901   5.740   0.221  13.676 -0.8380  0.1153  0.0658
12829TIP3    H159902   5.718   0.191  13.764 -0.8227 -0.9490 -0.2786
12829TIP3    H259903   5.657   0.223  13.629 -0.5847 -1.4044 -0.4943
12830TIP3   OH259904   1.004   6.790  16.298  0.3038 -0.8726 -0.1750
12830TIP3    H159905   0.923   6.742  16.315 -0.1481  0.7452  3.0675
12830TIP3    H259906   0.976   6.870  16.254 -0.0236 -0.0306  1.4867
12831TIP3   OH259907   1.364   3.993  12.984 -0.1434 -0.8441 -0.1465
12831TIP3    H159908   1.312   3.924  13.024  0.6695  0.1276  2.8387
12831TIP3    H259909   1.420   3.947  12.921 -0.1417 -2.8169  1.2069
12832TIP3   OH259910   0.149   6.640  13.528 -0.1297  0.6930  0.3113
12832TIP3    H159911   0.211   6.712  13.534  0.1794  0.8097 -2.8956
12832TIP3    H259912   0.199   6.562  13.552  0.4502  1.1405  0.5536
12833TIP3   OH259913   0.471   5.403   2.977  0.3910  0.2651  0.0366
12833TIP3    H159914   0.406   5.472   2.968  0.0354  0.0130  0.5917
12833TIP3    H259915   0.421   5.322   2.968  0.5393  0.0632  0.9227
12834TIP3   OH259916   5.620   3.877   0.942 -0.1002 -0.6764 -0.5233
12834TIP3    H159917   5.546   3.923   0.901 -0.7530 -0.5876  0.6834
12834TIP3    H259918   5.601   3.881   1.036  2.2720  0.7720 -0.0253
12835TIP3   OH259919   3.408   2.701  12.963  0.1237  0.2746  0.4684
12835TIP3    H159920   3.503   2.684  12.967  0.2964  0.5379 -1.4187
12835TIP3    H259921   3.377   2.687  13.053  1.9314  0.0884  1.1073
12836TIP3   OH259922   6.465   4.511  15.431  0.4404  0.1574  0.0136
12836TIP3    H159923   6.467   4.457  15.352 -0.7142  0.6573 -0.3831
12836TIP3    H259924   6.465   4.601  15.400  1.6752  0.3972  0.6520
12837TIP3   OH259925   1.398   1.282  15.881  0.4110  0.0266  0.3515
12837TIP3    H159926   1.421   1.206  15.828  0.6466  0.0840  0.3696
12837TIP3    H259927   1.334   1.330  15.827  0.0381 -0.3371  0.4691
12838TIP3   OH259928   1.935   4.353   3.894  0.0212  0.3969 -0.3403
12838TIP3    H159929   1.919   4.434   3.942  0.7824  1.1117 -1.2452
12838TIP3    H259930   1.899   4.285   3.949 -1.4074  1.4326  0.0576
12839TIP3   OH259931   1.382   5.071   5.150  0.1644  0.2453 -0.0196
12839TIP3    H159932   1.390   5.057   5.244 -0.7201 -0.0662  0.0203
12839TIP3    H259933   1.470   5.096   5.121  0.8701 -1.4076  0.5872
12840TIP3   OH259934   2.406   3.687  16.125 -0.2121  0.4352 -0.4839
12840TIP3    H159935   2.387   3.696  16.218  1.3340  0.5107 -0.1523
12840TIP3    H259936   2.438   3.772  16.098 -2.1530  0.9045 -1.5064
12841TIP3   OH259937   5.834   3.489   2.501  0.8766 -0.3453 -0.6247
12841TIP3    H159938   5.930   3.496   2.507  0.8470 -0.5694  0.3679
12841TIP3    H259939   5.808   3.453   2.586 -0.3922  2.7523  0.4172
12842TIP3   OH259940   3.622   6.529   4.658 -0.3633 -0.2636  0.0091
12842TIP3    H159941   3.624   6.620   4.687 -0.6929 -0.0084 -0.7400
12842TIP3    H259942   3.535   6.497   4.680  0.2218 -0.8676  1.6043
12843TIP3   OH259943   0.772   1.716  10.405 -0.6467  0.2776  0.1631
12843TIP3    H159944   0.709   1.782  10.434  0.6606  1.2469  0.9195
12843TIP3    H259945   0.799   1.744  10.318 -2.1730 -0.8602 -0.7324
12844TIP3   OH259946   5.913   5.063  15.370  0.5771 -0.0206  0.7792
12844TIP3    H159947   5.960   5.146  15.362  0.2760 -0.0001 -1.1391
12844TIP3    H259948   5.898   5.035  15.280 -0.1092 -1.7238  1.3891
12845TIP3   OH259949   5.907   1.711  14.519  0.2056 -0.2204  0.2462
12845TIP3    H159950   5.868   1.686  14.436  1.3683 -0.7180 -0.1648
12845TIP3    H259951   5.938   1.629  14.557 -0.5821 -0.0401  1.3225
12846TIP3   OH259952   1.447   5.078   3.994 -0.2277  0.2866  0.0355
12846TIP3    H159953   1.513   5.040   3.937  0.5756  1.2937  0.2661
12846TIP3    H259954   1.410   5.004   4.041  0.0704 -0.3941 -0.7854
12847TIP3   OH259955   4.795   2.190  11.219 -0.0158 -0.1541  0.0041
12847TIP3    H159956   4.746   2.153  11.145  0.7844  1.0927 -1.2012
12847TIP3    H259957   4.849   2.259  11.180 -0.1788  1.1092  1.8912
12848TIP3   OH259958   5.047   1.703   5.541 -0.7924  0.3141  0.6114
12848TIP3    H159959   5.042   1.645   5.466 -0.1878  1.1162 -0.0689
12848TIP3    H259960   4.960   1.700   5.580 -1.5060  0.8908 -0.8952
12849TIP3   OH259961   3.871   0.262  12.484 -0.7546 -0.1319 -0.4739
12849TIP3    H159962   3.896   0.238  12.573  0.7135  0.6138 -0.6558
12849TIP3    H259963   3.944   0.232  12.429 -1.6277 -0.5582 -1.4316
12850TIP3   OH259964   2.674   0.948   0.783 -0.3282 -0.3467  0.4016
12850TIP3    H159965   2.597   0.996   0.812 -1.0802 -1.6622  0.6412
12850TIP3    H259966   2.748   1.003   0.811 -1.1542  1.6095 -1.0611
12851TIP3   OH259967   3.053   4.935   3.470 -0.5534 -0.1934 -0.1958
12851TIP3    H159968   3.112   5.002   3.435  0.0238 -1.0203 -0.8428
12851TIP3    H259969   3.081   4.924   3.561  2.3169 -2.6522 -1.2350
12852TIP3   OH259970   2.626   1.406  12.931 -0.7142 -0.0073  0.5658
12852TIP3    H159971   2.669   1.414  12.846 -1.5806  0.9349  0.1886
12852TIP3    H259972   2.558   1.340  12.918  0.8875 -1.9170  1.3135
12853TIP3   OH259973   1.086   1.191   2.230 -0.4402 -0.5622 -0.3355
12853TIP3    H159974   1.088   1.270   2.284  0.3885  0.8699 -2.3438
12853TIP3    H259975   1.034   1.128   2.281  0.3287  0.6511  2.1141
12854TIP3   OH259976   1.781   6.534  16.509  0.2000 -0.4354 -0.0439
12854TIP3    H159977   1.756   6.623  16.532 -0.4937 -0.2710 -1.3376
12854TIP3    H259978   1.861   6.518  16.558  0.3428  0.8980  0.1946
12855TIP3   OH259979   6.075   1.728  11.810  0.6419 -0.2116 -0.6939
12855TIP3    H159980   6.104   1.763  11.895 -0.5404 -1.4101  0.2561
12855TIP3    H259981   6.085   1.800  11.749  1.0190  0.8550  0.5907
12856TIP3   OH259982   3.914   4.888  10.133  0.0945 -0.3154  0.4832
12856TIP3    H159983   3.930   4.793  10.129 -0.5198 -0.4084  0.1248
12856TIP3    H259984   3.821   4.896  10.154  0.1601  0.2137  0.5844
12857TIP3   OH259985   6.212   3.640   4.870 -0.4304  0.7105 -0.1888
12857TIP3    H159986   6.221   3.568   4.808 -0.4144 -0.4497  1.1187
12857TIP3    H259987   6.129   3.625   4.914 -0.1269  1.1134  0.5573
12858TIP3   OH259988   3.555   0.973  15.946 -0.0611 -0.2766  0.2564
12858TIP3    H159989   3.644   0.976  15.982  0.3605 -2.4789 -0.4198
12858TIP3    H259990   3.566   0.996  15.854 -0.2414 -0.2191  0.2494
12859TIP3   OH259991   3.597   4.561   2.599 -0.2103 -0.2879 -0.2411
12859TIP3    H159992   3.607   4.466   2.604  0.4994 -0.3799 -2.3318
12859TIP3    H259993   3.686   4.594   2.584  0.0540  1.0418  3.3369
12860TIP3   OH259994   5.178   0.432   5.292  0.1142 -0.8275 -0.4952
12860TIP3    H159995   5.151   0.347   5.258 -1.1483 -0.6319 -0.0294
12860TIP3    H259996   5.116   0.451   5.362  0.3739  0.4735 -0.5872
12861TIP3   OH259997   2.637   4.426   1.605  0.6302 -0.3938  0.2015
12861TIP3    H159998   2.710   4.401   1.549  0.3355  0.8147 -0.7615
12861TIP3    H259999   2.559   4.416   1.550  0.6027  4.5524 -1.1563
12862TIP3   OH260000   0.327   4.649  14.735  0.6718  0.4010 -0.3299
12862TIP3    H160001   0.288   4.579  14.682 -1.2972  0.0755  1.4252
12862TIP3    H260002   0.417   4.619  14.751 -0.0442 -1.6752  0.1939
12863TIP3   OH260003   5.217   5.996   1.179 -0.0734 -0.3708 -0.1670
12863TIP3    H160004   5.127   5.963   1.168 -0.7009  0.9390  0.7579
12863TIP3    H260005   5.272   5.920   1.160 -1.3689 -1.1687 -0.9094
12864TIP3   OH260006   0.749   5.499  15.864  0.1846  0.0387  0.2310
12864TIP3    H160007   0.702   5.487  15.946 -2.1441  3.5178 -0.3859
12864TIP3    H260008   0.689   5.468  15.797 -0.7557  3.0218 -0.4624
12865TIP3   OH260009   4.234   3.345   3.647 -0.2388 -0.1247  0.8670
12865TIP3    H160010   4.205   3.332   3.737  1.5973 -0.0730  1.4963
12865TIP3    H260011   4.178   3.415   3.614 -0.6272  0.1805  2.1226
12866TIP3   OH260012   5.384   6.467   4.208  0.2782 -0.6493  0.0623
12866TIP3    H160013   5.334   6.540   4.172  2.0348  0.6034  0.0802
12866TIP3    H260014   5.432   6.504   4.282  0.4600 -2.0585  0.6844
12867TIP3   OH260015   4.469   6.566  14.730 -0.5452  0.2656 -0.1603
12867TIP3    H160016   4.420   6.487  14.707 -1.7327  1.2259 -1.0450
12867TIP3    H260017   4.487   6.557  14.824  0.3235 -1.5530 -0.4554
12868TIP3   OH260018   1.037   3.239  13.566 -0.2289  0.4870  0.2854
12868TIP3    H160019   1.099   3.204  13.502 -0.3866  0.0818  0.3552
12868TIP3    H260020   1.038   3.333  13.549  0.2349  0.4626  0.1341
12869TIP3   OH260021   2.344   5.020   1.158  0.5582 -0.0631 -0.5326
12869TIP3    H160022   2.342   5.115   1.168  0.0850 -0.0312 -0.8892
12869TIP3    H260023   2.407   4.990   1.223 -1.9944  0.1492  2.2348
12870TIP3   OH260024   2.344   2.139   0.303  0.3616 -0.3962  0.5359
12870TIP3    H160025   2.366   2.194   0.378 -2.1408  3.4070 -1.2098
12870TIP3    H260026   2.404   2.167   0.234 -1.4673  0.8385 -0.6141
12871TIP3   OH260027   5.109   1.224   2.775  0.2555 -0.7403 -0.2258
12871TIP3    H160028   5.142   1.282   2.707 -1.5887  1.4472  0.6080
12871TIP3    H260029   5.019   1.206   2.750 -0.1619 -0.6418  1.1247
12872TIP3   OH260030   3.803   5.798   1.207  0.3856  0.2260  0.4007
12872TIP3    H160031   3.836   5.868   1.264  1.6416 -0.8269  1.0368
12872TIP3    H260032   3.846   5.812   1.123 -0.9106  1.3552 -0.1135
12873TIP3   OH260033   0.375   2.829   2.099  0.2016  0.2870  0.2302
12873TIP3    H160034   0.301   2.772   2.117  0.0509 -0.0685 -1.4327
12873TIP3    H260035   0.416   2.843   2.185 -1.2361 -0.2435  1.0258
12874TIP3   OH260036   3.939   6.107  12.734 -0.0724 -0.1906  0.0265
12874TIP3    H160037   3.983   6.097  12.818  0.0196 -2.2259 -0.2192
12874TIP3    H260038   4.005   6.085  12.669 -0.1174  1.4496 -0.6308
12875TIP3   OH260039   0.024   4.127   0.047 -0.0940  0.3273 -0.1661
12875TIP3    H160040   0.065   4.212   0.063 -0.5290  0.1381  2.3452
12875TIP3    H260041   0.097   4.070   0.022  0.9696  0.4344  2.4371
12876TIP3   OH260042   0.846   4.945  13.648  0.0406  0.2848  0.0724
12876TIP3    H160043   0.827   4.993  13.728 -0.8409  0.1778 -0.0644
12876TIP3    H260044   0.908   4.877  13.675  2.7306  2.5090 -0.0546
12877TIP3   OH260045   1.647   2.423  16.064 -0.3025 -0.1890 -0.3170
12877TIP3    H160046   1.730   2.402  16.107 -0.8878 -0.1337  0.8873
12877TIP3    H260047   1.669   2.430  15.971  1.6763  2.7559  0.2140
12878TIP3   OH260048   2.213   2.457   2.113 -0.2952  0.3308 -0.9768
12878TIP3    H160049   2.280   2.389   2.103 -0.0565  0.6171 -1.3639
12878TIP3    H260050   2.251   2.534   2.070  0.2058  1.2563  0.9827
12879TIP3   OH260051   3.802   3.086  11.369  0.4456  0.3975 -0.0879
12879TIP3    H160052   3.783   3.177  11.391  1.1511  0.9790 -1.7407
12879TIP3    H260053   3.872   3.091  11.304  1.0673 -1.3688  0.4066
12880TIP3   OH260054   2.663   2.236   0.724  0.2196 -0.1757  0.1168
12880TIP3    H160055   2.593   2.276   0.776  1.7647  0.3512  1.8863
12880TIP3    H260056   2.719   2.193   0.788  0.6551 -2.0061 -1.4219
12881TIP3   OH260057   2.694   2.805   1.904  0.4731  0.0146 -0.5734
12881TIP3    H160058   2.761   2.779   1.966 -0.7199  1.1087  1.2754
12881TIP3    H260059   2.723   2.891   1.872  0.3804  0.1084 -0.4090
12882TIP3   OH260060   3.967   3.538   0.571 -0.2970  0.2063  0.5609
12882TIP3    H160061   3.918   3.513   0.492  0.6317  1.3639 -0.4408
12882TIP3    H260062   3.976   3.457   0.621 -0.7291 -0.6132 -0.6414
12883TIP3   OH260063   0.143   5.120  16.137  0.3705  0.4520 -0.4546
12883TIP3    H160064   0.130   5.059  16.064  2.0154 -0.2926 -0.1609
12883TIP3    H260065   0.054   5.140  16.167 -0.3006  0.0306 -2.0300
12884TIP3   OH260066   1.859   5.877   0.005  0.3064  0.1151 -0.1467
12884TIP3    H160067   1.774   5.881   0.047  0.1377 -1.3435 -0.3272
12884TIP3    H260068   1.856   5.799  -0.051  1.1959  0.9168 -1.3870
12885TIP3   OH260069   1.238   6.067   0.988 -0.6004  0.2730  0.1049
12885TIP3    H160070   1.267   5.976   0.976 -0.1051  0.5924 -1.3485
12885TIP3    H260071   1.170   6.078   0.921 -0.2850  1.1187 -0.0803
12886TIP3   OH260072   4.008   3.885   4.826 -0.3124  0.2900 -0.2613
12886TIP3    H160073   3.994   3.943   4.901 -0.0462 -1.6769  1.3861
12886TIP3    H260074   4.098   3.904   4.799 -0.5881  1.3964 -0.4429
12887TIP3   OH260075   1.346   2.574  13.728  0.5328  0.4425  0.1645
12887TIP3    H160076   1.289   2.612  13.795 -2.2459 -0.4268 -1.5347
12887TIP3    H260077   1.347   2.481  13.748 -1.2488 -0.0115 -1.4840
12888TIP3   OH260078   5.932   4.554   5.063  0.7444  0.7529  0.7497
12888TIP3    H160079   5.912   4.527   5.153  1.2454 -0.2142  0.5896
12888TIP3    H260080   5.847   4.574   5.024  0.0248 -2.5431  0.3086
12889TIP3   OH260081   2.620   1.829  16.634  0.6162 -0.6530  0.1654
12889TIP3    H160082   2.650   1.797  16.718 -1.0618 -0.0516  1.0420
12889TIP3    H260083   2.665   1.913  16.621 -0.7067  0.3275  1.5436
12890TIP3   OH260084   5.918   5.795   3.461  0.2005  0.0640 -0.7736
12890TIP3    H160085   6.004   5.832   3.480  0.7035 -0.5038 -1.8313
12890TIP3    H260086   5.874   5.790   3.546  1.3822 -0.0498 -0.1529
12891TIP3   OH260087   0.868   6.626  13.548  0.1842  0.4067 -0.8955
12891TIP3    H160088   0.928   6.560  13.583  0.6818  0.7672 -1.0480
12891TIP3    H260089   0.785   6.610  13.593  0.2007 -0.5408 -1.1923
12892TIP3   OH260090   5.962   6.082   0.616 -0.1125  0.2376 -0.2977
12892TIP3    H160091   5.916   6.107   0.697 -0.5594 -0.5091 -0.3150
12892TIP3    H260092   5.953   6.158   0.559  0.0441  0.7022  0.2808
12893TIP3   OH260093   1.760   3.289   2.166 -0.1634 -0.0318  0.4529
12893TIP3    H160094   1.776   3.337   2.247  0.7795 -1.3326  1.0869
12893TIP3    H260095   1.813   3.334   2.100  0.3622  0.0794  0.9416
12894TIP3   OH260096   2.206   2.510   1.770  0.1918  0.0039  0.1738
12894TIP3    H160097   2.195   2.583   1.832 -0.0363 -0.5464  0.7937
12894TIP3    H260098   2.298   2.485   1.779  0.9288  1.6889 -1.7352
12895TIP3   OH260099   4.833   2.169   1.156 -0.0913 -0.0801 -0.4979
12895TIP3    H160100   4.766   2.103   1.174  0.2166 -0.1130  0.5848
12895TIP3    H260101   4.787   2.252   1.162 -0.2239 -0.1384 -0.6778
12896TIP3   OH260102   3.641   0.318  13.269 -0.1301  0.2030 -0.2152
12896TIP3    H160103   3.670   0.354  13.354  0.7571  0.8673 -0.7818
12896TIP3    H260104   3.705   0.350  13.206  0.5552 -2.1691 -0.8241
12897TIP3   OH260105   4.786   1.846  13.051  0.5843  0.3901  0.3821
12897TIP3    H160106   4.797   1.909  12.980  0.3595  0.2263  0.1988
12897TIP3    H260107   4.695   1.855  13.078 -0.1403 -1.4749 -1.2278
12898TIP3   OH260108   5.162   6.394  10.653 -0.0331  0.1282 -0.0418
12898TIP3    H160109   5.201   6.311  10.627 -1.9239 -0.3559 -1.5614
12898TIP3    H260110   5.217   6.461  10.613  0.4357 -0.4592 -0.3868
12899TIP3   OH260111   0.182   2.407  12.514 -0.5233 -0.7167  0.7450
12899TIP3    H160112   0.273   2.378  12.520  0.2791  0.5535 -2.9030
12899TIP3    H260113   0.167   2.456  12.595  2.8033  0.9177  0.5428
12900TIP3   OH260114   2.843   1.025   3.517 -0.1911  0.2383  0.4159
12900TIP3    H160115   2.919   1.082   3.526 -1.2492  1.5445  1.7443
12900TIP3    H260116   2.879   0.937   3.510  1.4799  0.9995 -1.2765
12901TIP3   OH260117   5.386   3.399   0.310  0.0702 -0.2642  0.2023
12901TIP3    H160118   5.472   3.365   0.284  0.4166 -1.1786  2.3556
12901TIP3    H260119   5.323   3.343   0.265  0.5890  0.0166 -0.8957
12902TIP3   OH260120   0.548   0.601   0.314 -0.1313 -0.3876  0.3274
12902TIP3    H160121   0.579   0.655   0.387 -1.4486  0.8551  0.0277
12902TIP3    H260122   0.514   0.665   0.251 -0.1324 -1.5020 -0.8305
12903TIP3   OH260123   0.246   0.504  13.885  0.3911 -0.4199 -0.4203
12903TIP3    H160124   0.199   0.562  13.825 -0.0103  2.4947  2.4345
12903TIP3    H260125   0.177   0.455  13.931  0.3503  0.6361  0.6948
12904TIP3   OH260126   2.933   0.725  10.930  0.2570 -0.0883 -0.0808
12904TIP3    H160127   2.976   0.667  10.867  1.5692  2.0628 -1.2848
12904TIP3    H260128   2.844   0.733  10.899  0.7297  0.4495 -1.3437
12905TIP3   OH260129   6.238   2.035   1.514 -0.2821 -0.3414 -0.2394
12905TIP3    H160130   6.272   2.124   1.519  1.0597 -0.8419 -0.2282
12905TIP3    H260131   6.310   1.980   1.543 -1.2363 -1.4104  0.1671
12906TIP3   OH260132   5.883   6.280  16.653 -0.1837 -0.1419 -0.1525
12906TIP3    H160133   5.979   6.285  16.648 -0.1564 -0.1970  0.2682
12906TIP3    H260134   5.856   6.251  16.566  0.0828  1.1839 -0.7108
12907TIP3   OH260135   0.836   1.840  16.564 -0.4586 -0.3081  0.3387
12907TIP3    H160136   0.900   1.768  16.570 -0.8742 -0.7359 -0.2284
12907TIP3    H260137   0.776   1.813  16.495 -0.6560  0.5719  0.1532
12908TIP3   OH260138   2.602   5.264   2.075 -0.2007 -0.0511  0.1108
12908TIP3    H160139   2.697   5.267   2.086  0.0290  1.8206 -1.6394
12908TIP3    H260140   2.573   5.353   2.097 -1.5576 -0.5985  0.6106
12909TIP3   OH260141   4.881   0.244  11.721 -0.5775 -0.0443  0.3747
12909TIP3    H160142   4.931   0.261  11.641 -1.2691 -1.6199 -0.4337
12909TIP3    H260143   4.877   0.329  11.765  0.9864  0.5651 -0.5698
12910TIP3   OH260144   4.168   4.005  13.645 -0.0194  0.2143  0.3224
12910TIP3    H160145   4.247   4.014  13.697  1.6547 -2.2472 -1.5532
12910TIP3    H260146   4.106   3.961  13.704  0.5393  0.7505  1.3287
12911TIP3   OH260147   3.031   0.336  13.964 -0.4793 -0.3368  0.5533
12911TIP3    H160148   3.110   0.380  13.931 -1.0735  1.1720  1.0713
12911TIP3    H260149   2.965   0.351  13.896 -0.1870 -2.1701 -0.1964
12912TIP3   OH260150   3.841   5.399  12.225  0.1933 -0.2996  0.6097
12912TIP3    H160151   3.831   5.485  12.265  0.5839  1.2216 -2.2739
12912TIP3    H260152   3.756   5.383  12.182  0.7855 -0.3495 -0.5835
12913TIP3   OH260153   4.190   0.130   0.846 -0.1715 -0.5043 -0.0760
12913TIP3    H160154   4.097   0.125   0.824  0.0033 -0.9198 -0.7328
12913TIP3    H260155   4.208   0.223   0.856 -0.4707 -0.3673 -0.7766
12914TIP3   OH260156   0.716   1.725   3.773 -0.1981  0.1497 -0.1033
12914TIP3    H160157   0.743   1.816   3.785  1.4500 -0.4129  0.8245
12914TIP3    H260158   0.630   1.721   3.813 -0.9300  1.5948 -1.4076
12915TIP3   OH260159   5.364   4.227   3.661  0.2269  0.0166 -0.2888
12915TIP3    H160160   5.381   4.320   3.674  0.8282 -0.2643  1.1218
12915TIP3    H260161   5.443   4.184   3.694 -0.5657 -1.0500  0.2731
12916TIP3   OH260162   6.812   0.792   4.594  0.2108  0.0278  0.1602
12916TIP3    H160163   6.778   0.721   4.540 -0.2284  0.1961  0.2134
12916TIP3    H260164   6.859   0.748   4.665 -0.1050 -0.2111  0.2229
12917TIP3   OH260165   1.099   0.138   0.529  0.4127 -0.0173  0.1410
12917TIP3    H160166   1.023   0.156   0.584  1.8513  1.2000  1.8339
12917TIP3    H260167   1.062   0.104   0.447 -2.0377  1.9701  0.3016
12918TIP3   OH260168   4.444   3.287  12.603  0.0243  0.3357 -0.5628
12918TIP3    H160169   4.491   3.333  12.533  1.6099  0.5553  0.5786
12918TIP3    H260170   4.377   3.236  12.558  2.3037 -1.1786 -2.4822
12919TIP3   OH260171   3.063   5.573  13.315  0.2372 -0.3117 -0.5525
12919TIP3    H160172   3.001   5.545  13.247  1.6808 -2.9814 -0.9409
12919TIP3    H260173   3.128   5.502  13.318  0.6065  0.0164  3.1874
12920TIP3   OH260174   3.256   0.031  12.058 -0.0159 -0.3471 -0.3858
12920TIP3    H160175   3.334  -0.008  12.096 -0.1123  0.6575  0.9304
12920TIP3    H260176   3.259   0.006  11.966  1.3227 -1.1552 -0.1509
12921TIP3   OH260177   6.269   1.950  14.342 -0.4652  0.1638  0.0279
12921TIP3    H160178   6.205   1.890  14.303 -0.1510 -0.8674  1.0379
12921TIP3    H260179   6.247   2.036  14.306 -3.3903  0.1339  1.4507
12922TIP3   OH260180   6.131   2.907   4.845 -0.7749 -0.3504 -0.4077
12922TIP3    H160181   6.059   2.948   4.893  0.7047  1.0159  0.7469
12922TIP3    H260182   6.102   2.817   4.832 -3.2454  0.4692 -1.1878
12923TIP3   OH260183   2.103   1.871   1.123  0.5111 -0.2090  0.0029
12923TIP3    H160184   2.125   1.838   1.036 -0.3183 -1.6475  0.3016
12923TIP3    H260185   2.101   1.792   1.178  2.7598  0.8276  1.7439
12924TIP3   OH260186   6.299   1.934   1.144 -0.2866 -0.3913 -0.0085
12924TIP3    H160187   6.348   1.891   1.074 -0.9071  0.6761 -1.1360
12924TIP3    H260188   6.363   1.947   1.214  0.3325 -1.5210 -0.3448
12925TIP3   OH260189   2.241   0.497   0.557  0.5299 -0.1184 -0.1351
12925TIP3    H160190   2.322   0.458   0.590 -0.2242 -2.2577 -0.7007
12925TIP3    H260191   2.207   0.434   0.495 -1.9193  0.4295  0.5452
12926TIP3   OH260192   0.826   1.055  16.005  0.4977 -0.2043  0.0199
12926TIP3    H160193   0.742   1.008  16.005  0.1883  0.3287  1.0980
12926TIP3    H260194   0.857   1.048  15.915 -1.8046  1.5446 -1.0129
12927TIP3   OH260195   3.439   4.232  14.386  0.5902 -0.1089 -1.2173
12927TIP3    H160196   3.461   4.325  14.382 -2.3826  0.7814 -0.0932
12927TIP3    H260197   3.508   4.193  14.440  0.5862  1.9706  0.4266
12928TIP3   OH260198   3.321   4.038  16.556 -0.1973 -0.1072 -0.0792
12928TIP3    H160199   3.246   4.051  16.614 -2.2633 -0.1619 -2.5805
12928TIP3    H260200   3.384   3.989  16.610 -2.1405 -0.5436  1.9573
12929TIP3   OH260201   2.855   4.370   0.970 -0.1836  0.2400 -0.6194
12929TIP3    H160202   2.792   4.429   1.013 -0.0488  0.2717 -0.4605
12929TIP3    H260203   2.803   4.323   0.905 -0.6101 -0.5197  0.2439
12930TIP3   OH260204   5.032   6.108   4.677  1.1014 -0.3654 -0.3799
12930TIP3    H160205   4.976   6.031   4.674  1.1371 -0.4049 -0.0428
12930TIP3    H260206   5.054   6.126   4.585  0.0714 -0.0018 -0.5707
12931TIP3   OH260207   5.640   2.057  13.045 -0.4721  0.2643  0.0367
12931TIP3    H160208   5.643   1.982  12.985 -0.7635  0.3349 -0.0673
12931TIP3    H260209   5.695   2.123  13.003 -1.3292  0.6172 -0.5751
12932TIP3   OH260210   6.637   6.589   5.298  0.5982  0.2729  0.4625
12932TIP3    H160211   6.548   6.606   5.329 -0.3786 -0.8640 -1.5286
12932TIP3    H260212   6.674   6.531   5.365 -0.6211 -0.2835  0.6814
12933TIP3   OH260213   1.328   5.857  13.582 -0.4575 -0.1678  0.1331
12933TIP3    H160214   1.300   5.801  13.654 -1.2663  0.2515  0.1475
12933TIP3    H260215   1.250   5.906  13.557 -0.0291  0.1591 -0.6073
12934TIP3   OH260216   6.316   2.686   1.240 -0.0001  0.1893 -0.0771
12934TIP3    H160217   6.226   2.701   1.211 -0.0234 -0.4815 -0.3675
12934TIP3    H260218   6.319   2.593   1.260  0.0685  0.5847  1.9214
12935TIP3   OH260219   6.641   3.666  13.400  0.2008  0.0760 -0.4847
12935TIP3    H160220   6.613   3.575  13.403 -0.6859  0.3739  1.2502
12935TIP3    H260221   6.612   3.697  13.314  0.8816 -1.3539 -1.2803
12936TIP3   OH260222   6.323   3.371   3.545  0.1979 -0.1303  0.0906
12936TIP3    H160223   6.348   3.300   3.486 -2.5884 -1.2068  0.0517
12936TIP3    H260224   6.229   3.357   3.561 -0.0494  2.5260  1.5187
12937TIP3   OH260225   1.962   4.122   0.609  0.3659 -0.6473 -0.4153
12937TIP3    H160226   2.013   4.042   0.608 -0.9936 -1.5584  0.8449
12937TIP3    H260227   1.940   4.137   0.701 -1.1443  0.0175 -0.8498
12938TIP3   OH260228   1.160   2.902  15.554  0.2399  0.2705  0.2939
12938TIP3    H160229   1.084   2.858  15.592 -1.1207  0.9032 -1.5678
12938TIP3    H260230   1.130   2.992  15.539  2.1933  1.2456  1.8316
12939TIP3   OH260231   1.134   1.214  14.714  0.3633  0.0861 -0.2432
12939TIP3    H160232   1.219   1.258  14.724 -0.7858  2.8716 -1.7099
12939TIP3    H260233   1.075   1.264  14.770 -0.8478 -0.0928 -1.3252
12940TIP3   OH260234   5.078   0.355  11.528 -0.5366 -0.0607  0.4087
12940TIP3    H160235   5.128   0.408  11.466 -1.2161 -0.4055 -0.4465
12940TIP3    H260236   5.109   0.384  11.614 -2.9037  3.9090  0.1986
12941TIP3   OH260237   4.883   0.434  12.842  0.5205 -0.4452 -0.1364
12941TIP3    H160238   4.806   0.437  12.899  0.1888  0.5051 -0.6159
12941TIP3    H260239   4.950   0.390  12.895  0.5775  1.4007  1.4476
12942TIP3   OH260240   5.835   2.632  16.791 -0.1716 -0.1005  0.2073
12942TIP3    H160241   5.919   2.586  16.797  0.3438  0.3033 -2.5650
12942TIP3    H260242   5.776   2.569  16.748 -0.5103  0.5351 -0.2806
12943TIP3   OH260243   5.239   2.354  12.650  0.1044  0.6537  0.1564
12943TIP3    H160244   5.317   2.320  12.693  0.1435  0.6547  0.0870
12943TIP3    H260245   5.272   2.397  12.571 -0.1335 -0.9373 -0.8495
12944TIP3   OH260246   4.052   4.005  16.029  0.2081 -0.1021  0.4252
12944TIP3    H160247   4.024   4.033  16.116 -0.2083 -0.4871  0.4170
12944TIP3    H260248   4.020   3.916  16.020  2.0057 -0.8202  0.6618
12945TIP3   OH260249   3.182   1.916  13.325  0.1474 -0.2479 -0.1083
12945TIP3    H160250   3.260   1.929  13.271  0.8013 -1.1919  0.5907
12945TIP3    H260251   3.128   1.854  13.274 -0.2401  0.5312 -0.6670
12946TIP3   OH260252   2.032   5.898  15.301  0.0724 -0.3618 -0.1872
12946TIP3    H160253   2.107   5.946  15.335 -1.2865  0.7878  1.3429
12946TIP3    H260254   2.058   5.806  15.305  1.5576  0.0428 -0.1640
12947TIP3   OH260255   1.411   2.228   6.257  0.0016 -0.5574 -0.0687
12947TIP3    H160256   1.498   2.222   6.216  0.1846  1.5059 -0.0915
12947TIP3    H260257   1.351   2.234   6.183 -0.0212 -0.6670 -0.0577
12948TIP3   OH260258   1.235   3.623   3.075  0.9106  0.4680 -0.1878
12948TIP3    H160259   1.248   3.640   2.982 -0.1567  0.2917 -0.3823
12948TIP3    H260260   1.207   3.707   3.112  1.3190  0.5347 -0.0232
12949TIP3   OH260261   0.724   5.244   5.141  0.2441 -0.0780  0.1615
12949TIP3    H160262   0.769   5.180   5.196  0.5622 -0.8406 -0.9480
12949TIP3    H260263   0.791   5.275   5.080 -0.4792 -0.5651 -0.9299
12950TIP3   OH260264   0.482   0.121   2.573 -0.4362  0.0197  0.6639
12950TIP3    H160265   0.552   0.164   2.524  0.6459  1.2592  3.1183
12950TIP3    H260266   0.516   0.034   2.594 -0.1408  0.1597  0.7678
12951TIP3   OH260267   3.405   2.608  15.690  0.3799  0.2964  0.0113
12951TIP3    H160268   3.346   2.645  15.624  1.2329 -0.7788 -1.4116
12951TIP3    H260269   3.440   2.530  15.649  0.8718 -0.4707  1.8194
12952TIP3   OH260270   1.954   4.110   0.884  0.4572  0.2065 -0.1129
12952TIP3    H160271   1.876   4.055   0.880  0.8358 -0.3565  0.2057
12952TIP3    H260272   1.973   4.119   0.977  1.7470 -1.0656 -0.2187
12953TIP3   OH260273   3.140   1.913   0.600  0.2537 -0.0920 -0.0332
12953TIP3    H160274   3.075   1.979   0.576 -1.1431 -0.7131  1.8613
12953TIP3    H260275   3.126   1.842   0.537 -1.2825 -0.4344  0.6512
12954TIP3   OH260276   2.238   0.926  12.448  0.8071  0.2594 -0.3214
12954TIP3    H160277   2.303   0.906  12.516 -0.6057 -1.4021  0.6145
12954TIP3    H260278   2.194   1.005  12.479 -0.3422 -0.9023  1.1606
12955TIP3   OH260279   1.206   0.922   0.916  0.6738 -0.0821 -0.2832
12955TIP3    H160280   1.131   0.982   0.916 -0.0822 -0.9955  0.6380
12955TIP3    H260281   1.279   0.976   0.945 -0.0195  0.3775  0.6549
12956TIP3   OH260282   4.045   6.707  15.375 -0.1299  0.3313  0.2365
12956TIP3    H160283   4.079   6.621  15.401  0.0808  0.4959  0.5088
12956TIP3    H260284   4.051   6.760  15.454 -2.9133 -0.1851  0.8896
12957TIP3   OH260285   2.019   0.044  15.159  0.4150  0.5021  0.2424
12957TIP3    H160286   1.989   0.090  15.081  0.8241  0.7720  0.2372
12957TIP3    H260287   1.975   0.088  15.231 -0.4552 -0.1589  0.1208
12958TIP3   OH260288   4.443   4.813  16.354 -0.1865 -0.2705  1.1437
12958TIP3    H160289   4.483   4.760  16.423  0.3070 -0.4144  0.7562
12958TIP3    H260290   4.391   4.878  16.401  0.1802 -0.3366  1.6517
12959TIP3   OH260291   5.352   4.618  16.916  0.3760  0.5097  0.4615
12959TIP3    H160292   5.398   4.551  16.866  0.4176  0.0742  1.0737
12959TIP3    H260293   5.413   4.692  16.918  1.2300 -0.1919  1.5807
12960TIP3   OH260294   2.868   5.043  16.977 -0.5020 -0.3196  0.8745
12960TIP3    H160295   2.940   5.106  16.979  0.2938 -1.1617 -0.1373
12960TIP3    H260296   2.910   4.958  16.969 -1.5726 -0.9664  1.7325
12961TIP3   OH260297   4.113   6.678  16.344  0.2236 -0.4871  0.2880
12961TIP3    H160298   4.133   6.758  16.295 -0.3133 -0.3193  0.3352
12961TIP3    H260299   4.197   6.649  16.379  0.4984 -0.2178 -0.1457
12962TIP3   OH260300   2.392   1.566   0.429  0.7320  0.1818  0.6741
12962TIP3    H160301   2.300   1.560   0.455  0.7187  0.9807  0.8150
12962TIP3    H260302   2.406   1.658   0.409  1.4684  0.0423  0.5097
12963TIP3   OH260303   3.040   2.578   1.785  0.3233  0.1731 -0.0576
12963TIP3    H160304   3.054   2.589   1.879 -0.1492  0.4941 -0.0243
12963TIP3    H260305   3.121   2.610   1.745 -0.4254  2.5352  0.1117
12964TIP3   OH260306   1.077   0.798   5.923  0.7442  0.0374  0.2616
12964TIP3    H160307   1.121   0.749   5.854 -0.6134 -0.8253 -0.0147
12964TIP3    H260308   0.999   0.748   5.943 -1.5501  2.7735 -1.0962
12965TIP3   OH260309   6.068   4.398  11.237 -0.0211 -0.3966 -0.0315
12965TIP3    H160310   6.144   4.342  11.251  1.3154  1.2703 -0.1811
12965TIP3    H260311   6.096   4.459  11.168 -1.3180  0.5925  0.2750
12966TIP3   OH260312   0.862   5.991  11.221  0.7573 -0.4223 -0.0590
12966TIP3    H160313   0.933   5.989  11.285  1.0445  0.8534 -0.3171
12966TIP3    H260314   0.867   6.078  11.182 -2.6739  0.7957  1.8653
12967TIP3   OH260315   1.326   3.390  11.870  0.3492  0.1355 -0.0215
12967TIP3    H160316   1.265   3.317  11.884  1.2617 -0.4759  0.8586
12967TIP3    H260317   1.413   3.350  11.875  0.8553  0.9099 -1.7205
12968TIP3   OH260318   0.370   4.318  13.695 -0.1283  0.1812  0.0862
12968TIP3    H160319   0.403   4.384  13.757  1.0146 -0.3614  0.0845
12968TIP3    H260320   0.279   4.343  13.681 -0.2371  0.7131  1.4782
12969TIP3   OH260321   3.480   5.721  13.995  0.3138  0.5361 -0.5750
12969TIP3    H160322   3.405   5.751  13.943  0.8213 -0.9121 -2.2559
12969TIP3    H260323   3.540   5.684  13.930  0.9847 -1.3922  1.0622
12970TIP3   OH260324   3.136   3.993   0.564  0.5840 -0.0915  0.3814
12970TIP3    H160325   3.197   4.051   0.609  2.0271 -1.1688 -0.1138
12970TIP3    H260326   3.059   3.990   0.621  0.9740  1.2872  1.0228
12971TIP3   OH260327   6.750   2.590   2.680  0.5197 -0.2859  0.2751
12971TIP3    H160328   6.826   2.603   2.624  0.1345  0.4825 -0.0812
12971TIP3    H260329   6.691   2.661   2.657 -0.7217 -1.4158 -0.1343
12972TIP3   OH260330   5.674   0.265   5.720 -0.1261 -0.0021  0.6559
12972TIP3    H160331   5.641   0.215   5.794 -0.0203 -0.1255  0.6185
12972TIP3    H260332   5.752   0.218   5.691 -0.5047 -0.2902  0.0830
12973TIP3   OH260333   1.492   2.109   0.944  0.1505  0.3277 -0.2837
12973TIP3    H160334   1.479   2.190   0.993  0.2590 -0.6043  1.3519
12973TIP3    H260335   1.466   2.130   0.854  0.1712  2.1529  0.1180
12974TIP3   OH260336   6.271   4.014   3.905  0.0144  0.1803  0.2088
12974TIP3    H160337   6.346   4.058   3.946 -0.9734  1.3236  0.8724
12974TIP3    H260338   6.195   4.060   3.940 -1.1584 -2.4162  1.3577
12975TIP3   OH260339   3.867   5.873  12.322  0.4575  0.4676 -0.2878
12975TIP3    H160340   3.855   5.857  12.416 -1.0911  0.8059 -0.4031
12975TIP3    H260341   3.837   5.793  12.279 -0.5773  0.9835 -0.5579
12976TIP3   OH260342   1.493   0.033   1.979 -0.2291 -0.5170 -0.3459
12976TIP3    H160343   1.408   0.002   1.948 -1.3666  1.6889  0.4079
12976TIP3    H260344   1.528   0.086   1.907  0.5049 -1.3223 -0.6099
12977TIP3   OH260345   2.800   1.387  15.538  0.3210  0.0618 -0.3019
12977TIP3    H160346   2.724   1.441  15.561 -1.0282 -2.1928  0.8679
12977TIP3    H260347   2.775   1.344  15.456  0.1002 -1.0872  0.3579
12978TIP3   OH260348   6.481   5.599   5.473  0.4602  0.4614 -0.0756
12978TIP3    H160349   6.548   5.542   5.436 -0.1007 -0.3903  0.1609
12978TIP3    H260350   6.485   5.679   5.421  0.1292 -0.4446 -1.5675
12979TIP3   OH260351   1.919   4.986  16.028 -0.4178  0.4936  0.2698
12979TIP3    H160352   1.912   4.973  15.933 -1.3064  0.7108  0.2980
12979TIP3    H260353   1.974   5.064  16.038  0.1428  0.1462 -0.0469
12980TIP3   OH260354   5.480   4.774   3.073  0.2105 -0.1302 -0.1376
12980TIP3    H160355   5.566   4.732   3.075 -0.2968 -1.1736  0.3601
12980TIP3    H260356   5.470   4.812   3.160 -0.0084 -0.3834 -0.0501
12981TIP3   OH260357   4.548   5.459   2.778 -0.3394 -0.2282  0.0899
12981TIP3    H160358   4.618   5.458   2.713 -0.8839 -0.1842 -0.5114
12981TIP3    H260359   4.576   5.523   2.843  0.4987 -0.7208  0.2264
12982TIP3   OH260360   3.903   2.501   3.248 -0.2342 -0.0498  0.2770
12982TIP3    H160361   3.817   2.488   3.208 -0.6740 -0.4671  1.3260
12982TIP3    H260362   3.941   2.575   3.201 -0.8401 -0.3539 -0.7235
12983TIP3   OH260363   4.936   2.109  16.317  0.0174  0.0007 -0.1050
12983TIP3    H160364   4.893   2.175  16.263  2.5247  1.9606  0.0844
12983TIP3    H260365   4.899   2.026  16.288 -1.3334  1.2710 -2.2840
12984TIP3   OH260366   1.841   2.359   5.599 -0.4010  0.8223  0.2002
12984TIP3    H160367   1.916   2.323   5.647 -0.2275 -0.0719 -0.7063
12984TIP3    H260368   1.783   2.393   5.667 -0.1008 -0.2853  1.0348
12985TIP3   OH260369   5.968   4.654  10.449 -0.5165  0.1657  0.2254
12985TIP3    H160370   5.893   4.649  10.508 -0.2606  0.7034  0.6105
12985TIP3    H260371   6.028   4.715  10.493 -0.0050 -0.0013 -0.2389
12986TIP3   OH260372   6.670   0.819  15.787  0.1918 -0.2555  0.2617
12986TIP3    H160373   6.600   0.870  15.746  0.2920 -1.2505 -1.1877
12986TIP3    H260374   6.661   0.838  15.881 -0.3853  1.6333 -0.1273
12987TIP3   OH260375   0.047   6.100   1.388 -0.1441 -0.1621  0.0224
12987TIP3    H160376   0.028   6.184   1.431 -0.5422  0.1810 -0.7842
12987TIP3    H260377   0.065   6.040   1.460  2.3290  1.1086  0.5705
12988TIP3   OH260378   2.429   5.872   0.122 -0.0372 -0.3528  0.3223
12988TIP3    H160379   2.353   5.897   0.174  0.0856 -0.1034  0.3827
12988TIP3    H260380   2.469   5.955   0.097  1.9775 -0.4371  2.8477
12989TIP3   OH260381   6.312   2.979   2.691 -0.1230  0.2483  0.0001
12989TIP3    H160382   6.239   2.950   2.745 -2.1717  1.6192 -1.8526
12989TIP3    H260383   6.340   3.062   2.732  0.2300 -0.1334  0.5463
12990TIP3   OH260384   1.194   1.845  12.011 -0.2446  0.0025  0.2683
12990TIP3    H160385   1.132   1.782  12.048  0.6793 -1.8603 -1.1617
12990TIP3    H260386   1.142   1.897  11.950 -0.4078 -1.8179 -1.2333
12991TIP3   OH260387   2.866   3.129   0.301  0.9279 -0.0973  0.9633
12991TIP3    H160388   2.836   3.212   0.337  0.8848 -0.3361  1.4804
12991TIP3    H260389   2.901   3.081   0.376  0.7105 -0.6498  0.7165
12992TIP3   OH260390   5.457   6.411  14.676 -0.5594 -0.2972  0.2014
12992TIP3    H160391   5.451   6.329  14.626 -1.1648 -0.7115  0.9412
12992TIP3    H260392   5.548   6.413  14.707 -0.5404 -0.6946  0.1826
12993TIP3   OH260393   4.387   2.887   1.591 -0.2960 -0.6623  0.2279
12993TIP3    H160394   4.392   2.955   1.524 -0.2403 -0.0037  0.8870
12993TIP3    H260395   4.473   2.888   1.633 -0.3666 -0.9907  0.3896
12994TIP3   OH260396   5.108   6.686  15.725 -0.0303  0.6451 -1.1810
12994TIP3    H160397   5.163   6.656  15.653 -0.1130 -0.6506 -0.7184
12994TIP3    H260398   5.151   6.766  15.756  0.6025  0.6192 -1.9581
12995TIP3   OH260399   0.958   1.313  11.161  1.0205 -0.3578  0.6346
12995TIP3    H160400   0.959   1.231  11.112  1.0384 -0.3650  0.6474
12995TIP3    H260401   0.881   1.306  11.218  0.1810  0.2247 -0.3805
12996TIP3   OH260402   0.853   4.655  16.930 -0.3054  0.3411 -0.4053
12996TIP3    H160403   0.824   4.706  17.005 -1.4448 -1.0616  0.1607
12996TIP3    H260404   0.885   4.573  16.968 -0.8660 -0.3733 -1.4142
12997TIP3   OH260405   5.212   2.377  15.714  0.2033  0.4186  0.6282
12997TIP3    H160406   5.280   2.398  15.778  0.0788  1.4291  0.4355
12997TIP3    H260407   5.181   2.461  15.682 -0.4324 -0.0523 -0.0434
12998TIP3   OH260408   4.552   4.802   1.497  0.2315  0.5039  0.3082
12998TIP3    H160409   4.523   4.892   1.483  0.7958  0.6634  0.1547
12998TIP3    H260410   4.553   4.791   1.592  2.2515  1.3581  0.4280
12999TIP3   OH260411   6.077   1.485  15.488 -0.3639  0.3478  0.4865
12999TIP3    H160412   6.141   1.489  15.559 -1.4247 -0.7272  1.5643
12999TIP3    H260413   6.017   1.558  15.505  0.3807  1.1709 -0.3483
13000TIP3   OH260414   6.098   3.154  14.517 -0.3537  0.3377  0.3845
13000TIP3    H160415   6.146   3.238  14.514  0.1546  0.0416 -0.0244
13000TIP3    H260416   6.142   3.105  14.586 -0.5328  0.3370  0.4973
13001TIP3   OH260417   4.908   1.362  12.758  1.0331  0.6696 -0.0080
13001TIP3    H160418   4.841   1.324  12.816 -1.6898  0.3193 -3.0861
13001TIP3    H260419   4.885   1.455  12.753 -0.9293  0.1558 -2.9043
13002TIP3   OH260420   2.808   1.092  11.279  0.1199  0.1253 -0.1889
13002TIP3    H160421   2.815   1.027  11.209  0.1187  0.6705 -0.7009
13002TIP3    H260422   2.892   1.087  11.325  0.6337  0.6680 -1.0386
13003TIP3   OH260423   2.672   6.209   3.057 -0.4591 -0.4335  0.2980
13003TIP3    H160424   2.763   6.222   3.082 -0.1057 -0.6785 -0.8247
13003TIP3    H260425   2.647   6.126   3.099  0.2299 -1.0122 -0.4029
13004TIP3   OH260426   6.556   1.325  16.785 -0.1747  0.3302 -0.2491
13004TIP3    H160427   6.541   1.293  16.874  0.3862 -0.5744 -0.4687
13004TIP3    H260428   6.597   1.252  16.739 -1.2920  0.4537 -1.5162
13005TIP3   OH260429   4.378   1.962   0.624  0.0970 -0.0840  0.3839
13005TIP3    H160430   4.322   2.039   0.622  1.2330  0.8572  2.0474
13005TIP3    H260431   4.411   1.959   0.714  0.5265 -2.2014  0.2158
13006TIP3   OH260432   6.475   4.116  10.957 -0.2375  0.3568 -0.0105
13006TIP3    H160433   6.509   4.203  10.979  0.3205 -0.0652  0.8513
13006TIP3    H260434   6.553   4.064  10.938 -0.5823  0.0973 -0.7386
13007TIP3   OH260435   5.335   1.142  15.434 -0.0824  0.3716  0.4397
13007TIP3    H160436   5.325   1.047  15.433  2.5897 -0.0133  1.1408
13007TIP3    H260437   5.332   1.166  15.526 -0.9161  1.0093  0.2559
13008TIP3   OH260438   6.527   4.200  14.446 -0.2896  0.1405 -0.1210
13008TIP3    H160439   6.467   4.235  14.512  2.0018  1.0038  1.6494
13008TIP3    H260440   6.526   4.265  14.375 -1.2399  0.2468 -0.0246
13009TIP3   OH260441   4.388   0.009  11.732  0.2187 -0.3093  0.5281
13009TIP3    H160442   4.325   0.073  11.698 -0.1907 -1.3205 -0.6938
13009TIP3    H260443   4.452   0.062  11.780 -0.2731  0.9873 -0.1944
13010TIP3   OH260444   6.279   5.894  14.722  0.2877  0.0252  0.3517
13010TIP3    H160445   6.326   5.909  14.804  2.7448  1.7604 -1.2299
13010TIP3    H260446   6.236   5.809  14.734  0.4378  0.2815  3.4303
13011TIP3   OH260447   1.017   1.669   5.118 -0.8791  0.4156  0.0664
13011TIP3    H160448   1.012   1.594   5.176 -1.7609  0.5589  0.1989
13011TIP3    H260449   1.093   1.719   5.148  1.4828 -1.8268 -1.7691
13012TIP3   OH260450   1.323   1.695   1.590 -0.0542  0.4135  0.1997
13012TIP3    H160451   1.394   1.695   1.654  0.5330 -0.0632 -0.4415
13012TIP3    H260452   1.252   1.741   1.634  0.9728  1.7848  0.4995
13013TIP3   OH260453   2.038   3.841  13.016  0.1085  0.3413  0.0155
13013TIP3    H160454   2.048   3.893  12.936 -0.2004  0.1582 -0.1430
13013TIP3    H260455   2.056   3.903  13.087 -0.3228  0.6825 -0.1670
13014TIP3   OH260456   4.483   2.724  12.401 -0.2649  0.0097 -0.1153
13014TIP3    H160457   4.501   2.729  12.307 -0.8622 -0.4608 -0.2552
13014TIP3    H260458   4.521   2.805  12.437  0.2030  0.0598 -0.7173
13015TIP3   OH260459   1.200   5.320   1.677  0.1151  0.1873 -0.1951
13015TIP3    H160460   1.234   5.256   1.739 -2.5774  0.4227  1.6864
13015TIP3    H260461   1.277   5.369   1.647  1.9708 -2.5077 -0.1028
13016TIP3   OH260462   1.798   0.855  16.754  0.7428 -0.0009 -0.2303
13016TIP3    H160463   1.893   0.850  16.741  0.8079 -0.0249  0.2426
13016TIP3    H260464   1.776   0.774  16.800  0.7387  0.7388  1.1219
13017TIP3   OH260465   1.557   4.627   1.735 -0.0261 -0.2928 -0.3118
13017TIP3    H160466   1.619   4.596   1.669 -0.7566 -1.8032 -0.3274
13017TIP3    H260467   1.605   4.620   1.818  0.1655 -0.5208 -0.4397
13018TIP3   OH260468   6.477   4.058   0.718  0.4658  0.9210  0.1202
13018TIP3    H160469   6.562   4.039   0.677  1.5053 -0.0874  2.4879
13018TIP3    H260470   6.484   4.019   0.805 -2.7707  0.1097  0.1449
13019TIP3   OH260471   0.917   3.085  11.355 -0.0709 -0.4932 -0.1802
13019TIP3    H160472   0.897   3.018  11.420  0.7395 -1.5076 -0.9375
13019TIP3    H260473   0.892   3.046  11.271 -1.4887  0.9465 -0.4809
13020TIP3   OH260474   3.618   1.596   4.825 -0.3360 -0.0861 -0.0952
13020TIP3    H160475   3.560   1.671   4.813 -0.8643 -0.6844 -1.4234
13020TIP3    H260476   3.704   1.628   4.798 -0.2847  0.4137  0.6192
13021TIP3   OH260477   4.452   5.715   5.030  0.7572  0.2583  0.2331
13021TIP3    H160478   4.386   5.647   5.041  0.9208  0.0695  0.0393
13021TIP3    H260479   4.407   5.796   5.056  0.4926  0.1126  0.2327
13022TIP3   OH260480   0.900   2.539  14.491 -0.6765 -0.0469  0.0649
13022TIP3    H160481   0.821   2.574  14.533  0.5216  1.7889  0.9082
13022TIP3    H260482   0.867   2.495  14.412 -2.5203  0.9132  0.2354
13023TIP3   OH260483   3.337   3.868   3.032 -0.0662 -0.1845 -0.5495
13023TIP3    H160484   3.393   3.809   3.083 -0.0056  0.1075 -0.2701
13023TIP3    H260485   3.344   3.837   2.942 -1.0403 -1.3979 -0.2304
13024TIP3   OH260486   2.766   0.079   0.058 -0.1891 -0.1253 -0.2097
13024TIP3    H160487   2.787   0.113   0.145 -2.6002 -0.2764  0.4995
13024TIP3    H260488   2.675   0.106   0.042 -1.1360 -3.3199 -1.0197
13025TIP3   OH260489   4.946   4.968   0.234 -1.2463 -0.7558  0.2108
13025TIP3    H160490   4.916   5.053   0.202  0.4955 -0.6726 -1.3508
13025TIP3    H260491   4.881   4.906   0.201 -0.8312 -0.3667 -1.4452
13026TIP3   OH260492   4.420   5.809   0.516  0.5531  0.0748 -0.0179
13026TIP3    H160493   4.514   5.800   0.529  0.6292  0.2392 -0.4555
13026TIP3    H260494   4.386   5.719   0.522  0.6874  0.0547  0.4964
13027TIP3   OH260495   1.526   5.493  12.545  0.4931  0.0604  0.5928
13027TIP3    H160496   1.615   5.490  12.580  0.3188  0.0499  1.0459
13027TIP3    H260497   1.494   5.580  12.571  0.8597  0.6490 -0.8027
13028TIP3   OH260498   5.886   5.023  12.791  0.2631  0.4702  0.4802
13028TIP3    H160499   5.812   5.014  12.731 -1.3001  0.5479  2.2648
13028TIP3    H260500   5.857   4.977  12.871  2.5187 -0.2619  0.9656
13029TIP3   OH260501   3.259   3.442   1.437 -0.1464 -0.3218 -0.1215
13029TIP3    H160502   3.231   3.368   1.491 -2.7621  0.4619 -0.2390
13029TIP3    H260503   3.277   3.405   1.351  1.9619 -1.2638  0.6559
13030TIP3   OH260504   2.600   1.776   1.635  0.3046 -0.4040 -0.2094
13030TIP3    H160505   2.504   1.774   1.633  0.3151 -1.8072 -0.3837
13030TIP3    H260506   2.622   1.869   1.635 -1.0333 -0.0361 -1.7438
13031TIP3   OH260507   6.237   4.850   5.341  0.1276  0.0738 -0.3876
13031TIP3    H160508   6.203   4.913   5.278  0.8324 -0.3956 -1.2712
13031TIP3    H260509   6.303   4.898   5.391 -0.3882  0.4303 -0.0459
13032TIP3   OH260510   3.586   0.696   0.437  0.3928 -0.6554 -0.2929
13032TIP3    H160511   3.564   0.789   0.439 -1.7650 -1.1224  0.1821
13032TIP3    H260512   3.674   0.692   0.475  0.1496  1.0923  0.5894
13033TIP3   OH260513   0.216   3.155   3.238  0.2396 -0.2869  0.3139
13033TIP3    H160514   0.201   3.183   3.147  1.2190  0.0077  0.2372
13033TIP3    H260515   0.242   3.063   3.230  1.9007  0.1818  0.1540
13034TIP3   OH260516   6.323   5.455  12.984 -0.6853  0.0808 -0.1211
13034TIP3    H160517   6.324   5.369  12.943  1.1550 -0.2851  0.6141
13034TIP3    H260518   6.371   5.511  12.924 -0.0913  0.1119  0.3779
13035TIP3   OH260519   0.387   3.234   4.146  0.1118 -0.4437  0.2465
13035TIP3    H160520   0.455   3.203   4.086 -0.1287  1.8501 -1.3304
13035TIP3    H260521   0.428   3.229   4.233  0.7173 -3.1269 -0.0833
13036TIP3   OH260522   5.505   4.822   1.272 -0.0802  0.3715 -0.1668
13036TIP3    H160523   5.554   4.901   1.295 -0.7299  0.2686  1.7793
13036TIP3    H260524   5.416   4.853   1.256 -0.2505  0.1003  0.2311
13037TIP3   OH260525   1.189   4.286  14.706  0.5848  0.3637  0.2518
13037TIP3    H160526   1.154   4.282  14.617 -0.9248 -0.3111  0.8445
13037TIP3    H260527   1.148   4.363  14.744  2.1218  1.3236  0.0328
13038TIP3   OH260528   3.324   2.274  16.013  0.0302  0.2335 -0.0694
13038TIP3    H160529   3.401   2.291  15.958 -0.3565  0.7827 -0.4397
13038TIP3    H260530   3.256   2.332  15.979 -0.7079 -0.6176 -0.0774
13039TIP3   OH260531   6.514   6.802  11.742  0.0696 -0.1939  0.1282
13039TIP3    H160532   6.558   6.793  11.658 -0.8079 -0.8094 -0.2748
13039TIP3    H260533   6.506   6.713  11.776 -1.9402 -0.2730 -0.3946
13040TIP3   OH260534   5.191   3.574  12.927 -0.6282  0.3093  0.0488
13040TIP3    H160535   5.256   3.641  12.949 -0.5105  0.3817 -0.5005
13040TIP3    H260536   5.222   3.495  12.971 -1.4164  0.8892  1.7226
13041TIP3   OH260537   3.056   0.829  12.038 -0.2713  0.0164 -0.6046
13041TIP3    H160538   3.137   0.778  12.038 -1.5507 -2.1485 -0.3418
13041TIP3    H260539   3.062   0.883  12.117  0.2089 -1.3643  0.3343
13042TIP3   OH260540   6.290   3.353  14.536  0.7768 -0.0741 -0.0515
13042TIP3    H160541   6.378   3.350  14.499  0.5740  0.3326 -0.5794
13042TIP3    H260542   6.302   3.383  14.626  1.3195 -1.5108  0.3737
13043TIP3   OH260543   0.371   6.555  11.916  0.3475 -0.4366  0.2713
13043TIP3    H160544   0.450   6.605  11.935  0.7168 -0.3804 -1.2705
13043TIP3    H260545   0.373   6.542  11.821 -0.7363 -1.7213  0.3972
13044TIP3   OH260546   2.045   2.825  10.838  0.2809  0.3908 -0.7892
13044TIP3    H160547   2.008   2.865  10.916 -0.0051 -0.0816 -0.6796
13044TIP3    H260548   2.036   2.892  10.770 -1.7666 -0.0829 -1.0456
13045TIP3   OH260549   2.840   6.303   5.693 -0.0680 -0.2338 -0.6389
13045TIP3    H160550   2.769   6.239   5.698 -0.0248 -0.3363 -1.2640
13045TIP3    H260551   2.812   6.365   5.625  0.3659 -0.1871 -0.7782
13046TIP3   OH260552   5.526   6.816  13.451 -0.2300 -0.2765 -0.0846
13046TIP3    H160553   5.507   6.857  13.368  0.4269 -0.5723 -0.3903
13046TIP3    H260554   5.460   6.850  13.511 -1.1450 -0.6022 -0.8870
13047TIP3   OH260555   3.678   6.784   0.735 -0.0504  0.7697  0.3494
13047TIP3    H160556   3.711   6.701   0.699  1.2082  1.3499  0.0823
13047TIP3    H260557   3.718   6.791   0.821  0.2763  1.3311  0.1619
13048TIP3   OH260558   6.632   3.013  13.645  0.5841  0.5552  0.2241
13048TIP3    H160559   6.554   3.065  13.625 -0.6150 -1.4980 -0.7863
13048TIP3    H260560   6.625   2.997  13.740 -0.0930  0.6185  0.1953
13049TIP3   OH260561   1.915   4.415  13.462 -0.3231 -0.4038 -0.2587
13049TIP3    H160562   1.910   4.321  13.444 -1.7275 -0.6326  1.1219
13049TIP3    H260563   1.848   4.453  13.405 -0.4342 -0.3579 -0.0962
13050TIP3   OH260564   2.970   3.508   1.928  0.4317  0.2623 -0.0295
13050TIP3    H160565   3.033   3.553   1.872  0.9054  1.1213  1.1381
13050TIP3    H260566   3.024   3.468   1.997 -0.0206 -1.7293 -0.7400
13051TIP3   OH260567   0.050   2.264   1.678  0.0996  0.4298 -0.0350
13051TIP3    H160568  -0.026   2.286   1.623  0.5323  1.6285 -0.1689
13051TIP3    H260569   0.104   2.342   1.677  0.7006  0.0517  1.1538
13052TIP3   OH260570   6.705   1.667   6.526 -0.1083 -0.2005 -0.1123
13052TIP3    H160571   6.636   1.605   6.550 -0.5412 -0.7950 -2.5804
13052TIP3    H260572   6.672   1.710   6.447  2.1604 -0.2225 -1.1658
13053TIP3   OH260573   1.499   5.706  12.892 -0.6015  0.1210 -0.1030
13053TIP3    H160574   1.489   5.801  12.902 -3.2891 -0.1912  1.1551
13053TIP3    H260575   1.425   5.679  12.839 -0.7486 -1.4415  0.8275
13054TIP3   OH260576   3.003   0.491  12.075 -0.0377  0.1031 -0.1565
13054TIP3    H160577   3.073   0.542  12.035  1.2931 -0.9772  0.6976
13054TIP3    H260578   2.941   0.475  12.004  1.6019 -0.6359 -1.4729
13055TIP3   OH260579   2.321   6.618  15.921  0.3294  0.0825  0.6608
13055TIP3    H160580   2.401   6.668  15.905  0.6058 -0.7854 -0.7874
13055TIP3    H260581   2.335   6.535  15.877 -0.7965 -0.6565  1.6388
13056TIP3   OH260582   1.949   0.298   2.756  0.1991  0.0952 -0.7263
13056TIP3    H160583   1.903   0.360   2.699  0.5955  0.8018 -0.2941
13056TIP3    H260584   1.891   0.287   2.831  0.2269  0.1113 -0.7025
13057TIP3   OH260585   2.407   1.426  13.248 -0.3988 -0.5482  0.2815
13057TIP3    H160586   2.473   1.495  13.253  0.0943 -0.8584 -1.5675
13057TIP3    H260587   2.381   1.423  13.156 -0.7206 -2.5447  0.3985
13058TIP3   OH260588   1.330   3.284  12.245 -0.4589 -0.3386  0.3532
13058TIP3    H160589   1.293   3.307  12.330 -2.6417 -0.2709 -0.5458
13058TIP3    H260590   1.266   3.225  12.206 -0.9852  1.7842 -2.3680
13059TIP3   OH260591   5.840   5.934   1.325  0.9718  0.5258 -0.5476
13059TIP3    H160592   5.921   5.884   1.327  1.6652  1.6086 -0.8544
13059TIP3    H260593   5.854   6.006   1.388 -0.2026  0.0661  0.2915
13060TIP3   OH260594   2.248   0.013   1.977  0.0606  0.3531  0.0720
13060TIP3    H160595   2.214   0.090   2.023  1.1068  1.4916 -0.9865
13060TIP3    H260596   2.326   0.045   1.931  0.5266 -1.3483 -0.4011
13061TIP3   OH260597   1.301   0.589   4.772 -0.0237 -0.3325 -0.0775
13061TIP3    H160598   1.245   0.617   4.700  0.2106  0.1827 -0.0653
13061TIP3    H260599   1.390   0.601   4.739  0.0888 -0.0140  0.3177
13062TIP3   OH260600   0.645   2.657  14.197 -0.0286  0.3448 -0.7410
13062TIP3    H160601   0.671   2.746  14.221  4.1578 -0.7172 -0.6016
13062TIP3    H260602   0.647   2.608  14.279  0.0568 -0.3369 -1.1436
13063TIP3   OH260603   6.416   2.530   6.201  0.2782 -0.0088 -0.2693
13063TIP3    H160604   6.479   2.588   6.245  0.0548  0.1297 -0.1328
13063TIP3    H260605   6.434   2.541   6.108 -1.2646  2.0185 -0.3930
13064TIP3   OH260606   0.795   3.253  14.994  0.3686 -0.3501 -0.0317
13064TIP3    H160607   0.788   3.162  14.963 -1.4338  0.1114 -1.1247
13064TIP3    H260608   0.728   3.259  15.062  0.5427  0.1469  0.0984
13065TIP3   OH260609   6.411   4.617   5.182  0.1569 -0.0180  0.0668
13065TIP3    H160610   6.332   4.605   5.130  1.1251  0.3156 -1.5217
13065TIP3    H260611   6.459   4.688   5.139  1.5940 -0.5754  0.6577
13066TIP3   OH260612   6.694   5.475  12.193 -0.1122  0.4042 -0.2798
13066TIP3    H160613   6.686   5.387  12.230 -2.6362 -0.3779 -2.3475
13066TIP3    H260614   6.624   5.525  12.235 -1.8377 -0.0100 -2.4476
13067TIP3   OH260615   0.571   0.901  12.028 -0.0232 -0.7241 -0.4970
13067TIP3    H160616   0.552   0.994  12.037 -1.3723 -0.9961 -0.2251
13067TIP3    H260617   0.647   0.896  11.971  1.5957  0.6434  1.4115
13068TIP3   OH260618   0.126   2.706  11.722 -0.1528  0.0822 -0.6741
13068TIP3    H160619   0.123   2.789  11.674 -1.0673 -0.6305 -1.8952
13068TIP3    H260620   0.068   2.720  11.797  1.6410  1.3599  0.5446
13069TIP3   OH260621   4.704   6.270  14.757 -0.3046 -0.0596 -0.0804
13069TIP3    H160622   4.694   6.313  14.671  3.1580 -1.0925 -1.1676
13069TIP3    H260623   4.636   6.203  14.758 -1.7884  1.3629 -1.0546
13070TIP3   OH260624   5.568   1.504   4.362  0.2043 -0.6004  0.4393
13070TIP3    H160625   5.615   1.569   4.416  0.6015  0.0027 -0.5905
13070TIP3    H260626   5.601   1.519   4.274  0.8992 -2.7519  0.2729
13071TIP3   OH260627   4.490   5.653  15.019  0.1646  0.1480  0.0120
13071TIP3    H160628   4.498   5.658  15.114  1.2277 -3.5425  0.2524
13071TIP3    H260629   4.396   5.639  15.004  0.2116 -0.9282  0.6629
13072TIP3   OH260630   6.424   0.938   3.892 -0.1846  0.0108  0.3937
13072TIP3    H160631   6.496   0.879   3.870 -0.0306  0.0233  0.8631
13072TIP3    H260632   6.463   1.025   3.891 -0.2524  0.0413  0.3894
13073TIP3   OH260633   0.428   2.062  14.969 -0.3105  0.0841 -0.0525
13073TIP3    H160634   0.506   2.058  15.026 -0.3649 -1.5911 -0.0220
13073TIP3    H260635   0.382   1.980  14.988 -0.4395 -0.4277 -2.3703
13074TIP3   OH260636   6.775   5.934   3.985  0.0301 -0.2444  0.2002
13074TIP3    H160637   6.736   6.018   3.963  1.7635  0.7550  0.6879
13074TIP3    H260638   6.754   5.921   4.077 -1.7772 -1.2864 -0.3082
13075TIP3   OH260639   6.182   4.137  13.494 -0.0587 -0.2168  0.0718
13075TIP3    H160640   6.229   4.058  13.466 -0.7429 -0.1063 -1.4869
13075TIP3    H260641   6.148   4.115  13.581  0.8992 -1.1371  0.2298
13076TIP3   OH260642   4.200   4.157   2.821 -0.0497 -0.0449  0.2311
13076TIP3    H160643   4.225   4.234   2.873 -2.1653  0.4355  0.6351
13076TIP3    H260644   4.232   4.175   2.733  0.6431  0.6592  0.6140
13077TIP3   OH260645   0.760   5.046  15.595  0.2311  0.0670  0.3778
13077TIP3    H160646   0.828   5.020  15.656 -1.1297 -4.5743  0.2968
13077TIP3    H260647   0.678   5.034  15.643 -0.7215  1.7048 -0.7301
13078TIP3   OH260648   4.227   0.891  14.076  0.2690  0.2650  0.1241
13078TIP3    H160649   4.273   0.807  14.077 -0.4272 -0.1259 -0.0518
13078TIP3    H260650   4.274   0.943  14.010  0.0967 -0.3361 -0.4843
13079TIP3   OH260651   3.614   0.409  14.701  0.6389 -0.0355 -0.1113
13079TIP3    H160652   3.666   0.388  14.624  1.6486  0.4894  0.4156
13079TIP3    H260653   3.602   0.504  14.696  1.5371  0.1423  0.8744
13080TIP3   OH260654   0.506   1.082  14.155  0.3496 -0.3212  0.0072
13080TIP3    H160655   0.527   0.991  14.172 -2.2450 -1.0493 -0.2850
13080TIP3    H260656   0.538   1.098  14.066  1.0016 -0.8625  0.1347
13081TIP3   OH260657   6.256   3.508   6.244 -0.2972 -0.1936 -0.2400
13081TIP3    H160658   6.244   3.570   6.171  0.6161 -0.5952 -0.7519
13081TIP3    H260659   6.351   3.500   6.252 -0.4072 -0.8918  0.3739
13082TIP3   OH260660   1.823   3.787  13.318 -0.2632 -0.1678  0.0865
13082TIP3    H160661   1.918   3.778  13.318 -0.2162 -0.0282  1.8379
13082TIP3    H260662   1.796   3.756  13.231  1.4752  1.1775 -1.0087
13083TIP3   OH260663   3.906   2.849   1.657 -0.7959  0.0279 -0.2049
13083TIP3    H160664   3.935   2.796   1.583  0.5608  0.8629 -0.2928
13083TIP3    H260665   3.955   2.931   1.650 -1.4855  0.5811  0.9783
13084TIP3   OH260666   1.238   5.195  14.646  0.0322 -0.8401 -0.2810
13084TIP3    H160667   1.169   5.155  14.592 -0.8246 -0.5352  0.5446
13084TIP3    H260668   1.238   5.287  14.620 -0.4342 -0.6764  0.2586
13085TIP3   OH260669   0.520   1.664  11.327  0.1757 -0.2791 -0.0213
13085TIP3    H160670   0.457   1.725  11.366  0.2704  0.2833 -0.7236
13085TIP3    H260671   0.575   1.637  11.400 -0.1535  0.1337  0.3893
13086TIP3   OH260672   5.631   6.801  14.728 -0.5280  0.1859  0.3336
13086TIP3    H160673   5.696   6.779  14.794 -1.1442  0.0081  0.8961
13086TIP3    H260674   5.630   6.726  14.669 -0.3082  0.1390  0.3905
13087TIP3   OH260675   5.059   2.902  12.019 -0.0154 -0.0454  0.6626
13087TIP3    H160676   5.127   2.902  12.086  1.4504  0.1067 -0.7750
13087TIP3    H260677   5.018   2.988  12.027  1.2307  0.6041  0.3296
13088TIP3   OH260678   5.247   3.701  10.925 -0.2102 -0.1068 -0.0870
13088TIP3    H160679   5.271   3.751  10.847  0.6545 -0.0222  0.2161
13088TIP3    H260680   5.154   3.681  10.914  0.2401 -1.4876 -1.9316
13089TIP3   OH260681   1.031   2.390   2.333  0.6135  0.6076 -0.8342
13089TIP3    H160682   0.950   2.364   2.289  1.3878 -0.2476 -1.8051
13089TIP3    H260683   1.048   2.320   2.396  1.5189 -0.1859 -1.8987
13090TIP3   OH260684   4.538   1.549   2.259 -0.3727 -0.1570  0.1912
13090TIP3    H160685   4.520   1.626   2.206  0.9553 -2.0882 -3.4074
13090TIP3    H260686   4.613   1.575   2.314 -0.8338  1.4968  0.0944
13091TIP3   OH260687   6.421   4.131  16.751  0.0564 -0.1394 -0.1692
13091TIP3    H160688   6.376   4.213  16.772  2.0875  0.9664  0.1739
13091TIP3    H260689   6.512   4.148  16.773  0.4822 -2.6713  0.2859
13092TIP3   OH260690   1.797   6.622   4.994  0.2634 -0.1543 -0.0413
13092TIP3    H160691   1.724   6.568   5.027  0.0250  1.1522  1.7275
13092TIP3    H260692   1.798   6.605   4.900 -1.7936 -0.8556 -0.0017
13093TIP3   OH260693   6.393   0.226  15.285  0.5022 -0.2848  0.1829
13093TIP3    H160694   6.315   0.171  15.295 -0.3019 -0.0671 -3.3686
13093TIP3    H260695   6.430   0.199  15.201  2.4286  1.8266  0.2698
13094TIP3   OH260696   0.346   2.336  11.493 -0.3121  0.1214 -0.8133
13094TIP3    H160697   0.268   2.353  11.547  0.2284  2.7940 -0.7558
13094TIP3    H260698   0.313   2.335  11.404 -0.5724  0.0696 -0.7194
13095TIP3   OH260699   1.828   2.142  16.288  0.2489 -0.4513 -0.2768
13095TIP3    H160700   1.803   2.113  16.200 -1.8974  0.0954  0.1058
13095TIP3    H260701   1.841   2.237  16.278  0.2168 -0.4226 -0.0366
13096TIP3   OH260702   0.700   4.334   3.017  0.7664  0.1632 -0.0531
13096TIP3    H160703   0.615   4.312   3.055 -0.4122 -1.2197 -3.0929
13096TIP3    H260704   0.691   4.424   2.987 -1.5736 -1.2276 -4.4424
13097TIP3   OH260705   4.884   1.056  11.933  0.1142  0.2145  0.1219
13097TIP3    H160706   4.810   0.998  11.950 -0.6986  1.7645  2.4946
13097TIP3    H260707   4.948   1.033  12.001  0.5552  0.8596 -0.0657
13098TIP3   OH260708   2.590   3.025  12.548 -0.5840 -0.3310  0.2558
13098TIP3    H160709   2.681   3.000  12.565 -0.3991  1.8798  3.2198
13098TIP3    H260710   2.580   3.015  12.454  2.7236 -0.6445 -0.1789
13099TIP3   OH260711   1.657   4.408  12.579  0.0319  0.3917  0.1336
13099TIP3    H160712   1.637   4.359  12.659 -1.8383  1.6728  0.5024
13099TIP3    H260713   1.586   4.387  12.519  0.4527  0.8581 -0.5503
13100TIP3   OH260714   5.115   1.326  13.151 -0.4664  0.3565  0.4667
13100TIP3    H160715   5.171   1.295  13.222 -1.3068 -1.4666  0.3807
13100TIP3    H260716   5.026   1.309  13.181 -0.8723  0.3982 -0.6487
13101TIP3   OH260717   3.600   6.300   3.549  0.0985  0.3369 -0.3297
13101TIP3    H160718   3.525   6.360   3.549 -0.4612 -0.2996  1.5282
13101TIP3    H260719   3.612   6.277   3.457 -1.4199  1.1495 -0.7632
13102TIP3   OH260720   0.096   5.736  13.669 -1.0030 -0.0111 -0.0779
13102TIP3    H160721   0.192   5.741  13.662 -1.0706  0.6750 -0.7111
13102TIP3    H260722   0.075   5.781  13.750 -0.7687 -0.5495  0.2913
13103TIP3   OH260723   6.298   0.353  11.419 -0.1116 -1.3414  0.4391
13103TIP3    H160724   6.335   0.421  11.364 -0.2285 -1.3611  0.3360
13103TIP3    H260725   6.320   0.380  11.509 -1.2116 -0.5171  0.4867
13104TIP3   OH260726   0.789   2.486  12.582  0.2592  0.8023  0.3705
13104TIP3    H160727   0.717   2.481  12.644  1.0851  1.6961  1.4530
13104TIP3    H260728   0.753   2.534  12.508 -0.3056  1.1063  0.8334
13105TIP3   OH260729   4.718   6.609   5.372 -0.0474 -0.3536 -1.1778
13105TIP3    H160730   4.629   6.591   5.340 -0.0028 -0.5951 -1.1648
13105TIP3    H260731   4.725   6.560   5.454 -0.8793  1.8302  0.3191
13106TIP3   OH260732   0.489   3.830  12.007 -0.6696  0.3260 -0.0175
13106TIP3    H160733   0.466   3.851  11.916 -1.6552  1.4858  0.4659
13106TIP3    H260734   0.570   3.879  12.023 -0.4218  0.0147 -0.3032
13107TIP3   OH260735   0.863   2.199   0.371  0.3823  0.6309 -0.0369
13107TIP3    H160736   0.881   2.202   0.277  0.4058 -0.3333 -0.0733
13107TIP3    H260737   0.794   2.133   0.380  0.0286  1.0679  0.5782
13108TIP3   OH260738   1.715   6.040   2.556  0.1334  0.7029  0.2560
13108TIP3    H160739   1.734   5.952   2.589 -1.1570  0.9467  1.7734
13108TIP3    H260740   1.624   6.056   2.583 -0.2822  1.7833 -1.6349
13109TIP3   OH260741   2.547   3.599   0.694 -0.0311 -0.3409 -0.0586
13109TIP3    H160742   2.589   3.568   0.614 -0.4861 -0.1080 -0.3917
13109TIP3    H260743   2.558   3.694   0.691  0.5243 -0.3810  0.4852
13110TIP3   OH260744   3.958   1.567  14.399 -0.0803 -0.0584  0.2235
13110TIP3    H160745   3.881   1.583  14.343 -1.2499 -0.0082  1.7842
13110TIP3    H260746   4.020   1.635  14.373 -2.0583  2.4086  1.5039
13111TIP3   OH260747   3.445   2.137   0.030 -0.0375  0.1347  0.0093
13111TIP3    H160748   3.401   2.083  -0.035 -0.2893  1.0645 -0.6103
13111TIP3    H260749   3.482   2.210  -0.020 -0.5131  1.0451  0.9413
13112TIP3   OH260750   6.587   6.222   4.641 -0.0996  0.1010  0.3317
13112TIP3    H160751   6.619   6.173   4.717 -1.1449  1.8370  1.9824
13112TIP3    H260752   6.561   6.155   4.578 -0.1495 -1.4248  1.9073
13113TIP3   OH260753   1.250   0.497   5.194  0.3521 -0.0997 -0.4256
13113TIP3    H160754   1.300   0.533   5.121 -0.7234 -1.4601 -1.9124
13113TIP3    H260755   1.190   0.434   5.153 -0.6719 -0.5132  1.5803
13114TIP3   OH260756   2.988   0.841   2.541 -0.2158  0.0502  0.0599
13114TIP3    H160757   3.042   0.852   2.620 -0.0135  0.5202 -0.1389
13114TIP3    H260758   2.951   0.753   2.549  0.1029 -0.0477  0.4958
13115TIP3   OH260759   4.705   3.953  15.895  0.4777  0.4976  0.2984
13115TIP3    H160760   4.774   3.967  15.960 -0.1974 -1.1455  1.4516
13115TIP3    H260761   4.684   3.860  15.902 -0.5078  0.5346 -1.4185
13116TIP3   OH260762   5.674   5.470  14.873 -0.2984  0.4171  0.4820
13116TIP3    H160763   5.716   5.423  14.945  0.8771 -0.1825 -0.5624
13116TIP3    H260764   5.588   5.429  14.864  0.6097 -1.3948 -0.2489
13117TIP3   OH260765   0.491   4.474  15.286 -0.2236 -0.4458  0.5050
13117TIP3    H160766   0.488   4.533  15.210  0.7367 -0.4046  0.4886
13117TIP3    H260767   0.545   4.400  15.257  0.8938 -0.0176  1.4272
13118TIP3   OH260768   3.289   1.400   4.289  0.1421  0.4293 -0.2268
13118TIP3    H160769   3.276   1.440   4.203 -1.1122 -1.1862 -0.8442
13118TIP3    H260770   3.269   1.470   4.351  1.1847  1.6616 -1.2183
13119TIP3   OH260771   5.563   5.740   2.926  0.0486  0.2172  0.0260
13119TIP3    H160772   5.527   5.758   3.012  2.1418 -2.6075  1.6607
13119TIP3    H260773   5.524   5.657   2.900 -0.3665  0.8993 -1.7127
13120TIP3   OH260774   2.599   5.190  14.755 -0.0598  0.3555  0.2742
13120TIP3    H160775   2.504   5.187  14.745  0.0917 -1.3375 -1.0093
13120TIP3    H260776   2.632   5.203  14.667  0.9084  0.8338  0.7019
13121TIP3   OH260777   5.038   2.594   2.656  0.0185 -0.3654  0.6128
13121TIP3    H160778   5.119   2.555   2.690  1.5415  0.6527 -1.6558
13121TIP3    H260779   5.050   2.688   2.669 -1.5185 -0.2666  1.6171
13122TIP3   OH260780   3.124   2.197  15.320 -0.8734  0.3089 -0.0544
13122TIP3    H160781   3.106   2.112  15.282  0.4204  0.4010 -0.9346
13122TIP3    H260782   3.179   2.178  15.396 -1.0990  0.3295  0.1177
13123TIP3   OH260783   6.799   0.582  14.016  0.5741  0.0787  0.4443
13123TIP3    H160784   6.725   0.528  14.042  1.3312 -0.5564  1.3607
13123TIP3    H260785   6.875   0.540  14.056  1.9162 -1.1249 -2.9485
13124TIP3   OH260786   4.971   3.945   6.222 -1.1806 -0.3478  0.5113
13124TIP3    H160787   4.908   3.873   6.222 -1.0154 -0.5443 -1.4457
13124TIP3    H260788   5.016   3.937   6.306 -1.2337 -2.4762  0.3947
13125TIP3   OH260789   5.517   3.953   4.170  0.2218  0.0788 -0.0059
13125TIP3    H160790   5.468   3.892   4.225 -1.2078  0.2614 -1.0191
13125TIP3    H260791   5.582   3.898   4.126  2.4191  0.1614  2.8892
13126TIP3   OH260792   2.140   6.831   5.576 -0.0098  0.6903  0.4229
13126TIP3    H160793   2.119   6.746   5.615  0.1352  1.1163  1.4652
13126TIP3    H260794   2.149   6.890   5.651 -1.7271  2.0045 -0.3303
13127TIP3   OH260795   0.036   4.965  12.768  0.2616 -0.1082  0.3146
13127TIP3    H160796   0.114   4.924  12.730  2.0607  0.6651  2.9073
13127TIP3    H260797   0.064   5.054  12.790 -1.6635  0.4945  0.4678
13128TIP3   OH260798   0.298   4.863   3.223  0.5426  0.0350 -0.0895
13128TIP3    H160799   0.236   4.834   3.290 -1.3378 -1.5783 -2.3558
13128TIP3    H260800   0.384   4.854   3.265 -0.5228 -0.9706  2.0742
13129TIP3   OH260801   4.646   4.128  14.738  0.0555  0.2379  0.5447
13129TIP3    H160802   4.656   4.033  14.746 -0.6657 -0.0678 -1.5381
13129TIP3    H260803   4.726   4.164  14.775  0.0914 -1.1443  1.8915
13130TIP3   OH260804   6.117   5.149   0.324 -0.3431 -0.1764  0.4933
13130TIP3    H160805   6.144   5.168   0.234 -1.0127 -1.3468  0.0268
13130TIP3    H260806   6.147   5.060   0.340 -0.3886 -0.0383  1.3678
13131TIP3   OH260807   0.420   4.113  12.681 -0.7201 -0.0344 -0.2252
13131TIP3    H160808   0.357   4.068  12.624 -0.1552 -1.5610  0.3024
13131TIP3    H260809   0.471   4.042  12.720  1.7106  1.1600 -1.0328
13132TIP3   OH260810   1.392   6.090  14.130 -0.2484  0.3230  0.1990
13132TIP3    H160811   1.469   6.116  14.079  0.2063 -1.7119 -0.2324
13132TIP3    H260812   1.322   6.082  14.065  0.1036 -1.3613 -0.0167
13133TIP3   OH260813   1.984   0.416  13.460  0.4621  0.2921 -0.5188
13133TIP3    H160814   2.034   0.496  13.445 -0.2390  0.5291 -1.6925
13133TIP3    H260815   1.893   0.442  13.448  0.1461 -0.4509  0.1918
13134TIP3   OH260816   4.511   6.313   5.778  0.2960  0.0541  0.0090
13134TIP3    H160817   4.537   6.332   5.869  0.9811  0.2958 -0.2312
13134TIP3    H260818   4.575   6.360   5.725  0.9512 -1.4759 -0.6164
13135TIP3   OH260819   6.780   0.628   4.381 -0.1945 -0.2761  0.3944
13135TIP3    H160820   6.727   0.661   4.309 -0.9839  1.7350  1.8128
13135TIP3    H260821   6.870   0.643   4.353 -0.4973  0.6991 -0.0949
13136TIP3   OH260822   2.378   6.501  11.127 -0.3822  0.2529  0.5154
13136TIP3    H160823   2.322   6.510  11.203  0.6379 -0.2356  1.3455
13136TIP3    H260824   2.325   6.453  11.063 -1.3288  0.8919  0.8161
13137TIP3   OH260825   4.565   1.075   2.109  0.0736 -0.1826  0.1814
13137TIP3    H160826   4.495   1.115   2.057  1.2445 -0.7400 -1.9116
13137TIP3    H260827   4.645   1.115   2.076  0.8913 -0.7344  1.4300
13138TIP3   OH260828   2.291   1.132   6.279  0.0089  0.3736  0.3799
13138TIP3    H160829   2.255   1.205   6.329  1.4979  1.6688 -0.3396
13138TIP3    H260830   2.271   1.152   6.188  0.1902 -0.2588  0.1906
13139TIP3   OH260831   1.466   0.907  15.448 -0.1648 -0.7349  0.1631
13139TIP3    H160832   1.381   0.869  15.425 -0.2590  0.5751 -1.8910
13139TIP3    H260833   1.525   0.832  15.458 -1.2073 -1.5796  0.1532
13140TIP3   OH260834   4.841   5.680  13.705  0.0836  0.1496  0.5906
13140TIP3    H160835   4.914   5.711  13.759  0.9417  0.4718 -0.7040
13140TIP3    H260836   4.821   5.753  13.647 -0.4353 -0.3754  0.0945
13141TIP3   OH260837   5.673   1.499  13.667 -0.1983 -0.1489 -0.1037
13141TIP3    H160838   5.671   1.550  13.747  0.8004  1.3168 -0.9656
13141TIP3    H260839   5.694   1.410  13.696 -1.4399 -0.0076  1.3730
13142TIP3   OH260840   4.777   5.516   4.354  0.4213  0.0783  0.1270
13142TIP3    H160841   4.730   5.598   4.337  2.3063  1.3372  0.7544
13142TIP3    H260842   4.757   5.495   4.445 -0.9740 -0.8365 -0.3460
13143TIP3   OH260843   3.914   2.239  16.906 -0.3298  0.1895  0.1597
13143TIP3    H160844   3.992   2.185  16.913 -0.6679 -0.4503 -0.8985
13143TIP3    H260845   3.855   2.191  16.848 -0.9182  1.3560 -0.2509
13144TIP3   OH260846   5.545   1.702   6.105  0.4241 -0.5886 -0.0977
13144TIP3    H160847   5.614   1.731   6.165  0.2259  0.1828 -0.2379
13144TIP3    H260848   5.555   1.757   6.028  0.8533 -1.7672 -0.9099
13145TIP3   OH260849   0.372   6.692  11.080 -0.0697 -0.1169  0.2104
13145TIP3    H160850   0.283   6.728  11.081 -0.0442  0.0835 -1.4194
13145TIP3    H260851   0.416   6.741  11.011  0.8782 -1.1901  0.0290
13146TIP3   OH260852   0.038   2.723   0.642 -0.3525 -0.2017 -0.5028
13146TIP3    H160853  -0.004   2.644   0.677 -0.4629 -0.2928 -0.8356
13146TIP3    H260854   0.126   2.723   0.681 -0.8549  0.3059  0.6649
13147TIP3   OH260855   4.671   6.247  15.199  0.1277 -0.2561  0.5521
13147TIP3    H160856   4.696   6.230  15.108 -0.8978 -2.1823  0.5861
13147TIP3    H260857   4.725   6.187  15.250 -2.3113 -2.3964  0.8291
13148TIP3   OH260858   4.067   1.059  13.610  0.0156  0.1799  0.2140
13148TIP3    H160859   4.034   0.969  13.613  1.5907 -0.4177  0.7297
13148TIP3    H260860   4.130   1.060  13.539  0.2045  0.8066  0.3787
13149TIP3   OH260861   1.648   3.294   3.534 -0.3197 -0.5750 -0.5368
13149TIP3    H160862   1.696   3.229   3.482 -0.3166 -2.3246  1.5024
13149TIP3    H260863   1.717   3.344   3.578 -0.3481 -0.2954 -0.8037
13150TIP3   OH260864   5.354   5.918   3.833  0.0670  0.1671 -0.0151
13150TIP3    H160865   5.446   5.934   3.814  0.4293 -1.7915 -0.1575
13150TIP3    H260866   5.330   5.985   3.897  2.4891 -1.1018  2.4449
13151TIP3   OH260867   5.404   4.394   3.092  0.2208 -0.3820  0.1170
13151TIP3    H160868   5.393   4.483   3.126  2.2580  0.3157 -0.9121
13151TIP3    H260869   5.499   4.380   3.091  0.0737 -1.6647 -1.9685
13152TIP3   OH260870   6.003   3.001   1.347 -0.0756  0.3220  0.3359
13152TIP3    H160871   6.046   3.043   1.273 -0.5839  0.7179  0.2598
13152TIP3    H260872   5.937   3.064   1.376 -0.3063 -0.0908  0.7289
13153TIP3   OH260873   3.050   4.205   5.583  0.4000 -0.7697 -0.2148
13153TIP3    H160874   2.989   4.266   5.541  0.4922  0.3009  1.1550
13153TIP3    H260875   2.999   4.167   5.655  0.7172 -1.4413 -0.3401
13154TIP3   OH260876   5.444   5.476  13.508  0.8908 -0.3673 -0.1506
13154TIP3    H160877   5.379   5.439  13.567  1.1466 -0.3890  0.1182
13154TIP3    H260878   5.457   5.407  13.442  1.9772 -1.1279  0.8089
13155TIP3   OH260879   3.060   5.559   5.351  0.1255  0.0991 -0.6969
13155TIP3    H160880   3.028   5.629   5.295 -2.4636 -0.7330 -0.4231
13155TIP3    H260881   3.111   5.503   5.293 -0.2855  0.6381 -1.6019
13156TIP3   OH260882   6.415   1.554  14.444 -0.1173  0.3489 -0.1878
13156TIP3    H160883   6.478   1.626  14.446  1.0883 -0.6878  1.1491
13156TIP3    H260884   6.375   1.559  14.357  2.1147  0.8113 -1.2379
13157TIP3   OH260885   0.211   4.275   2.824 -0.4790 -0.0572 -0.6154
13157TIP3    H160886   0.287   4.221   2.798 -0.7748 -0.4963 -0.5756
13157TIP3    H260887   0.241   4.365   2.813  0.2614 -0.2174 -0.0033
13158TIP3   OH260888   1.376   1.039  14.702 -0.5003  0.0059  0.7335
13158TIP3    H160889   1.289   0.999  14.706 -0.5915  0.1529  0.3062
13158TIP3    H260890   1.374   1.091  14.622 -0.0586  0.1070  0.7882
13159TIP3   OH260891   1.959   2.462  15.286 -0.5657  0.4189  0.0026
13159TIP3    H160892   2.043   2.434  15.321 -0.1103 -2.6285 -2.9946
13159TIP3    H260893   1.978   2.542  15.237  0.4299  0.2152  0.0460
13160TIP3   OH260894   0.848   6.596   2.600 -0.2820  0.4686 -0.0006
13160TIP3    H160895   0.778   6.657   2.578 -0.5213  0.7945  1.5427
13160TIP3    H260896   0.854   6.538   2.524 -0.4353  2.0344 -1.2621
13161TIP3   OH260897   3.204   0.920   4.891  0.3464  0.5526  0.8512
13161TIP3    H160898   3.174   0.910   4.981  1.5833  1.1569  1.3642
13161TIP3    H260899   3.261   0.845   4.875  2.7057  2.0454  1.7288
13162TIP3   OH260900   3.756   2.405  11.895 -0.2282  0.4435 -0.2056
13162TIP3    H160901   3.678   2.450  11.865 -1.1716 -1.1685 -0.3042
13162TIP3    H260902   3.726   2.349  11.967  1.0727  0.6869  0.5529
13163TIP3   OH260903   6.021   2.774  12.490 -0.0060 -0.1671  0.2226
13163TIP3    H160904   6.044   2.683  12.509 -0.5628 -0.4489 -0.4191
13163TIP3    H260905   5.925   2.775  12.494 -0.0106  0.3470  0.0201
13164TIP3   OH260906   6.327   6.042  12.875 -0.2763  0.3457 -0.2884
13164TIP3    H160907   6.252   6.057  12.932 -1.2601 -0.8637 -1.2106
13164TIP3    H260908   6.289   6.035  12.787  1.0161  0.5238 -0.8844
13165TIP3   OH260909   6.571   3.524  16.118  0.0849  0.1769  0.1224
13165TIP3    H160910   6.564   3.619  16.103 -3.2287  0.1413  0.6487
13165TIP3    H260911   6.528   3.485  16.043 -0.5333 -0.7898  0.9560
13166TIP3   OH260912   4.628   5.582   0.924  0.4370  0.4764  0.4197
13166TIP3    H160913   4.615   5.506   0.868 -0.4577  2.2724 -1.9735
13166TIP3    H260914   4.591   5.555   1.009 -1.4170 -1.1985 -0.8154
13167TIP3   OH260915   6.386   0.202   2.456 -0.5569 -0.5473 -0.3318
13167TIP3    H160916   6.458   0.230   2.399 -0.4200 -1.3694 -0.5805
13167TIP3    H260917   6.430   0.176   2.537 -0.2677 -3.1903 -1.2368
13168TIP3   OH260918   6.419   6.306  13.808 -0.2508 -0.0700 -0.1562
13168TIP3    H160919   6.457   6.221  13.829  2.4472  1.2815  0.8672
13168TIP3    H260920   6.489   6.354  13.764 -2.2031  1.1588 -2.1522
13169TIP3   OH260921   4.505   4.533  15.625  0.1325 -0.2207  0.4158
13169TIP3    H160922   4.526   4.474  15.552  0.5025  1.3668 -0.8294
13169TIP3    H260923   4.591   4.559  15.659 -0.0303 -0.3764  0.9588
13170TIP3   OH260924   6.000   1.964  15.799  0.0823  0.4958 -0.0509
13170TIP3    H160925   6.094   1.947  15.798 -0.2215 -1.4795 -1.1379
13170TIP3    H260926   5.962   1.883  15.832 -1.2931  0.9244 -0.5203
13171TIP3   OH260927   5.035   0.603  15.589 -0.6361  0.3377  0.2012
13171TIP3    H160928   4.977   0.654  15.533 -0.9903 -1.1411 -0.8350
13171TIP3    H260929   4.981   0.531  15.621  0.4028 -0.6372 -0.1524
13172TIP3   OH260930   5.604   3.565   0.222 -0.1701 -0.3696  0.1196
13172TIP3    H160931   5.601   3.497   0.155 -1.3978 -0.4108  0.1960
13172TIP3    H260932   5.514   3.574   0.252  0.3889 -0.6110  2.0440
13173TIP3   OH260933   2.695   5.340  13.905 -0.0151  0.4735 -0.6305
13173TIP3    H160934   2.662   5.267  13.852  0.3134 -1.0656  1.1683
13173TIP3    H260935   2.637   5.343  13.981  0.1281  1.9688 -0.5471
13174TIP3   OH260936   0.448   5.524  14.627  0.3977 -0.4643 -0.2813
13174TIP3    H160937   0.407   5.442  14.656  0.0092 -0.7092 -1.4604
13174TIP3    H260938   0.380   5.568  14.576  0.5051  0.7457  0.5771
13175TIP3   OH260939   4.512   0.770   4.187  0.0088 -0.0463 -0.3286
13175TIP3    H160940   4.429   0.742   4.226 -0.7741 -0.4954 -2.2116
13175TIP3    H260941   4.579   0.727   4.240 -1.0242 -1.2489  0.0405
13176TIP3   OH260942   0.374   2.772  14.460  0.3104  0.1174 -0.1244
13176TIP3    H160943   0.307   2.840  14.468  0.8059  0.9309 -2.2416
13176TIP3    H260944   0.325   2.689  14.466 -0.9010  0.6912 -1.5345
13177TIP3   OH260945   2.853   2.653  11.155  0.1723  0.5005  0.2885
13177TIP3    H160946   2.809   2.569  11.168  0.8234  0.1324  0.1571
13177TIP3    H260947   2.840   2.674  11.062 -2.6626  2.0967  0.9239
13178TIP3   OH260948   5.833   6.439   5.782  0.2493  0.3940  0.5248
13178TIP3    H160949   5.829   6.433   5.878  1.0428 -2.4198  0.4665
13178TIP3    H260950   5.797   6.356   5.751 -0.0645  1.2860 -1.6370
13179TIP3   OH260951   6.750   5.552  16.821  0.2504 -0.0720 -0.3310
13179TIP3    H160952   6.705   5.635  16.839  0.9114  0.3213 -0.4473
13179TIP3    H260953   6.700   5.512  16.750 -0.9586 -0.4914  0.7273
13180TIP3   OH260954   6.056   1.554  11.591  0.4533 -0.0096  0.0554
13180TIP3    H160955   5.966   1.565  11.562  0.6943 -0.2652 -0.8292
13180TIP3    H260956   6.060   1.598  11.676 -0.5234 -0.0813  0.1445
13181TIP3   OH260957   0.214   4.235  12.842 -0.2996 -0.2236  0.3549
13181TIP3    H160958   0.290   4.208  12.790  1.1232  0.9037  1.7416
13181TIP3    H260959   0.205   4.167  12.908 -1.0954 -0.8222 -0.3491
13182TIP3   OH260960   3.042   5.561   2.223  0.1924 -0.0367 -0.4600
13182TIP3    H160961   2.975   5.522   2.279 -0.6088  1.1917 -0.5282
13182TIP3    H260962   3.118   5.502   2.232  0.0449  0.0234  1.7856
13183TIP3   OH260963   1.986   4.774  15.047  0.2765 -0.0388 -0.4733
13183TIP3    H160964   1.936   4.844  15.090  1.4322  0.9346 -0.6363
13183TIP3    H260965   2.002   4.807  14.959  1.2831 -0.2528 -0.3892
13184TIP3   OH260966   0.906   2.582  16.786 -0.2444  0.2769 -0.1615
13184TIP3    H160967   0.865   2.495  16.780 -0.1893  0.1016  1.5165
13184TIP3    H260968   0.860   2.635  16.721 -0.8404 -0.7929 -0.6371
13185TIP3   OH260969   6.277   1.724   3.274 -0.4235  0.2762  0.0747
13185TIP3    H160970   6.355   1.772   3.304  1.0336 -1.6559 -0.4423
13185TIP3    H260971   6.204   1.782   3.297  0.8662  0.8348  3.4798
13186TIP3   OH260972   5.938   1.177   5.141  0.2769 -0.3656 -0.3224
13186TIP3    H160973   5.972   1.115   5.206  1.1659  0.6721  0.2318
13186TIP3    H260974   6.016   1.223   5.109 -0.4550  1.2009  0.0489
13187TIP3   OH260975   0.730   0.928  13.259 -0.1842  0.1483  0.1288
13187TIP3    H160976   0.741   0.987  13.334 -2.2692  1.3222 -0.4246
13187TIP3    H260977   0.694   0.983  13.190  2.0054 -0.8230 -1.9391
13188TIP3   OH260978   3.318   5.810   1.245  0.3442 -0.2745  0.6567
13188TIP3    H160979   3.326   5.721   1.210  1.5148  0.4740 -1.1160
13188TIP3    H260980   3.285   5.797   1.334  0.6988 -2.4832  0.5383
13189TIP3   OH260981   1.944   4.510  12.875 -0.1695 -0.5487  0.0268
13189TIP3    H160982   1.906   4.517  12.962  0.0757  0.0518  0.0927
13189TIP3    H260983   1.909   4.586  12.828  2.0475  0.8804  0.5275
13190TIP3   OH260984   4.057   5.249   4.578  0.2788 -0.0427  0.4654
13190TIP3    H160985   4.068   5.224   4.670  0.4001  0.0427  0.4745
13190TIP3    H260986   4.016   5.336   4.582 -0.4214 -0.3641  0.4318
13191TIP3   OH260987   5.106   1.696  13.868 -0.1829 -0.5276 -0.3361
13191TIP3    H160988   5.077   1.643  13.793  0.3481 -1.4745  0.1128
13191TIP3    H260989   5.025   1.720  13.912 -0.4620 -0.5700 -0.8129
13192TIP3   OH260990   6.669   4.756  14.323  0.2051 -0.2815  0.2003
13192TIP3    H160991   6.648   4.754  14.229 -0.7155  0.4525  0.3709
13192TIP3    H260992   6.764   4.755  14.327  0.2881 -2.8709 -0.6670
13193TIP3   OH260993   4.152   1.111   0.682  0.4737  0.0086  0.2003
13193TIP3    H160994   4.109   1.043   0.734 -0.0426  0.7961  0.8401
13193TIP3    H260995   4.246   1.100   0.701  0.2058  1.6900  3.2205
13194TIP3   OH260996   0.200   5.086  14.115  0.8279 -0.0142 -0.4031
13194TIP3    H160997   0.272   5.055  14.060  0.6645  0.4317 -0.8746
13194TIP3    H260998   0.227   5.063  14.204  0.6995 -1.5432 -0.7203
13195TIP3   OH260999   0.066   0.786   1.270  0.0421  0.0985  0.9982
13195TIP3    H161000   0.132   0.734   1.316  2.7306  1.7043 -0.7238
13195TIP3    H261001   0.060   0.867   1.321 -1.0624 -0.2677  1.4619
13196TIP3   OH261002   4.072   5.980  13.877  0.1972  0.4890 -0.0239
13196TIP3    H161003   4.069   5.927  13.797  2.3924  0.2528 -0.0192
13196TIP3    H261004   3.984   5.972  13.915 -0.9788  0.8100 -2.4939
13197TIP3   OH261005   5.839   4.912  15.139  0.1827  0.2263  0.0715
13197TIP3    H161006   5.909   4.940  15.079  0.0662  0.7321  0.1616
13197TIP3    H261007   5.764   4.967  15.114 -1.2711 -2.5263 -2.2861
13198TIP3   OH261008   4.079   2.920   5.046 -0.0759  0.2553 -0.5436
13198TIP3    H161009   4.122   2.892   4.965 -0.7932 -1.2380 -0.4466
13198TIP3    H261010   4.151   2.944   5.104  0.4471  1.3399 -1.6102
13199TIP3   OH261011   5.447   4.509   3.690  0.4476 -1.1095 -0.3111
13199TIP3    H161012   5.410   4.582   3.641  0.5268 -1.1735 -0.4676
13199TIP3    H261013   5.465   4.544   3.777  0.6918 -0.8814 -0.4529
13200TIP3   OH261014   3.224   1.376  12.803 -0.3317  0.0814  0.1062
13200TIP3    H161015   3.192   1.433  12.733  1.5437  0.3775 -0.5707
13200TIP3    H261016   3.296   1.327  12.763 -0.5981 -1.2960  1.2460
13201TIP3   OH261017   4.104   6.043  14.872 -0.2571  0.3008  0.0635
13201TIP3    H161018   4.015   6.012  14.887 -0.4507  0.2023 -1.1844
13201TIP3    H261019   4.092   6.134  14.844 -0.2616 -0.5265 -3.0276
13202TIP3   OH261020   5.190   5.534   3.702  0.1072 -0.8260  0.3800
13202TIP3    H161021   5.186   5.499   3.791 -2.0794 -1.8150 -0.0661
13202TIP3    H261022   5.104   5.516   3.664  0.4393  0.9892 -1.4247
13203TIP3   OH261023   6.097   5.310  11.520  0.4824 -0.5282 -0.1775
13203TIP3    H161024   6.060   5.318  11.431 -1.3259 -2.0137  0.3572
13203TIP3    H261025   6.119   5.399  11.545 -2.2250  0.4302 -0.8430
13204TIP3   OH261026   4.690   3.699  16.023  0.4936  0.3042  0.2386
13204TIP3    H161027   4.708   3.608  15.999 -0.2480 -0.4757  2.3836
13204TIP3    H261028   4.610   3.695  16.076 -0.9609  2.5256 -1.5792
13205TIP3   OH261029   1.167   1.350  13.975 -0.7876 -0.1248  0.3910
13205TIP3    H161030   1.104   1.408  14.017  1.3678  2.3072  0.5211
13205TIP3    H261031   1.173   1.383  13.885 -0.6215 -1.1727  0.0006
13206TIP3   OH261032   5.972   3.810  16.374  0.0102 -0.1178 -0.5827
13206TIP3    H161033   6.015   3.894  16.384 -0.6008  0.1329  0.0526
13206TIP3    H261034   6.030   3.759  16.317 -0.1154  1.0796 -1.8200
13207TIP3   OH261035   4.057   6.604  13.380  0.5751 -0.3835 -0.0238
13207TIP3    H161036   4.012   6.688  13.388 -0.5629 -0.9146 -0.7143
13207TIP3    H261037   4.107   6.611  13.299 -0.8613 -0.9714 -0.9856
13208TIP3   OH261038   0.297   5.295  15.499 -0.0264  0.2972  0.4798
13208TIP3    H161039   0.365   5.235  15.468 -0.0302  1.5079 -2.0790
13208TIP3    H261040   0.325   5.381  15.469 -1.8470  1.0861  0.8823
13209TIP3   OH261041   0.844   0.634  15.166 -0.0926 -0.0714  0.0142
13209TIP3    H161042   0.751   0.620  15.146  0.5842 -0.3907 -3.3901
13209TIP3    H261043   0.852   0.607  15.257 -3.4058  0.4434  0.6173
13210TIP3   OH261044   2.049   2.233  15.904 -0.1180  0.3313 -0.7414
13210TIP3    H161045   2.028   2.313  15.953  0.0476 -0.6087  0.9619
13210TIP3    H261046   2.133   2.205  15.940 -1.2510 -1.8289  0.4347
13211TIP3   OH261047   2.753   1.807   2.239  0.6232 -0.3441  0.0736
13211TIP3    H161048   2.821   1.741   2.220  1.2578  0.1325  0.6337
13211TIP3    H261049   2.749   1.861   2.161 -0.0903 -1.2018 -0.4962
13212TIP3   OH261050   5.243   0.638   0.165  0.3616 -0.6590  0.4362
13212TIP3    H161051   5.252   0.709   0.229  0.0911 -1.2388  1.1340
13212TIP3    H261052   5.205   0.566   0.215 -0.7874 -0.8075 -0.6117
13213TIP3   OH261053   6.725   5.246  12.365 -0.4973  0.2918  0.0582
13213TIP3    H161054   6.668   5.186  12.415 -0.2953  0.6699  0.7544
13213TIP3    H261055   6.775   5.188  12.307 -2.3288  0.0290 -1.3551
13214TIP3   OH261056   5.193   4.692  13.188  0.1183  0.4003 -0.4960
13214TIP3    H161057   5.105   4.723  13.209 -0.1150  0.1235 -1.0458
13214TIP3    H261058   5.248   4.727  13.258 -0.6090 -0.3552  0.4691
13215TIP3   OH261059   2.909   3.204  12.964  0.0219  0.4529 -0.3054
13215TIP3    H161060   2.975   3.248  13.019 -0.1927  0.0236  0.3089
13215TIP3    H261061   2.945   3.117  12.949  1.3372  1.3805 -3.0959
13216TIP3   OH261062   3.767   0.180  16.889  0.0347 -0.4397 -0.4896
13216TIP3    H161063   3.765   0.092  16.926 -0.0310  0.4139  1.7018
13216TIP3    H261064   3.757   0.238  16.965 -0.8614  1.4447 -1.9495
13217TIP3   OH261065   6.811   0.332  11.198  0.5173 -0.3463 -0.4573
13217TIP3    H161066   6.718   0.320  11.217  0.9601 -0.4155  1.9099
13217TIP3    H261067   6.824   0.288  11.114 -1.2912 -1.6437 -0.1214
13218TIP3   OH261068   0.943   3.546   3.764  0.3056  0.2219 -0.0357
13218TIP3    H161069   1.031   3.511   3.777  0.1825 -0.5204 -1.0899
13218TIP3    H261070   0.923   3.528   3.672 -0.4458  1.5445 -0.1589
13219TIP3   OH261071   0.495   6.088   2.394 -0.0486  0.1876 -0.2013
13219TIP3    H161072   0.548   6.019   2.354 -0.4970  0.9099 -2.1511
13219TIP3    H261073   0.553   6.164   2.397 -0.2271  0.3200 -0.0719
13220TIP3   OH261074   5.698   3.874  14.922 -0.0152  0.1905  0.0867
13220TIP3    H161075   5.743   3.897  14.841  0.9489 -0.0769  0.5367
13220TIP3    H261076   5.768   3.851  14.983 -0.8134 -1.2708  0.4871
13221TIP3   OH261077   2.817   3.573   3.285 -0.0632 -0.3077  0.2709
13221TIP3    H161078   2.808   3.629   3.362  0.5737 -0.2662  0.3198
13221TIP3    H261079   2.876   3.622   3.226 -1.4816  0.2216 -0.7716
13222TIP3   OH261080   1.243   2.231  11.598 -0.3755  0.2127 -0.5204
13222TIP3    H161081   1.270   2.224  11.690 -0.5954 -0.8460 -0.5313
13222TIP3    H261082   1.252   2.325  11.578  0.2282  0.3673  0.4060
13223TIP3   OH261083   3.490   4.120   3.087  0.3165 -0.3487  0.4877
13223TIP3    H161084   3.448   4.042   3.049 -0.7143  0.9824 -1.2472
13223TIP3    H261085   3.577   4.090   3.114 -0.2989 -2.2497  0.4906
13224TIP3   OH261086   0.634   6.793  13.242  0.6356 -0.3065  0.0692
13224TIP3    H161087   0.608   6.859  13.178  0.2423 -0.5144  0.0100
13224TIP3    H261088   0.715   6.757  13.208 -0.1139 -1.1568 -0.8777
13225TIP3   OH261089   1.299   5.719  13.196 -0.5868  0.3338 -0.8817
13225TIP3    H161090   1.304   5.813  13.179  2.1290  0.2664 -0.7685
13225TIP3    H261091   1.308   5.679  13.110 -0.4067  0.1560 -0.7800
13226TIP3   OH261092   1.513   5.980  13.761  0.8224  0.7605  0.1994
13226TIP3    H161093   1.484   5.944  13.677 -0.5604  0.6145  0.7118
13226TIP3    H261094   1.538   5.903  13.813  0.5216  0.7480  0.3304
13227TIP3   OH261095   1.229   3.236  13.805  0.1693  0.2197 -0.3704
13227TIP3    H161096   1.150   3.250  13.753 -0.2756  0.3789  0.3376
13227TIP3    H261097   1.214   3.154  13.851 -0.0044  0.7348  0.5148
13228TIP3   OH261098   0.869   0.821  12.942  0.2755 -0.1830  1.0286
13228TIP3    H161099   0.921   0.901  12.931 -0.8292  0.8818  2.8445
13228TIP3    H261100   0.919   0.768  13.004  1.0169 -0.9397 -0.1905
13229TIP3   OH261101   4.779   0.073   9.888 -0.2885  0.1883  0.0501
13229TIP3    H161102   4.693   0.060   9.848  0.0473  1.9649 -1.3879
13229TIP3    H261103   4.798  -0.010   9.931 -2.1495 -0.6838 -0.6809
13230TIP3   OH261104   1.258   0.071  10.450 -0.1339  0.2502  0.8756
13230TIP3    H161105   1.190   0.133  10.424 -0.7697 -1.5782 -2.2976
13230TIP3    H261106   1.210  -0.005  10.484  0.4367 -0.1820  0.7356
13231TIP3   OH261107   6.028   6.729  10.414 -0.1519  0.3879 -0.3690
13231TIP3    H161108   5.946   6.717  10.462 -0.9782  0.4361 -1.7244
13231TIP3    H261109   6.037   6.824  10.406 -0.1125  0.3739 -0.4826
13232TIP3   OH261110   1.875   5.313   2.974 -0.1143  0.5340  0.5007
13232TIP3    H161111   1.956   5.269   2.950 -0.4717  0.1182  0.0132
13232TIP3    H261112   1.858   5.373   2.900 -1.2015 -0.7181 -0.3031
13233TIP3   OH261113   2.345   4.365  15.253 -0.2324 -0.0378  0.7430
13233TIP3    H161114   2.281   4.297  15.232 -2.2678  1.0428  3.0074
13233TIP3    H261115   2.309   4.445  15.216 -0.6958  0.7326  2.7275
13234TIP3   OH261116   0.306   0.925  16.065  0.2405  0.4988  0.1351
13234TIP3    H161117   0.283   1.013  16.093 -1.7819 -0.2143  0.9027
13234TIP3    H261118   0.391   0.934  16.022 -0.1188  2.8766 -0.1697
13235TIP3   OH261119   3.787   4.525   5.478 -0.4517 -0.8127  0.6155
13235TIP3    H161120   3.780   4.549   5.571 -1.3544  0.4601  0.2475
13235TIP3    H261121   3.877   4.495   5.468 -0.0586 -0.0942  1.7267
13236TIP3   OH261122   2.700   2.578  16.943 -0.4650  0.3229 -0.0925
13236TIP3    H161123   2.621   2.593  16.996 -0.0479 -1.9587  1.2988
13236TIP3    H261124   2.678   2.501  16.889  0.8025 -0.3919  0.3720
13237TIP3   OH261125   5.413   5.513   4.824  0.3896 -0.0085  0.5858
13237TIP3    H161126   5.479   5.478   4.884  0.6360 -1.0331 -0.2539
13237TIP3    H261127   5.444   5.602   4.804  0.9128 -0.0726  1.0703
13238TIP3   OH261128   5.318   3.518  16.776  0.2639  0.0690 -0.2404
13238TIP3    H161129   5.392   3.575  16.757 -0.4134  0.6223 -1.3088
13238TIP3    H261130   5.258   3.532  16.704 -0.6826 -0.7272  0.3676
13239TIP3   OH261131   0.252   4.466   3.811  0.0106  0.0607 -0.4331
13239TIP3    H161132   0.230   4.400   3.876  1.0347  0.1213 -0.0064
13239TIP3    H261133   0.175   4.470   3.754 -2.0233  1.8047  2.1761
13240TIP3   OH261134   5.146   4.873   0.714 -0.3716  1.0395  0.1364
13240TIP3    H161135   5.059   4.895   0.682 -1.1295 -0.5312  0.9902
13240TIP3    H261136   5.190   4.834   0.638 -1.2640 -0.3055  0.2598
13241TIP3   OH261137   4.808   2.753   4.240 -0.1369 -0.4971  0.0914
13241TIP3    H161138   4.887   2.701   4.251 -0.7534 -1.7045 -0.9616
13241TIP3    H261139   4.838   2.837   4.206  0.7720 -0.5821  0.6767
13242TIP3   OH261140   2.536   4.501   0.707 -0.5657 -0.0543 -0.3344
13242TIP3    H161141   2.523   4.505   0.613 -0.4881  0.6331 -0.3248
13242TIP3    H261142   2.603   4.567   0.725 -1.6879  0.9435  0.3776
13243TIP3   OH261143   5.218   2.448   5.477 -0.5099  0.1021 -0.4665
13243TIP3    H161144   5.270   2.526   5.499 -1.0302  0.2523  0.3041
13243TIP3    H261145   5.263   2.376   5.521 -0.5212  0.1164 -0.4305
13244TIP3   OH261146   1.837   1.095   3.565 -0.3556 -0.5079 -0.0104
13244TIP3    H161147   1.855   1.108   3.472 -0.7041 -0.2300 -0.0403
13244TIP3    H261148   1.754   1.048   3.567 -0.1021 -0.9556  0.1512
13245TIP3   OH261149   3.476   1.114  15.695  0.3439  0.4429  0.3147
13245TIP3    H161150   3.389   1.093  15.729 -0.1535  1.2365 -0.4359
13245TIP3    H261151   3.463   1.123  15.601  1.6732 -1.5696 -0.1090
13246TIP3   OH261152   6.653   2.754   5.704  0.2798 -0.4779  0.2537
13246TIP3    H161153   6.685   2.773   5.792  0.0166 -1.0895  0.4847
13246TIP3    H261154   6.704   2.677   5.676  0.9849  0.2314 -0.4753
13247TIP3   OH261155   2.497   4.477  16.130 -0.2828  0.3004  0.5584
13247TIP3    H161156   2.489   4.474  16.225 -0.3281  0.0687  0.5470
13247TIP3    H261157   2.556   4.404  16.108 -1.2081 -0.3908  0.3103
13248TIP3   OH261158   6.308   4.649   2.595  0.2833  0.3034  0.2184
13248TIP3    H161159   6.380   4.597   2.629 -0.7341  0.3105  2.5824
13248TIP3    H261160   6.349   4.730   2.564  1.6217 -1.0159 -1.6001
13249TIP3   OH261161   1.514   0.574   3.934  0.4769  0.4523  0.0953
13249TIP3    H161162   1.567   0.647   3.965  0.0154  0.1182  1.8036
13249TIP3    H261163   1.427   0.612   3.919  0.4794  0.4382  0.0440
13250TIP3   OH261164   3.216   3.026   1.118 -0.5724  0.1228  0.3117
13250TIP3    H161165   3.121   3.025   1.106 -0.6548  1.7220  0.5307
13250TIP3    H261166   3.251   2.987   1.038 -1.3934  0.5143 -0.2509
13251TIP3   OH261167   1.082   1.957  10.263 -0.1531  0.3643  0.1081
13251TIP3    H161168   1.058   2.049  10.276  1.1960  0.7473  0.0093
13251TIP3    H261169   1.105   1.926  10.351 -2.5663 -0.5106  0.5143
13252TIP3   OH261170   4.398   6.321  13.391 -0.2234  0.0916 -0.5705
13252TIP3    H161171   4.349   6.381  13.448  0.8550  0.7293 -0.2950
13252TIP3    H261172   4.346   6.240  13.391 -0.7107  0.3866  0.5864
13253TIP3   OH261173   0.703   1.612  13.044 -0.0942 -0.1948  0.0778
13253TIP3    H161174   0.782   1.628  12.991  0.9637 -0.4824  1.4997
13253TIP3    H261175   0.654   1.694  13.040  1.0335  0.5130  0.3795
13254TIP3   OH261176   2.375   0.654   4.664 -0.3998 -0.6277 -0.0562
13254TIP3    H161177   2.379   0.749   4.679 -0.4769 -0.3434 -1.6449
13254TIP3    H261178   2.458   0.632   4.623  0.1510 -1.5070  1.4684
13255TIP3   OH261179   4.865   5.899   0.479  0.2117  0.1696 -0.1870
13255TIP3    H161180   4.820   5.887   0.563 -1.0274  1.6875 -0.5957
13255TIP3    H261181   4.911   5.982   0.487  1.3856 -0.4283 -0.4837
13256TIP3   OH261182   0.112   0.654  15.097  0.5346  0.0761 -0.2132
13256TIP3    H161183   0.091   0.728  15.040 -0.7809  1.6128  2.0902
13256TIP3    H261184   0.029   0.607  15.107  1.4767 -2.1629 -2.1089
13257TIP3   OH261185   4.940   5.320   2.052 -0.1644  0.4154 -0.6214
13257TIP3    H161186   4.951   5.393   1.990 -0.3145  0.9534 -0.0244
13257TIP3    H261187   4.846   5.317   2.069  0.1152  2.0955  1.7009
13258TIP3   OH261188   3.118   2.214  16.929 -0.3895  0.3882  0.3689
13258TIP3    H161189   3.208   2.226  16.900 -0.3806 -0.1241  0.1687
13258TIP3    H261190   3.111   2.266  17.009  0.8880 -1.7202  1.9502
13259TIP3   OH261191   3.569   5.554   6.260 -0.0282  0.6779 -0.0433
13259TIP3    H161192   3.605   5.471   6.291 -0.0781  1.0738  1.1461
13259TIP3    H261193   3.644   5.602   6.226  1.5380  2.8898  5.4282
13260TIP3   OH261194   1.145   4.520  16.751  0.6434  0.1145  0.5295
13260TIP3    H161195   1.166   4.612  16.767  1.9073  0.3306 -1.8197
13260TIP3    H261196   1.208   4.493  16.684 -0.9744 -1.9046 -0.2830
13261TIP3   OH261197   4.234   3.726   3.640  0.0972  0.2181 -0.3690
13261TIP3    H161198   4.326   3.704   3.625  0.3128  1.1716 -0.5098
13261TIP3    H261199   4.219   3.804   3.587 -0.4934  0.7138  0.4995
13262TIP3   OH261200   1.416   2.066   0.445  0.6468 -0.8400  0.0532
13262TIP3    H161201   1.324   2.064   0.420  0.9533  1.6739 -1.6911
13262TIP3    H261202   1.463   2.069   0.361  2.1775  0.2278  0.8882
13263TIP3   OH261203   0.164   4.882   1.609 -0.2471  0.5132 -0.0709
13263TIP3    H161204   0.072   4.895   1.584 -0.7243 -0.7965  0.8833
13263TIP3    H261205   0.189   4.800   1.566 -0.1418 -0.1548  1.2238
13264TIP3   OH261206   5.615   2.653  12.110  0.4492  0.1164  0.4296
13264TIP3    H161207   5.616   2.744  12.139 -0.0361 -0.2999  1.8056
13264TIP3    H261208   5.551   2.652  12.038  0.3940  0.8440  0.4598
13265TIP3   OH261209   2.036   1.626  15.087  0.1772  0.1118  0.3351
13265TIP3    H161210   2.008   1.715  15.110  1.9382  0.9886 -0.6941
13265TIP3    H261211   1.981   1.604  15.011 -0.9150 -0.0905  1.1535
13266TIP3   OH261212   2.787   2.274  16.127 -0.3382  0.3801 -0.2584
13266TIP3    H161213   2.820   2.282  16.037 -1.7287  1.7636 -0.6870
13266TIP3    H261214   2.794   2.180  16.146  0.9293  0.2028 -1.4179
13267TIP3   OH261215   4.035   6.677   0.517 -0.1148  0.3004  0.1675
13267TIP3    H161216   4.061   6.605   0.574  1.5391 -1.3532 -2.4596
13267TIP3    H261217   3.948   6.654   0.486  0.5199 -0.7685 -0.8771
13268TIP3   OH261218   0.727   3.601   3.947 -0.0424 -0.2886 -0.0224
13268TIP3    H161219   0.725   3.694   3.972  1.8383 -0.5164  1.1282
13268TIP3    H261220   0.778   3.599   3.867 -0.7611 -0.2588 -0.4886
13269TIP3   OH261221   4.849   1.686   3.143 -0.1158  0.2229 -0.0549
13269TIP3    H161222   4.935   1.673   3.103 -0.9135 -1.4240 -1.4004
13269TIP3    H261223   4.867   1.725   3.228  2.1574 -2.2129  0.6990
13270TIP3   OH261224   1.411   3.001   3.419 -1.1244 -0.1994  0.3672
13270TIP3    H161225   1.326   2.996   3.376 -1.2655 -0.8596  0.7209
13270TIP3    H261226   1.393   3.042   3.504 -0.8197  1.2654 -0.2500
13271TIP3   OH261227   3.269   0.638  12.137  0.2956  0.2104 -0.1431
13271TIP3    H161228   3.325   0.563  12.157  0.2720  0.1154 -0.4300
13271TIP3    H261229   3.319   0.690  12.074  0.6204  0.8160  0.6046
13272TIP3   OH261230   0.442   0.527   5.268 -0.6281 -0.0139 -0.4965
13272TIP3    H161231   0.447   0.577   5.350  0.0107 -0.4115 -0.2844
13272TIP3    H261232   0.519   0.556   5.219  0.0835 -1.1954 -0.1255
13273TIP3   OH261233   6.193   2.825   4.102  0.0273  0.3296 -0.1301
13273TIP3    H161234   6.219   2.847   4.012 -0.9423  0.1230 -0.4814
13273TIP3    H261235   6.158   2.736   4.095 -0.4552  0.4722  0.3641
13274TIP3   OH261236   2.517   5.563   0.215  0.5393 -0.0243  0.0186
13274TIP3    H161237   2.569   5.544   0.137  2.1503  2.3004  0.4151
13274TIP3    H261238   2.544   5.497   0.279  2.0101  0.2749 -0.2526
13275TIP3   OH261239   5.959   0.433   2.506 -0.5757 -0.4740 -0.2482
13275TIP3    H161240   5.952   0.493   2.580  2.8191 -1.1435  0.7894
13275TIP3    H261241   5.974   0.347   2.546 -0.5096 -1.1772 -1.7044
13276TIP3   OH261242   3.820   6.725   1.175  0.2490 -0.1620 -0.6437
13276TIP3    H161243   3.777   6.779   1.242  1.0160  1.2309 -1.2310
13276TIP3    H261244   3.892   6.682   1.222  1.8575  2.1328 -0.8397
13277TIP3   OH261245   0.226   4.624   3.370  0.1797  0.1686  0.3403
13277TIP3    H161246   0.150   4.577   3.404 -0.6672  1.3506  0.1321
13277TIP3    H261247   0.272   4.656   3.448 -1.1428  1.9116  0.4620
13278TIP3   OH261248   2.172   6.334  14.967 -0.1209  0.1355  0.2129
13278TIP3    H161249   2.264   6.311  14.959  0.1169  0.4794  1.6411
13278TIP3    H261250   2.168   6.388  15.046 -1.0752  2.6538 -1.4190
13279TIP3   OH261251   1.131   1.376  12.774 -0.4017 -0.0364 -0.2116
13279TIP3    H161252   1.219   1.354  12.741 -0.2149 -0.6850  0.6999
13279TIP3    H261253   1.072   1.344  12.707 -0.2592 -4.7198  1.5466
13280TIP3   OH261254   4.940   1.315   3.758 -0.1787  0.0571 -0.0534
13280TIP3    H161255   4.995   1.247   3.720 -0.7021  0.1037 -0.9492
13280TIP3    H261256   4.973   1.327   3.846  1.3412  0.1920 -0.6125
13281TIP3   OH261257   5.571   2.185  14.592  0.3035  0.2061  0.6576
13281TIP3    H161258   5.604   2.095  14.586  1.9080  0.7585  0.6135
13281TIP3    H261259   5.645   2.235  14.626 -0.3334  1.6291  0.0335
13282TIP3   OH261260   3.079   1.973  16.761  0.0618  0.1801  0.0994
13282TIP3    H161261   3.057   2.055  16.805 -1.5169 -0.6230  0.8897
13282TIP3    H261262   3.161   1.945  16.801  0.3560  1.1208  0.1693
13283TIP3   OH261263   2.210   6.197  11.213 -0.0364 -0.9750 -0.4681
13283TIP3    H161264   2.192   6.157  11.128 -0.3895 -1.6247 -0.0920
13283TIP3    H261265   2.199   6.126  11.276  1.4587 -0.8154  0.0179
13284TIP3   OH261266   0.734   3.546   1.946  0.4148 -0.7710 -0.3957
13284TIP3    H161267   0.818   3.505   1.929 -0.1142 -2.2966  0.5184
13284TIP3    H261268   0.672   3.497   1.892 -0.2163 -1.1210  0.6251
13285TIP3   OH261269   6.285   5.982   0.192  0.6812 -0.2873 -0.2787
13285TIP3    H161270   6.327   6.041   0.255 -1.1000  0.2043  0.5196
13285TIP3    H261271   6.199   5.965   0.230  1.0271 -3.2081 -0.6412
13286TIP3   OH261272   5.736   6.491  16.003  0.1810 -0.0321 -0.2104
13286TIP3    H161273   5.666   6.455  16.058  1.3074 -0.4318  0.9937
13286TIP3    H261274   5.758   6.575  16.043  1.8103 -0.8453  0.7003
13287TIP3   OH261275   0.487   0.864   6.265 -0.1564 -0.3153  0.0923
13287TIP3    H161276   0.437   0.944   6.280  1.0149  0.6318 -0.8511
13287TIP3    H261277   0.578   0.890   6.279  0.2659 -1.4275 -0.4705
13288TIP3   OH261278   0.281   6.604  16.598 -0.4859 -0.8547 -0.3130
13288TIP3    H161279   0.315   6.582  16.685 -0.9334 -0.6405 -0.0816
13288TIP3    H261280   0.297   6.525  16.546 -0.5769 -1.1293  0.0685
13289TIP3   OH261281   5.091   5.786  10.866  0.6574  0.1408  0.4825
13289TIP3    H161282   5.087   5.729  10.943  0.4005 -0.8534 -0.2456
13289TIP3    H261283   5.018   5.759  10.812  0.3468  1.3886  0.2378
13290TIP3   OH261284   6.562   5.325  11.970  0.5148  0.0398  0.4803
13290TIP3    H161285   6.469   5.344  11.962  0.3591 -1.0541 -0.6143
13290TIP3    H261286   6.589   5.370  12.050 -1.2518 -0.8054  1.6032
13291TIP3   OH261287   3.764   0.337  10.213  0.3360  0.1303 -0.3249
13291TIP3    H161288   3.852   0.360  10.184  0.6952 -0.5613  0.1829
13291TIP3    H261289   3.763   0.356  10.306  0.1880 -0.5460 -0.1807
13292TIP3   OH261290   1.601   4.281   4.842 -0.1897 -0.1213  0.0228
13292TIP3    H161291   1.537   4.317   4.780  0.9215 -0.3240 -1.2925
13292TIP3    H261292   1.558   4.204   4.879 -1.5641  1.0083  0.8785
13293TIP3   OH261293   0.610   3.293  15.199 -0.1550 -0.2661 -0.2024
13293TIP3    H161294   0.551   3.228  15.162 -0.1679 -0.7879  0.6950
13293TIP3    H261295   0.563   3.327  15.275 -0.7235  1.7924 -1.4162
13294TIP3   OH261296   6.221   0.248   6.205  0.0452  0.0871  0.0731
13294TIP3    H161297   6.208   0.181   6.139 -1.7226  1.3600 -0.9379
13294TIP3    H261298   6.145   0.240   6.263  0.9129 -0.1485  1.2421
13295TIP3   OH261299   0.415   0.986  13.883  0.7640 -0.3944  0.2335
13295TIP3    H161300   0.510   0.996  13.872  0.9685 -0.4271  1.7792
13295TIP3    H261301   0.405   0.908  13.938 -0.0961  0.2649  1.0372
13296TIP3   OH261302   0.680   2.018  14.337 -0.5399  0.0014  0.1531
13296TIP3    H161303   0.626   1.993  14.413  1.4794 -1.2078  1.2686
13296TIP3    H261304   0.701   1.936  14.294 -0.3573  0.5425 -0.8091
13297TIP3   OH261305   0.894   2.776  12.145 -0.0988 -0.5881  0.1613
13297TIP3    H161306   0.978   2.812  12.116  0.6802 -1.5659  1.1161
13297TIP3    H261307   0.831   2.804  12.078  0.6172  1.7237  0.3821
13298TIP3   OH261308   5.177   5.645   5.778  0.3021  0.2305 -0.0639
13298TIP3    H161309   5.114   5.574   5.766  1.2264 -0.6370  0.1110
13298TIP3    H261310   5.158   5.679   5.866 -0.2369  0.3149 -0.2062
13299TIP3   OH261311   3.772   0.054   0.963 -0.0019 -0.7528 -0.2307
13299TIP3    H161312   3.815  -0.000   1.029  0.8163  0.6254  0.4065
13299TIP3    H261313   3.713   0.110   1.013 -1.0555 -1.2284 -0.9131
13300TIP3   OH261314   3.126   2.435  15.473  0.6514 -0.2183 -0.1551
13300TIP3    H161315   3.034   2.422  15.450 -0.2308  0.3154  2.6909
13300TIP3    H261316   3.147   2.360  15.529  1.9494 -0.2960 -0.7068
13301TIP3   OH261317   0.540   3.258   2.352 -0.3073  0.4619  0.5161
13301TIP3    H161318   0.451   3.294   2.355 -0.8411 -0.7942  0.4033
13301TIP3    H261319   0.597   3.333   2.370 -1.4827  0.7834  3.4113
13302TIP3   OH261320   0.042   2.155  16.193 -0.5703 -0.6971  0.0772
13302TIP3    H161321   0.043   2.082  16.130 -1.0733  0.3624 -1.2070
13302TIP3    H261322   0.021   2.232  16.140 -0.2482  0.3619  1.4387
13303TIP3   OH261323   0.882   5.031   3.267 -0.1126  1.0501  0.4007
13303TIP3    H161324   0.943   4.994   3.203 -0.4123 -0.2409  0.8288
13303TIP3    H261325   0.799   4.986   3.251 -0.3179  1.0432  1.3794
13304TIP3   OH261326   1.939   3.426   2.915 -0.2527  0.2896 -0.3885
13304TIP3    H161327   1.894   3.447   2.833 -0.8081 -0.2544 -0.2326
13304TIP3    H261328   1.915   3.335   2.932 -3.6830  1.5424  2.5789
13305TIP3   OH261329   1.077   4.335   3.095 -0.1885  0.0270  0.1806
13305TIP3    H161330   1.075   4.413   3.151  1.9067 -0.9100  1.6917
13305TIP3    H261331   0.991   4.294   3.107 -1.4327  2.1579 -0.8347
13306TIP3   OH261332   2.495   3.618   3.413 -0.6095  0.3023  0.6264
13306TIP3    H161333   2.429   3.572   3.361 -0.4402 -0.5660  1.1547
13306TIP3    H261334   2.531   3.684   3.354  0.3751 -1.3994 -0.7621
13307TIP3   OH261335   0.480   6.723  16.278 -0.4259  0.0574 -0.3946
13307TIP3    H161336   0.518   6.733  16.365 -1.3124  3.0690 -0.2496
13307TIP3    H261337   0.414   6.654  16.288 -1.5454  1.3534  1.7403
13308TIP3   OH261338   3.370   2.423   1.522  0.0384 -0.6087 -0.7308
13308TIP3    H161339   3.429   2.365   1.570 -1.1115 -2.0204 -0.9479
13308TIP3    H261340   3.407   2.427   1.434  0.3378 -0.6924 -0.6115
13309TIP3   OH261341   3.148   6.222   0.921  0.2250  0.4683 -0.0890
13309TIP3    H161342   3.183   6.211   0.833  1.2070 -1.6331  0.4845
13309TIP3    H261343   3.067   6.170   0.921 -0.0356  0.8738  0.1011
13310TIP3   OH261344   2.924   1.012  14.629 -0.3046  0.0114 -0.3916
13310TIP3    H161345   2.973   0.954  14.687  0.5723  1.9078  0.8626
13310TIP3    H261346   2.840   1.025  14.673  0.3053  1.3339  0.4227
13311TIP3   OH261347   5.975   4.357   4.869  0.1118  0.0128 -0.1570
13311TIP3    H161348   5.968   4.422   4.938 -1.5816 -0.2213 -0.0566
13311TIP3    H261349   5.979   4.273   4.914 -1.0317 -0.1437 -0.3009
13312TIP3   OH261350   1.371   3.769  15.557 -0.3589 -0.3591 -0.0255
13312TIP3    H161351   1.310   3.741  15.625  1.0933  1.4003  2.1605
13312TIP3    H261352   1.456   3.734  15.584  0.7548  2.5283  0.6690
13313TIP3   OH261353   0.103   6.091   0.894 -0.4596  0.5118 -0.7382
13313TIP3    H161354   0.100   6.152   0.820  0.2622  0.5803 -0.7146
13313TIP3    H261355   0.195   6.066   0.900 -0.3852  1.0570  0.5872
13314TIP3   OH261356   2.094   0.036   1.501  0.3850  0.0854  0.1235
13314TIP3    H161357   2.050  -0.023   1.441  0.2055 -0.6435  0.9532
13314TIP3    H261358   2.175   0.061   1.456  0.1256 -0.2298 -0.5241
13315TIP3   OH261359   5.690   4.879   0.599  0.3970  0.1933 -0.0488
13315TIP3    H161360   5.628   4.926   0.654  0.2848 -1.0920  0.9779
13315TIP3    H261361   5.660   4.788   0.602  2.4548 -0.5260  0.7219
13316TIP3   OH261362   2.195   4.182  11.784  0.2857 -0.4747 -0.5254
13316TIP3    H161363   2.227   4.091  11.785  3.6399  0.5881  0.6598
13316TIP3    H261364   2.172   4.200  11.875  1.2406  0.3172 -0.4251
13317TIP3   OH261365   5.872   3.398  11.594  0.6398  0.0484  0.3461
13317TIP3    H161366   5.905   3.455  11.525 -3.4782  0.0945 -1.8578
13317TIP3    H261367   5.870   3.311  11.555  0.1079 -0.3044  1.1259
13318TIP3   OH261368   6.051   0.650   1.957  0.2478  0.1653  0.2063
13318TIP3    H161369   6.033   0.570   1.907  1.7674  1.0201 -1.8474
13318TIP3    H261370   6.143   0.643   1.982  0.0763  0.7481  1.0415
13319TIP3   OH261371   3.187   3.836   0.903 -0.0752  0.5814 -0.5943
13319TIP3    H161372   3.148   3.756   0.865  1.2560  0.0951 -0.9895
13319TIP3    H261373   3.113   3.896   0.910 -0.9184 -0.3141 -1.2970
13320TIP3   OH261374   5.962   4.411   0.832  0.3583  0.0448  0.4337
13320TIP3    H161375   5.870   4.407   0.804  0.2323  0.1937  0.8142
13320TIP3    H261376   6.010   4.365   0.764 -0.0027 -0.0441  0.2363
13321TIP3   OH261377   6.184   0.304  10.924  0.3104  0.3043  0.3169
13321TIP3    H161378   6.222   0.363  10.858  0.0616  0.7851  0.5986
13321TIP3    H261379   6.190   0.353  11.006  1.5489 -0.6778  0.8505
13322TIP3   OH261380   3.780   1.115  12.141  0.1117 -0.1201  0.0346
13322TIP3    H161381   3.750   1.044  12.085  1.0317 -0.7799  0.3629
13322TIP3    H261382   3.873   1.098  12.154  0.7826  2.1198 -1.3252
13323TIP3   OH261383   0.604   6.449  12.873 -0.1833 -0.5333 -0.2546
13323TIP3    H161384   0.693   6.457  12.909 -0.1583 -0.8874 -0.2329
13323TIP3    H261385   0.613   6.389  12.799 -0.1223  0.6935 -1.2749
13324TIP3   OH261386   4.384   0.934  15.688  0.2768 -0.5184  0.2331
13324TIP3    H161387   4.322   0.866  15.660  1.4125 -1.7564  0.6822
13324TIP3    H261388   4.431   0.896  15.762  0.1876  1.1791  1.2083
13325TIP3   OH261389   6.748   0.966   6.402  0.2504  0.2364  0.4717
13325TIP3    H161390   6.826   0.912   6.388 -0.2761 -0.7352  1.1304
13325TIP3    H261391   6.779   1.056   6.393  1.6103 -0.0951  1.4339
13326TIP3   OH261392   1.065   3.607  15.431 -0.2703  0.5159  0.0720
13326TIP3    H161393   1.133   3.573  15.490 -1.8648  0.3004  1.9152
13326TIP3    H261394   1.093   3.695  15.410  0.3844  0.5840  1.1713
13327TIP3   OH261395   1.314   4.264  13.302  0.1821 -0.2053  0.0837
13327TIP3    H161396   1.265   4.184  13.317 -1.1743  0.9162  2.1833
13327TIP3    H261397   1.262   4.333  13.344  2.2978  1.4677  0.1735
13328TIP3   OH261398   5.322   1.546   4.038 -0.1192  0.2245  0.1862
13328TIP3    H161399   5.387   1.593   3.985 -0.9573  1.5302  0.2727
13328TIP3    H261400   5.340   1.453   4.021  2.0968  0.5328  0.6373
13329TIP3   OH261401   5.958   2.580  14.881  0.2713  0.7491  0.1651
13329TIP3    H161402   5.896   2.554  14.813 -1.4753  2.3420  1.0417
13329TIP3    H261403   5.996   2.661  14.849 -0.3906  1.3842  0.9629
13330TIP3   OH261404   2.210   0.084  15.800  0.1847 -1.0084  0.1282
13330TIP3    H161405   2.291   0.038  15.824 -1.4631 -2.7743  2.7235
13330TIP3    H261406   2.192   0.140  15.875 -1.0745 -0.7562 -0.3556
13331TIP3   OH261407   4.888   3.173  16.039 -0.8554  0.1205  0.7994
13331TIP3    H161408   4.812   3.148  15.986  0.9971 -0.6498 -1.7143
13331TIP3    H261409   4.922   3.251  15.996  0.6972 -0.4955  0.8383
13332TIP3   OH261410   0.885   1.485   1.069 -0.0107  0.1423  0.2812
13332TIP3    H161411   0.910   1.577   1.061 -2.1636  0.6529 -2.5049
13332TIP3    H261412   0.908   1.447   0.984  0.1375 -1.7237  1.1085
13333TIP3   OH261413   6.421   3.942  15.740  0.0424  0.2854 -0.8280
13333TIP3    H161414   6.446   4.014  15.798  4.0587 -0.2292 -1.6428
13333TIP3    H261415   6.414   3.983  15.653  0.8133 -0.0210 -1.0416
13334TIP3   OH261416   4.047   2.775   0.052 -0.1308  0.3799 -0.5296
13334TIP3    H161417   3.980   2.709   0.067 -0.9525  1.0057 -1.2885
13334TIP3    H261418   4.070   2.764  -0.041 -1.4986  2.1993 -1.1498
13335TIP3   OH261419   0.635   2.493  15.785 -0.3336 -0.0366  0.4361
13335TIP3    H161420   0.651   2.497  15.691  0.7368  0.3628  0.6247
13335TIP3    H261421   0.544   2.522  15.794  0.6904  4.0088 -0.1800
13336TIP3   OH261422   5.646   3.472  12.499  0.3016 -0.2027  0.2708
13336TIP3    H161423   5.664   3.398  12.557  0.2006 -1.3519 -1.0919
13336TIP3    H261424   5.671   3.440  12.412 -2.3912  0.3135 -0.8064
13337TIP3   OH261425   6.222   5.807   5.745 -0.3649 -1.0887  0.4277
13337TIP3    H161426   6.211   5.755   5.665 -0.6642  0.7418 -0.7771
13337TIP3    H261427   6.144   5.862   5.749  0.6053  0.2979  0.8530
13338TIP3   OH261428   1.124   1.638  15.775  0.0642 -0.1936 -0.0877
13338TIP3    H161429   1.030   1.627  15.790  0.3647 -1.9009  0.8836
13338TIP3    H261430   1.137   1.732  15.769 -1.3492  0.2451  2.3437
13339TIP3   OH261431   5.446   0.950   4.453  0.3687 -0.2836  0.1520
13339TIP3    H161432   5.387   1.005   4.504  1.4157  1.5849 -0.5814
13339TIP3    H261433   5.501   0.907   4.518 -2.3057 -2.9124  0.9605
13340TIP3   OH261434   3.908   6.088   3.651  0.3196 -0.2938  0.1323
13340TIP3    H161435   3.931   6.130   3.569 -1.2405 -0.1072 -0.2446
13340TIP3    H261436   3.956   6.005   3.651 -1.6317 -1.5439 -2.2361
13341TIP3   OH261437   4.042   0.998   2.557  0.2601 -0.2448 -0.3366
13341TIP3    H161438   4.127   1.019   2.596 -0.2338  1.7284 -0.2144
13341TIP3    H261439   4.051   0.908   2.527  2.0122 -0.4599  0.6886
13342TIP3   OH261440   0.522   1.140   4.352  0.0956  0.0747 -0.2804
13342TIP3    H161441   0.452   1.162   4.414  1.9403 -0.9875  2.4053
13342TIP3    H261442   0.492   1.061   4.308 -1.8333  1.5918 -1.8366
13343TIP3   OH261443   3.667   5.682  12.094  0.1190  0.4060  0.3401
13343TIP3    H161444   3.684   5.613  12.030 -0.2548  1.5986 -1.0972
13343TIP3    H261445   3.597   5.646  12.148 -0.1780 -0.3023 -0.4784
13344TIP3   OH261446   0.975   4.436   6.434 -0.0689  0.1931  0.0633
13344TIP3    H161447   0.960   4.515   6.486 -1.6853  1.1518 -1.7206
13344TIP3    H261448   1.067   4.442   6.407 -0.1272  1.4281  0.0663
13345TIP3   OH261449   1.050   0.031   3.616  0.6427 -0.1643  0.3901
13345TIP3    H161450   1.143   0.024   3.593  0.9647  2.6029  0.4837
13345TIP3    H261451   1.050   0.038   3.712  0.5589  1.5959  0.2956
13346TIP3   OH261452   2.941   5.495   3.827  0.1304  0.0998 -0.0307
13346TIP3    H161453   2.988   5.411   3.832  1.1640  0.6255 -0.6160
13346TIP3    H261454   2.853   5.472   3.796  0.4756 -0.7415 -0.4126
13347TIP3   OH261455   0.673   0.167   5.135  0.2585  0.1565  0.6425
13347TIP3    H161456   0.685   0.241   5.075 -1.0752  0.8456  1.2076
13347TIP3    H261457   0.748   0.172   5.194  0.3232  0.8958  0.5078
13348TIP3   OH261458   1.145   0.752   4.520 -0.0897 -0.0711 -0.9798
13348TIP3    H161459   1.168   0.732   4.430  2.4921  0.5171 -0.5293
13348TIP3    H261460   1.055   0.785   4.515 -0.7566 -1.9594 -3.0065
13349TIP3   OH261461   4.611   6.491   3.871 -0.5809 -0.1966  0.2257
13349TIP3    H161462   4.595   6.453   3.958  0.3264 -0.3104  0.3510
13349TIP3    H261463   4.533   6.468   3.821 -0.1422 -2.1540  0.3356
13350TIP3   OH261464   6.180   2.364   4.285 -0.3962 -0.1196  0.0974
13350TIP3    H161465   6.261   2.396   4.325 -0.1197  0.1280 -0.6449
13350TIP3    H261466   6.202   2.276   4.252 -0.0079  0.4867 -1.3322
13351TIP3   OH261467   0.910   6.456   4.703 -0.2607 -0.1875 -0.0961
13351TIP3    H161468   0.870   6.540   4.725 -0.2242  0.3316 -1.8639
13351TIP3    H261469   0.841   6.392   4.717 -1.3445  0.5379 -1.7395
13352TIP3   OH261470   5.653   0.601  15.482 -0.5241 -0.2650  0.4500
13352TIP3    H161471   5.610   0.570  15.402  1.2867  2.5213 -1.8424
13352TIP3    H261472   5.725   0.539  15.496  0.6204  0.4825 -1.6390
13353TIP3   OH261473   4.722   2.695   0.414 -0.6598  0.1609  0.1810
13353TIP3    H161474   4.661   2.665   0.347 -0.7085 -1.0933  0.7402
13353TIP3    H261475   4.680   2.773   0.451  0.6232  2.5472 -2.9756
13354TIP3   OH261476   2.893   0.819   3.065  0.3848  0.2931  0.4901
13354TIP3    H161477   2.985   0.803   3.044  0.8607 -0.2527  2.6601
13354TIP3    H261478   2.875   0.759   3.138 -2.2680 -1.0029 -1.0728
13355TIP3   OH261479   1.890   5.478  14.852 -0.0516  0.2010  0.0539
13355TIP3    H161480   1.970   5.454  14.899 -0.3321 -1.8985 -0.4536
13355TIP3    H261481   1.832   5.402  14.863 -0.9290  0.5475 -1.8731
13356TIP3   OH261482   5.637   1.376  14.869 -0.3216 -0.2815 -0.2340
13356TIP3    H161483   5.643   1.292  14.915 -1.7517 -1.0135 -1.3134
13356TIP3    H261484   5.675   1.440  14.930 -0.6387 -1.4674  1.2490
13357TIP3   OH261485   1.183   2.009  16.813 -0.1646  0.2009 -0.2032
13357TIP3    H161486   1.224   2.020  16.727 -0.8746  1.7436 -0.3812
13357TIP3    H261487   1.089   2.014  16.797 -0.3425 -0.4379  0.5558
13358TIP3   OH261488   2.181   2.804   4.938  0.1292 -0.1424 -0.1646
13358TIP3    H161489   2.257   2.753   4.913  0.1788 -0.0027 -0.3055
13358TIP3    H261490   2.215   2.870   4.999 -0.3017 -1.6364  1.7652
13359TIP3   OH261491   4.400   6.357   2.111  0.3764  0.2062 -0.1244
13359TIP3    H161492   4.321   6.359   2.057  0.2466 -0.5309  0.0201
13359TIP3    H261493   4.421   6.449   2.127  0.4720  0.4414 -1.5075
13360TIP3   OH261494   6.191   1.305   1.372  0.4566 -0.2976 -0.0524
13360TIP3    H161495   6.204   1.400   1.375  1.1599 -0.3717 -0.5068
13360TIP3    H261496   6.254   1.270   1.435  1.3271 -0.5517 -1.0239
13361TIP3   OH261497   3.919   2.645   5.038  0.0355  0.9361  0.0051
13361TIP3    H161498   3.988   2.617   4.978  0.6822  1.7341  0.3443
13361TIP3    H261499   3.965   2.660   5.121 -1.1178 -1.9720  1.2938
13362TIP3   OH261500   6.609   2.261  15.168  0.3460  0.6195 -0.1212
13362TIP3    H161501   6.551   2.234  15.097 -1.3451  2.7122  0.3663
13362TIP3    H261502   6.606   2.188  15.231 -1.0971  0.3143 -0.5050
13363TIP3   OH261503   4.873   2.292  14.693 -0.4910  0.5981  0.0710
13363TIP3    H161504   4.860   2.216  14.749  0.3342  0.7666  0.5017
13363TIP3    H261505   4.830   2.269  14.611 -0.7907 -0.0748  0.4108
13364TIP3   OH261506   2.489   5.417  14.094 -0.2764  0.6037 -0.3497
13364TIP3    H161507   2.407   5.370  14.083 -0.3473  0.5823  0.2124
13364TIP3    H261508   2.466   5.510  14.086 -0.4416  0.6212  0.2624
13365TIP3   OH261509   0.234   5.226  16.562 -0.0737  0.1285  0.4688
13365TIP3    H161510   0.247   5.218  16.657  0.5919  0.8825  0.4595
13365TIP3    H261511   0.141   5.211  16.549 -0.4786  1.5745  1.4413
13366TIP3   OH261512   1.146   3.342   4.909  0.3334  0.1983  0.0444
13366TIP3    H161513   1.201   3.367   4.836 -1.3495  0.3764 -1.2118
13366TIP3    H261514   1.185   3.261   4.942  1.3880  0.3739 -0.7426
13367TIP3   OH261515   2.872   2.389  13.266  0.2029 -0.3409 -0.0062
13367TIP3    H161516   2.896   2.307  13.223  1.5126 -0.4983  0.9489
13367TIP3    H261517   2.950   2.444  13.259  0.1583 -0.0529  1.3416
13368TIP3   OH261518   4.505   4.051  13.993  0.2967 -0.2326 -0.0141
13368TIP3    H161519   4.446   4.060  13.918  0.0127  0.8530  0.3189
13368TIP3    H261520   4.537   3.961  13.987  0.5050 -0.0875 -1.5996
13369TIP3   OH261521   5.709   3.065  11.836 -0.1830 -0.1537 -0.0290
13369TIP3    H161522   5.634   3.028  11.882 -0.5626  0.1326 -0.4120
13369TIP3    H261523   5.731   3.145  11.885 -0.0758 -0.2769  0.1271
13370TIP3   OH261524   2.277   3.771  14.630  0.0479  0.3000  0.1010
13370TIP3    H161525   2.328   3.695  14.657 -2.6024 -1.6878 -0.0912
13370TIP3    H261526   2.317   3.798  14.547  1.6065 -0.2772  0.6286
13371TIP3   OH261527   6.620   3.428  12.927 -0.3398  0.2258 -0.0871
13371TIP3    H161528   6.691   3.450  12.866 -0.5798  1.4957  0.0714
13371TIP3    H261529   6.662   3.378  12.996  0.3175  0.5760 -0.2274
13372TIP3   OH261530   2.971   1.838  13.627  0.2119 -0.1717  0.3020
13372TIP3    H161531   2.906   1.907  13.640  0.2251 -0.0031 -0.4533
13372TIP3    H261532   3.055   1.883  13.635  0.2442 -0.3420  1.0263
13373TIP3   OH261533   6.222   1.406   4.193  0.1742  0.6790 -0.6478
13373TIP3    H161534   6.221   1.435   4.102 -1.1026  0.9044 -0.5719
13373TIP3    H261535   6.255   1.482   4.242  1.0444  0.4928 -0.9328
13374TIP3   OH261536   4.555   5.285  16.610  0.3710  0.5363 -0.4566
13374TIP3    H161537   4.553   5.372  16.572  2.2610  0.7594 -0.1827
13374TIP3    H261538   4.502   5.291  16.689 -0.9103  0.9442 -1.3219
13375TIP3   OH261539   3.747   0.136   5.218 -0.4704 -0.3208  0.0899
13375TIP3    H161540   3.730   0.068   5.284 -4.3183 -0.2186 -0.5193
13375TIP3    H261541   3.748   0.218   5.267 -2.4281 -0.3254  0.2186
13376TIP3   OH261542   5.086   2.527   4.667  0.5582  0.3872  0.1483
13376TIP3    H161543   5.016   2.523   4.733 -0.7606 -1.2673 -1.2297
13376TIP3    H261544   5.140   2.450   4.684  0.6994  0.4107 -0.1814
13377TIP3   OH261545   4.070   3.251  14.029 -0.2262  0.2616 -0.2340
13377TIP3    H161546   4.084   3.169  13.982  0.3424 -0.3260  0.9138
13377TIP3    H261547   4.140   3.309  13.998 -0.5669  0.2832 -0.9697
13378TIP3   OH261548   5.616   5.660   5.261  0.6061  0.0696 -0.1589
13378TIP3    H161549   5.537   5.673   5.313  0.8002  1.1022 -0.0889
13378TIP3    H261550   5.612   5.729   5.195  0.4538 -1.1110 -1.4205
13379TIP3   OH261551   5.583   4.056   1.761 -0.0864 -0.1308 -0.5177
13379TIP3    H161552   5.579   3.996   1.686 -1.8418 -0.9893  0.2008
13379TIP3    H261553   5.496   4.097   1.763 -0.5147 -1.0068  1.7154
13380TIP3   OH261554   3.512   2.778   1.146  0.0487 -0.0509  0.2564
13380TIP3    H161555   3.514   2.867   1.112  1.4713 -0.7645 -1.6972
13380TIP3    H261556   3.602   2.761   1.174  0.1624 -1.3438 -0.7810
13381TIP3   OH261557   5.204   4.148  12.324  0.3247 -0.2921 -0.1690
13381TIP3    H161558   5.125   4.193  12.354  2.6375  3.6657  0.7526
13381TIP3    H261559   5.233   4.097  12.400 -0.6466 -0.7531 -0.0972
13382TIP3   OH261560   0.658   5.764   0.146  0.2206 -0.1206  0.1057
13382TIP3    H161561   0.716   5.694   0.117 -0.1494 -0.2153 -0.4388
13382TIP3    H261562   0.576   5.719   0.167  0.2265  0.0549  0.4992
13383TIP3   OH261563   0.157   3.751  16.529 -0.1221  0.2265  0.4812
13383TIP3    H161564   0.075   3.795  16.551  0.3463  0.9978  0.7084
13383TIP3    H261565   0.222   3.788  16.589  0.5617  0.2180 -0.2296
13384TIP3   OH261566   3.914   1.598  13.283  0.4756  0.2356  0.5390
13384TIP3    H161567   3.915   1.507  13.252 -2.4057  0.7525 -1.4617
13384TIP3    H261568   3.833   1.605  13.333  0.9359  1.6046  1.1348
13385TIP3   OH261569   1.736   1.178  14.129 -0.0793  0.1477  0.3831
13385TIP3    H161570   1.679   1.254  14.118 -0.2023 -0.0024 -0.0581
13385TIP3    H261571   1.770   1.161  14.041  2.1479  1.3823  0.9179
13386TIP3   OH261572   3.514   0.067  13.680  0.0117  0.6068  0.0630
13386TIP3    H161573   3.489   0.029  13.595  0.3704  1.0550 -0.2431
13386TIP3    H261574   3.430   0.083  13.724 -0.2273 -3.3592  1.5173
13387TIP3   OH261575   4.388   3.669   4.710 -0.3324  0.2147 -0.8244
13387TIP3    H161576   4.440   3.731   4.659 -2.5810  1.8124 -1.3326
13387TIP3    H261577   4.444   3.647   4.785  1.0639  1.8582 -1.3170
13388TIP3   OH261578   2.708   0.539   4.844 -0.2458  0.4104 -0.0968
13388TIP3    H161579   2.647   0.610   4.858  0.6678  1.3389 -0.6331
13388TIP3    H261580   2.720   0.499   4.930 -1.1039  0.6218  0.1242
13389TIP3   OH261581   4.169   5.671  13.076  0.0834 -0.0730 -0.6725
13389TIP3    H161582   4.184   5.577  13.088  1.7109  0.2045 -0.2526
13389TIP3    H261583   4.253   5.704  13.045  0.5146  1.7305  2.1160
13390TIP3   OH261584   6.336   3.367  12.870  0.4221 -0.0637 -0.4453
13390TIP3    H161585   6.426   3.397  12.867  0.7961 -1.1387 -0.5309
13390TIP3    H261586   6.338   3.280  12.831 -0.3905 -0.6888  0.8244
13391TIP3   OH261587   5.489   0.684   4.791  0.4222  0.0562 -0.1056
13391TIP3    H161588   5.481   0.767   4.744  1.5962 -0.1336 -0.7041
13391TIP3    H261589   5.576   0.652   4.766  0.7546 -0.4600  1.5733
13392TIP3   OH261590   0.656   6.814   2.106 -0.7128 -0.1452 -0.4003
13392TIP3    H161591   0.565   6.831   2.133  0.3576  1.9215  2.4775
13392TIP3    H261592   0.703   6.801   2.189  1.7756 -0.3528 -1.7553
13393TIP3   OH261593   0.413   5.372   5.958  0.1976 -0.3916  0.7992
13393TIP3    H161594   0.373   5.408   5.879 -2.2022 -0.3311  1.9536
13393TIP3    H261595   0.507   5.374   5.941 -0.2454 -2.7046 -3.0568
13394TIP3   OH261596   1.379   4.430  15.025 -0.3742 -0.2600  0.3836
13394TIP3    H161597   1.326   4.410  14.948 -0.4742 -1.5169  0.7541
13394TIP3    H261598   1.384   4.525  15.027 -0.3266 -0.2033 -1.2094
13395TIP3   OH261599   1.219   5.529   0.254 -0.0946  0.5031  0.1049
13395TIP3    H161600   1.235   5.437   0.234  2.5389  0.8518  0.1677
13395TIP3    H261601   1.147   5.528   0.317 -0.5065 -1.4478 -0.3241
13396TIP3   OH261602   6.317   1.067   3.638 -0.0719 -0.0490  0.1554
13396TIP3    H161603   6.371   1.140   3.668  0.4642  0.0257 -0.9308
13396TIP3    H261604   6.327   1.000   3.705 -0.6223  0.8717  1.2082
13397TIP3   OH261605   0.221   4.141  15.426  0.0006 -0.3263  0.1636
13397TIP3    H161606   0.308   4.164  15.392 -0.0153 -1.2111 -0.5293
13397TIP3    H261607   0.188   4.076  15.364 -2.3152  1.9429 -1.2236
13398TIP3   OH261608   3.837   5.546   2.572  0.3663 -0.4458  0.3901
13398TIP3    H161609   3.764   5.488   2.550 -0.2926  0.7589 -0.7825
13398TIP3    H261610   3.805   5.634   2.552  2.1709  0.1153 -0.2901
13399TIP3   OH261611   0.949   5.770   3.942 -0.6693  0.4066  0.5524
13399TIP3    H161612   1.015   5.837   3.959  0.0281 -0.5707  1.8730
13399TIP3    H261613   0.940   5.768   3.847  0.7862  0.9550  0.3861
13400TIP3   OH261614   3.304   4.869   5.434  0.0961  0.1561  0.5935
13400TIP3    H161615   3.232   4.839   5.490 -0.3464  1.5831  0.8292
13400TIP3    H261616   3.383   4.836   5.476 -0.2572  0.9152  1.8728
13401TIP3   OH261617   2.388   5.702  16.950  0.0995  0.1774 -0.1309
13401TIP3    H161618   2.384   5.776  16.889 -0.8005  0.8754  0.7433
13401TIP3    H261619   2.367   5.740  17.035  2.3230 -0.5872  0.8270
13402TIP3   OH261620   2.410   0.519  10.746 -0.2215  0.3674 -0.6057
13402TIP3    H161621   2.319   0.537  10.766  0.0054  0.2085  0.6285
13402TIP3    H261622   2.407   0.465  10.666 -1.3343 -1.5666  0.6595
13403TIP3   OH261623   2.669   2.318   5.529 -0.1609  0.2833 -0.6740
13403TIP3    H161624   2.646   2.397   5.577  0.8362  0.7766 -0.9731
13403TIP3    H261625   2.613   2.250   5.567 -1.2369  1.1749 -0.6052
13404TIP3   OH261626   1.042   1.514   3.743 -0.5437  0.0424  0.6264
13404TIP3    H161627   0.975   1.488   3.805 -0.6891 -1.6504 -0.1795
13404TIP3    H261628   1.004   1.495   3.657 -0.1047  1.7143  0.0244
13405TIP3   OH261629   2.416   1.571   2.739 -0.1947  0.3448  0.5977
13405TIP3    H161630   2.355   1.508   2.777  0.4793 -0.9079 -0.3366
13405TIP3    H261631   2.501   1.526   2.739 -0.1102  0.3569 -2.1083
13406TIP3   OH261632   1.850   2.788  15.260 -0.5318 -0.7540 -0.4818
13406TIP3    H161633   1.851   2.764  15.352 -1.4102 -0.1618 -0.3067
13406TIP3    H261634   1.782   2.734  15.220 -0.5181 -0.6380 -0.6701
13407TIP3   OH261635   6.737   5.717  11.291  0.3586  0.1987  0.0931
13407TIP3    H161636   6.693   5.632  11.292  0.3432  0.2081  1.0141
13407TIP3    H261637   6.776   5.725  11.379  0.9698  0.8221 -0.2267
13408TIP3   OH261638   5.994   3.576   1.685 -0.1063 -0.6830  0.4416
13408TIP3    H161639   5.978   3.631   1.608 -1.4620 -1.5666  0.0495
13408TIP3    H261640   6.067   3.519   1.659  0.1462 -0.2545  0.2068
13409TIP3   OH261641   3.604   5.138   2.739 -0.0807  0.9931 -0.2228
13409TIP3    H161642   3.569   5.132   2.651 -2.1236 -3.0292  0.6020
13409TIP3    H261643   3.527   5.137   2.796  1.2120  0.1748  1.6346
13410TIP3   OH261644   0.328   4.896  11.375 -0.0517 -0.1754 -0.0066
13410TIP3    H161645   0.395   4.963  11.390  1.0420 -0.6679 -2.2753
13410TIP3    H261646   0.347   4.828  11.440 -0.0224  0.8693  1.0965
13411TIP3   OH261647   5.971   2.565  13.914  0.2225 -0.8469  0.6159
13411TIP3    H161648   6.047   2.524  13.955  0.4561  0.3742  1.4752
13411TIP3    H261649   6.000   2.587  13.826  0.3421 -1.7781  0.4094
13412TIP3   OH261650   6.463   1.462   4.779 -0.0924 -0.0241 -0.3171
13412TIP3    H161651   6.492   1.497   4.863 -1.3620  1.5118 -0.4757
13412TIP3    H261652   6.455   1.368   4.794  0.4567  0.1248  1.0429
13413TIP3   OH261653   4.700   1.510  14.188 -0.5147  0.2591 -0.2515
13413TIP3    H161654   4.626   1.476  14.138 -0.8082  0.6125 -0.0617
13413TIP3    H261655   4.723   1.440  14.249 -0.0724 -0.2222 -0.9685
13414TIP3   OH261656   5.102   5.807   0.782 -0.0211 -0.2335  0.2851
13414TIP3    H161657   5.047   5.733   0.754 -0.4227  0.8767 -2.1921
13414TIP3    H261658   5.177   5.767   0.825 -1.5730 -1.9163  1.5894
13415TIP3   OH261659   5.361   4.431  13.732 -0.4457  0.0593 -0.2080
13415TIP3    H161660   5.411   4.363  13.688  2.9511  1.3211  1.4025
13415TIP3    H261661   5.322   4.387  13.808  0.5387 -0.3861  0.0456
13416TIP3   OH261662   0.703   1.643  12.351  1.0486  0.2485  0.0964
13416TIP3    H161663   0.632   1.705  12.335  0.4608 -0.1532  1.1046
13416TIP3    H261664   0.747   1.635  12.266 -0.3691  0.1719 -0.6567
13417TIP3   OH261665   2.967   4.036   0.767 -0.4951 -0.3239 -0.2360
13417TIP3    H161666   2.889   3.983   0.784  0.7136 -1.9108  0.7273
13417TIP3    H261667   2.984   4.081   0.850 -0.1320 -0.3747 -0.2794
13418TIP3   OH261668   6.417   2.818   3.891 -0.3214 -0.2783  0.1921
13418TIP3    H161669   6.442   2.804   3.983 -1.1823 -0.3908  0.4203
13418TIP3    H261670   6.452   2.741   3.845  1.2708  0.4209  0.1752
13419TIP3   OH261671   0.480   0.851  13.571  0.2089 -0.3640 -0.2557
13419TIP3    H161672   0.387   0.873  13.568  0.0977 -0.6725  0.6881
13419TIP3    H261673   0.523   0.931  13.600  0.3611  0.0726 -1.6085
13420TIP3   OH261674   5.047   1.143  12.652 -1.0779 -0.5030  0.0746
13420TIP3    H161675   5.056   1.077  12.720  0.7278  0.4459  0.8421
13420TIP3    H261676   5.011   1.219  12.698  3.6292  1.4667  1.1046
13421TIP3   OH261677   5.719   4.157  13.802 -0.1146  0.2390  0.4468
13421TIP3    H161678   5.655   4.205  13.855 -1.8155 -2.8674  1.4091
13421TIP3    H261679   5.706   4.065  13.825  3.6979 -0.7180 -0.4682
13422TIP3   OH261680   0.151   2.520  16.837  0.4530 -0.0274  0.3600
13422TIP3    H161681   0.138   2.431  16.804  0.9513  0.2281 -0.5737
13422TIP3    H261682   0.160   2.510  16.931 -1.4778 -0.7434  0.5115
13423TIP3   OH261683   6.269   0.970  16.833 -0.6654  0.0059  0.0954
13423TIP3    H161684   6.256   1.038  16.899 -2.0400  0.1067 -0.2425
13423TIP3    H261685   6.199   0.907  16.849  0.1276 -0.9489 -0.0849
13424TIP3   OH261686   1.068   6.043   5.353  0.1202  0.1716 -0.2959
13424TIP3    H161687   1.081   6.081   5.440  0.8943 -0.2366 -0.2206
13424TIP3    H261688   0.973   6.041   5.342  0.0476  1.5495 -0.0636
13425TIP3   OH261689   2.256   2.609   5.563 -0.0736 -0.2763 -0.1475
13425TIP3    H161690   2.171   2.600   5.521  0.3203 -1.0871 -0.8093
13425TIP3    H261691   2.320   2.595   5.493  0.5971 -1.1430  0.6025
13426TIP3   OH261692   5.968   3.896  11.657 -1.2750 -0.3505  0.3262
13426TIP3    H161693   5.939   3.881  11.567 -0.4836 -0.3775  0.0739
13426TIP3    H261694   5.965   3.810  11.698  1.7992 -1.0410 -0.6903
13427TIP3   OH261695   2.562   1.705  15.899 -0.5416 -0.5323  0.0699
13427TIP3    H161696   2.552   1.629  15.957  1.4796  1.4917  3.3983
13427TIP3    H261697   2.475   1.745  15.898 -1.1077 -1.7099 -0.0410
13428TIP3   OH261698   3.208   0.113   1.464 -0.0118 -0.2856 -0.5802
13428TIP3    H161699   3.241   0.198   1.492  0.8428 -0.8222  0.0749
13428TIP3    H261700   3.147   0.087   1.533 -1.0540  0.2284 -1.2736
13429TIP3   OH261701   4.216   5.030  16.979  0.1435 -0.3594 -0.0297
13429TIP3    H161702   4.277   5.077  17.035  3.4893 -2.0020 -2.0015
13429TIP3    H261703   4.247   5.045  16.890 -2.2526 -1.4653 -1.1641
13430TIP3   OH261704   2.147   1.606   5.156  0.7419  0.1140  0.1433
13430TIP3    H161705   2.114   1.620   5.067  1.4293 -0.9394 -0.2866
13430TIP3    H261706   2.151   1.694   5.194  2.2033  0.8119 -1.4908
13431TIP3   OH261707   3.029   1.037   4.714  0.1251  0.0993 -0.1316
13431TIP3    H161708   3.045   1.007   4.803  2.9387  0.8143 -0.2905
13431TIP3    H261709   3.033   0.958   4.661 -0.2830 -0.1656  0.2219
13432TIP3   OH261710   1.040   1.828   3.804 -0.2327 -0.4377  0.2155
13432TIP3    H161711   1.087   1.867   3.878  0.2348  0.7844 -0.7088
13432TIP3    H261712   1.084   1.744   3.789  1.2160  0.3664 -0.1824
13433TIP3   OH261713   2.863   5.069  14.739 -0.3261  0.7390 -0.0420
13433TIP3    H161714   2.897   5.069  14.828 -0.9668 -2.0814  0.3174
13433TIP3    H261715   2.768   5.078  14.750 -0.3803  0.7271 -0.4764
13434TIP3   OH261716   2.113   6.303  15.862 -0.0217 -0.4429 -0.4274
13434TIP3    H161717   2.189   6.359  15.878 -0.6525  0.5205 -0.7077
13434TIP3    H261718   2.094   6.264  15.947  0.8103 -0.7254 -0.3651
13435TIP3   OH261719   0.283   6.611   4.290 -0.1221 -0.3450  0.3707
13435TIP3    H161720   0.299   6.615   4.196 -0.5106 -0.0314  0.3174
13435TIP3    H261721   0.329   6.532   4.319  0.5022 -0.1170  0.0176
13436TIP3   OH261722   3.111   4.863   3.761 -0.0529  0.2838 -0.1583
13436TIP3    H161723   3.172   4.789   3.757 -0.0428  0.1831  1.2795
13436TIP3    H261724   3.160   4.932   3.805 -0.9434  0.2104  0.9998
13437TIP3   OH261725   5.968   0.420   0.111 -0.4853 -0.1607  0.6202
13437TIP3    H161726   6.011   0.504   0.123 -0.5354  0.3639 -2.1697
13437TIP3    H261727   6.037   0.355   0.127  0.6382  0.5778 -0.9111
13438TIP3   OH261728   5.715   0.968  11.037 -0.0046  0.4946  0.4267
13438TIP3    H161729   5.748   0.880  11.018  0.3636  0.6623  0.2722
13438TIP3    H261730   5.791   1.014  11.073 -0.3410  0.5861  1.0205
13439TIP3   OH261731   1.137   1.413  16.256 -0.1588 -0.2787  0.0206
13439TIP3    H161732   1.138   1.326  16.295 -1.2033  0.1679  1.1096
13439TIP3    H261733   1.047   1.444  16.267  0.2332  1.0216 -0.1597
13440TIP3   OH261734   0.991   2.484  15.393  0.1477  0.1383  0.3876
13440TIP3    H161735   0.999   2.446  15.305  0.8610  0.0839  0.4638
13440TIP3    H261736   0.931   2.558  15.382  0.6324  0.4543 -0.2601
13441TIP3   OH261737   2.732   6.008   2.073  0.2362  0.0115  0.2039
13441TIP3    H161738   2.651   5.971   2.108 -0.0966  1.9264  1.6504
13441TIP3    H261739   2.788   5.932   2.058 -1.1020 -1.2147  1.0896
13442TIP3   OH261740   6.427   1.231   0.488  0.5402 -0.8734 -0.2533
13442TIP3    H161741   6.469   1.305   0.444 -1.3915  0.1184 -0.5540
13442TIP3    H261742   6.453   1.154   0.438  0.5110 -0.0669 -1.5353
13443TIP3   OH261743   3.081   4.899   5.615  0.1140 -0.3141 -0.4106
13443TIP3    H161744   2.994   4.899   5.657  0.0294 -4.0030 -0.2499
13443TIP3    H261745   3.141   4.917   5.687 -0.3527 -1.6521  0.3707
13444TIP3   OH261746   5.674   1.682  12.922  0.2943 -0.9537 -0.1462
13444TIP3    H161747   5.755   1.732  12.919 -0.1064 -0.2930 -2.4793
13444TIP3    H261748   5.653   1.666  12.830 -2.3732 -0.8299  0.3485
13445TIP3   OH261749   3.991   0.782  13.874  0.7198 -0.5427 -0.2416
13445TIP3    H161750   3.984   0.876  13.859  1.7060 -0.5415 -0.7780
13445TIP3    H261751   3.998   0.744  13.787  0.1521 -1.1365 -0.0369
13446TIP3   OH261752   4.168   2.510   2.823  0.2679  0.6596  0.1872
13446TIP3    H161753   4.233   2.563   2.869 -0.2490  1.7822 -0.3270
13446TIP3    H261754   4.178   2.533   2.731  1.8495 -2.1798 -0.4640
13447TIP3   OH261755   1.438   5.320  12.363 -0.2516 -0.4939 -0.3526
13447TIP3    H161756   1.489   5.378  12.419  0.0585 -1.2788  0.2066
13447TIP3    H261757   1.460   5.347  12.274 -0.4638  0.5244 -0.1033
13448TIP3   OH261758   4.390   0.107   1.841  0.2762 -0.7219  0.0423
13448TIP3    H161759   4.475   0.122   1.883  0.4355  1.0156 -0.7930
13448TIP3    H261760   4.409   0.047   1.769  0.7846 -0.4125 -0.0884
13449TIP3   OH261761   5.666   3.260   0.872  0.0380  0.1308  0.5027
13449TIP3    H161762   5.633   3.327   0.812  1.8766 -1.0145 -1.9313
13449TIP3    H261763   5.588   3.218   0.907 -1.1060  1.9025  0.2171
13450TIP3   OH261764   6.604   1.311   4.372  0.2016  0.5397  0.0057
13450TIP3    H161765   6.519   1.356   4.372 -0.3775 -0.4914  0.6763
13450TIP3    H261766   6.589   1.233   4.426  1.5048  0.1883 -0.1110
13451TIP3   OH261767   3.183   0.281  16.658 -0.2035 -0.5569 -0.1491
13451TIP3    H161768   3.250   0.219  16.628 -0.9238 -1.7308  0.5760
13451TIP3    H261769   3.114   0.226  16.696 -1.0156  0.6819  0.2590
13452TIP3   OH261770   6.661   0.746   5.378 -0.5393  0.1283  0.2239
13452TIP3    H161771   6.633   0.828   5.336  2.0316  1.2547  0.5104
13452TIP3    H261772   6.671   0.769   5.471 -3.1592 -1.5192  1.0266
13453TIP3   OH261773   4.468   3.699   1.578 -0.0074  0.1709  0.4025
13453TIP3    H161774   4.476   3.784   1.535 -0.0408  0.3563  0.7545
13453TIP3    H261775   4.429   3.720   1.664  0.2295 -0.1685  0.5918
13454TIP3   OH261776   4.115   4.526  12.816 -0.6012  0.2079  0.4385
13454TIP3    H161777   4.185   4.592  12.819  1.0216 -1.4635  1.6402
13454TIP3    H261778   4.098   4.505  12.908  1.3209 -3.3591  0.1554
13455TIP3   OH261779   0.429   5.332   1.434  0.1016  0.4854  0.0555
13455TIP3    H161780   0.443   5.303   1.524  0.4683 -0.6166 -0.3348
13455TIP3    H261781   0.475   5.416   1.427  0.7850  0.1657  0.6617
13456TIP3   OH261782   2.573   4.632   3.747  0.0681 -0.0168 -0.0344
13456TIP3    H161783   2.531   4.546   3.753  0.9177 -0.3878  0.9884
13456TIP3    H261784   2.618   4.642   3.830 -1.6723  2.3251  0.7589
13457TIP3   OH261785   1.414   5.312   5.405  0.3214 -0.1958 -0.1781
13457TIP3    H161786   1.460   5.230   5.388 -0.1959 -0.5966  0.3089
13457TIP3    H261787   1.385   5.341   5.319 -3.6255 -2.9980 -0.0844
13458TIP3   OH261788   6.312   4.984  12.603 -0.2202 -0.0293  0.4903
13458TIP3    H161789   6.236   4.938  12.568 -0.3835 -0.3235  1.2259
13458TIP3    H261790   6.382   4.963  12.541 -0.5658 -0.3278  0.1906
13459TIP3   OH261791   2.452   4.523  11.241 -0.5972 -0.4653  0.4195
13459TIP3    H161792   2.480   4.578  11.314 -1.0072  0.3780 -0.0397
13459TIP3    H261793   2.528   4.469  11.221  1.4914  2.9400 -1.9305
13460TIP3   OH261794   0.274   4.406   5.300  0.4911 -0.1571  0.1505
13460TIP3    H161795   0.303   4.418   5.391  1.5874 -0.4090 -0.1489
13460TIP3    H261796   0.305   4.484   5.255 -0.2386  0.0660  0.0252
13461TIP3   OH261797   1.891   1.105   1.628 -0.2499 -0.5763 -0.1862
13461TIP3    H161798   1.864   1.117   1.719 -0.7844  0.5115 -0.4667
13461TIP3    H261799   1.945   1.026   1.629 -0.1003 -0.4830  1.1031
13462TIP3   OH261800   4.276   0.705   3.293  0.5478  0.4594 -0.1246
13462TIP3    H161801   4.213   0.679   3.361  0.6928  1.2253  0.3189
13462TIP3    H261802   4.360   0.711   3.339  0.7482  0.4516 -0.4896
13463TIP3   OH261803   0.300   5.210  13.869 -0.0175  0.4793  0.1969
13463TIP3    H161804   0.325   5.120  13.848  0.4155  0.6023  0.1761
13463TIP3    H261805   0.333   5.223  13.958 -1.6314  0.0359  0.8928
13464TIP3   OH261806   2.494   1.664  13.629  0.1585 -0.0713 -0.0248
13464TIP3    H161807   2.437   1.591  13.606  0.4777 -0.0779 -0.8468
13464TIP3    H261808   2.549   1.631  13.700 -0.8461 -0.0609  0.7787
13465TIP3   OH261809   1.794   6.180  14.752  0.0300 -0.2534  0.1925
13465TIP3    H161810   1.798   6.209  14.661 -1.6851  1.9945  0.7496
13465TIP3    H261811   1.704   6.149  14.763 -0.7256  2.2672  1.8048
13466TIP3   OH261812   1.736   0.891  16.176 -0.2721 -0.1905  0.0046
13466TIP3    H161813   1.717   0.961  16.114  0.5112  1.1514  1.2302
13466TIP3    H261814   1.770   0.820  16.122 -0.6872  0.5151 -1.2136
13467TIP3   OH261815   6.505   2.851   0.138 -0.6148 -0.0374 -0.1642
13467TIP3    H161816   6.500   2.761   0.169 -0.2402 -0.3948 -1.1158
13467TIP3    H261817   6.599   2.869   0.132 -0.6819  0.1829 -0.6321
13468TIP3   OH261818   2.049   1.179   3.273 -0.2927  0.0562  0.0214
13468TIP3    H161819   2.045   1.220   3.359  0.7966 -0.7480  0.4842
13468TIP3    H261820   1.990   1.104   3.279 -0.2201  0.0028  0.0706
13469TIP3   OH261821   4.939   6.799  13.921 -0.2962  0.6474 -0.4520
13469TIP3    H161822   4.878   6.727  13.906  0.7988 -0.3387 -0.3926
13469TIP3    H261823   4.987   6.773  14.001  0.8489  0.8970 -1.0350
13470TIP3   OH261824   1.879   6.018   0.446 -0.0567  0.4002  0.1367
13470TIP3    H161825   1.801   6.047   0.494 -0.3286 -0.4826  0.2348
13470TIP3    H261826   1.876   6.067   0.364  0.5828  2.1795  1.1032
13471TIP3   OH261827   1.532   2.327  12.970 -0.5368  0.0151  0.1168
13471TIP3    H161828   1.479   2.250  12.954 -0.8830 -0.0956  1.6551
13471TIP3    H261829   1.529   2.340  13.064 -0.4657  1.9011 -0.0912
13472TIP3   OH261830   6.753   1.281  13.012 -0.2666  0.2428 -0.2700
13472TIP3    H161831   6.707   1.295  13.095 -0.4755  1.0862 -0.5158
13472TIP3    H261832   6.767   1.186  13.008 -1.9854 -0.0454 -0.1802
13473TIP3   OH261833   0.873   2.592   5.458 -0.1441  0.0279  0.7346
13473TIP3    H161834   0.919   2.654   5.402 -1.3562 -0.2633 -0.6508
13473TIP3    H261835   0.793   2.638   5.486  0.1682 -0.0360  1.7818
13474TIP3   OH261836   1.473   2.778   4.271 -0.0391 -0.3571 -0.8813
13474TIP3    H161837   1.378   2.777   4.282  0.1075  0.5022  0.6292
13474TIP3    H261838   1.504   2.841   4.335  1.4132  0.8351 -2.6810
13475TIP3   OH261839   1.768   6.400   2.982 -0.2919 -0.0372  0.5305
13475TIP3    H161840   1.732   6.364   2.901  0.4697 -0.7506  0.4972
13475TIP3    H261841   1.856   6.429   2.959  0.5919 -1.8021  1.4484
13476TIP3   OH261842   5.038   3.768  15.203  0.2242  0.5847 -0.0613
13476TIP3    H161843   5.114   3.765  15.145 -0.5005  0.2716 -1.0504
13476TIP3    H261844   5.073   3.785  15.290  1.3381  1.3181 -0.6331
13477TIP3   OH261845   3.439   1.194  12.710 -0.7623 -0.7666  0.7265
13477TIP3    H161846   3.419   1.203  12.617  2.7299  2.2557  0.0060
13477TIP3    H261847   3.535   1.197  12.715 -0.7947  0.4404  4.4442
13478TIP3   OH261848   4.020   6.439  14.958  0.1244 -0.1797  0.0378
13478TIP3    H161849   4.004   6.499  15.031 -0.1352 -0.3631  0.1325
13478TIP3    H261850   4.100   6.392  14.983 -0.2417 -0.5985  0.4367
13479TIP3   OH261851   0.639   3.847   5.773 -0.8673 -0.1091  0.1731
13479TIP3    H161852   0.660   3.807   5.857 -0.2892 -0.1742  0.0040
13479TIP3    H261853   0.669   3.783   5.708  1.5843  1.2194 -0.1521
13480TIP3   OH261854   4.423   2.228  15.693 -0.0833 -0.2860 -0.5286
13480TIP3    H161855   4.456   2.162  15.632 -1.4166 -0.4282 -1.1271
13480TIP3    H261856   4.403   2.304  15.639 -0.8213 -0.2429 -0.2051
13481TIP3   OH261857   5.754   4.003   4.333  0.1338 -0.6703  0.2110
13481TIP3    H161858   5.728   3.940   4.400 -3.2040  1.2918  0.9719
13481TIP3    H261859   5.687   3.994   4.265 -0.2279  1.7066  0.1768
13482TIP3   OH261860   4.851   4.480  11.532  0.4079 -0.5468 -0.1024
13482TIP3    H161861   4.917   4.498  11.598  0.8144  0.0052 -0.6519
13482TIP3    H261862   4.898   4.431  11.464 -0.0231 -1.1717  0.0379
13483TIP3   OH261863   3.639   4.834  16.057 -1.1756 -0.0113 -0.2200
13483TIP3    H161864   3.668   4.870  15.973 -1.8947 -0.5103 -0.6922
13483TIP3    H261865   3.720   4.807  16.101 -0.7234  1.0626 -0.3705
13484TIP3   OH261866   4.474   6.673  12.530 -0.0417 -0.0658  0.4614
13484TIP3    H161867   4.431   6.758  12.547  2.0209  1.2752 -0.6044
13484TIP3    H261868   4.467   6.626  12.613 -0.9443  1.2824  1.1915
13485TIP3   OH261869   6.241   5.029  12.182  0.4926 -0.2498 -0.3297
13485TIP3    H161870   6.196   4.981  12.112 -0.4452  0.9988 -0.6264
13485TIP3    H261871   6.170   5.066  12.234  1.1881 -0.6629  0.9482
13486TIP3   OH261872   4.157   4.758  15.726 -0.6125  0.2012 -0.3050
13486TIP3    H161873   4.224   4.700  15.763 -0.4816  1.2772  1.2768
13486TIP3    H261874   4.080   4.744  15.781 -2.0500 -1.6192 -2.5971
13487TIP3   OH261875   5.220   3.119   4.750  0.1900  0.2219  0.0686
13487TIP3    H161876   5.228   3.146   4.841 -0.4354  0.1532  0.1482
13487TIP3    H261877   5.201   3.025   4.754  2.8732 -0.4429 -0.2134
13488TIP3   OH261878   3.655   1.114   4.210  0.7032  0.7706  0.5762
13488TIP3    H161879   3.740   1.135   4.171  0.1467  1.7476 -0.1930
13488TIP3    H261880   3.671   1.114   4.304  2.0328 -1.3753  0.4171
13489TIP3   OH261881   4.124   4.731   4.576  0.1204  0.2441 -0.1654
13489TIP3    H161882   4.137   4.643   4.612  1.1508 -0.3406 -1.8083
13489TIP3    H261883   4.030   4.737   4.559  0.1305 -0.8262 -0.6617
13490TIP3   OH261884   0.081   4.630  11.064 -0.3200 -0.2100  0.0471
13490TIP3    H161885   0.153   4.693  11.062 -2.5902  2.5988 -0.1843
13490TIP3    H261886   0.024   4.657  10.992 -1.9381 -1.9354  0.6011
13491TIP3   OH261887   2.229   0.445  13.962  0.2986 -0.0679  0.2775
13491TIP3    H161888   2.179   0.510  13.913  1.1608  0.2344 -0.2182
13491TIP3    H261889   2.306   0.493  13.994 -0.5381 -0.0857  2.4845
13492TIP3   OH261890   0.859   2.882  14.557 -0.5220 -0.0712 -0.3528
13492TIP3    H161891   0.807   2.857  14.481  0.4579  1.3002 -1.5115
13492TIP3    H261892   0.855   2.805  14.615  0.2958 -1.8953 -2.6045
13493TIP3   OH261893   4.870   3.254  12.462  0.1163  0.2696  0.3052
13493TIP3    H161894   4.893   3.181  12.405  0.3421  0.8113 -0.3201
13493TIP3    H261895   4.951   3.276  12.507  0.1810  0.4652  0.0985
13494TIP3   OH261896   2.860   1.736   1.773 -0.1270 -0.3714 -0.3928
13494TIP3    H161897   2.777   1.738   1.726 -0.8515  1.5203  0.8665
13494TIP3    H261898   2.869   1.645   1.802 -0.9851 -0.9440 -1.7990
13495TIP3   OH261899   6.249   1.686   2.987 -0.0355  0.5846  0.7196
13495TIP3    H161900   6.239   1.672   3.081 -0.4796 -0.9550  0.4805
13495TIP3    H261901   6.308   1.760   2.979  0.7444  0.1515  2.2076
13496TIP3   OH261902   5.959   5.371  11.286 -0.2229 -0.3229  0.0512
13496TIP3    H161903   5.911   5.441  11.242  0.9274  0.1573 -0.4774
13496TIP3    H261904   5.958   5.298  11.223 -1.9236 -1.0412  0.8308
13497TIP3   OH261905   4.577   1.279   5.642 -0.2967  0.1003 -0.8367
13497TIP3    H161906   4.538   1.342   5.702  1.2368  0.6979 -0.4294
13497TIP3    H261907   4.564   1.194   5.684  1.3327  0.5652  0.7040
13498TIP3   OH261908   1.196   2.205  15.858  0.4156 -0.2688 -0.2484
13498TIP3    H161909   1.139   2.280  15.878 -0.4495 -0.8486 -0.5006
13498TIP3    H261910   1.285   2.240  15.867  0.0275  0.7381 -0.1582
13499TIP3   OH261911   6.368   4.790  15.500 -0.1360  0.4125  0.5896
13499TIP3    H161912   6.437   4.826  15.556  0.3089  0.1547  0.2181
13499TIP3    H261913   6.413   4.766  15.419 -0.4492 -0.8185  0.7586
13500TIP3   OH261914   2.495   0.763   0.466 -0.0047  0.2545  0.7980
13500TIP3    H161915   2.570   0.821   0.474  1.0528 -1.0156  0.5343
13500TIP3    H261916   2.505   0.701   0.538 -0.3800 -0.3708  0.3199
13501TIP3   OH261917   1.388   0.602   0.522  0.3977 -0.2514 -0.1322
13501TIP3    H161918   1.388   0.679   0.580  2.6396 -1.8628  2.2309
13501TIP3    H261919   1.460   0.548   0.555  0.2149 -2.4336 -3.0040
13502TIP3   OH261920   0.722   4.968  15.319 -0.2760  0.0113 -0.6188
13502TIP3    H161921   0.714   4.973  15.414  0.3431 -1.3133 -0.4771
13502TIP3    H261922   0.780   5.041  15.296 -0.4885  0.3842 -0.0017
13503TIP3   OH261923   6.091   2.211   2.653 -0.7398  0.3712 -0.0078
13503TIP3    H161924   6.053   2.284   2.605  0.8218  0.0188 -1.9192
13503TIP3    H261925   6.023   2.144   2.653 -0.9601  0.5605 -1.3974
13504TIP3   OH261926   5.863   2.002   0.062  0.2947  0.6003 -0.0965
13504TIP3    H161927   5.880   2.043   0.146 -0.1640 -0.1804  0.3896
13504TIP3    H261928   5.861   2.074  -0.001 -0.6454  1.3308  0.7478
13505TIP3   OH261929   5.963   0.458   3.993 -0.6065 -0.2537  0.0600
13505TIP3    H161930   5.949   0.485   4.084  0.0560  1.2798 -0.2652
13505TIP3    H261931   5.895   0.504   3.944  0.2982  0.5404 -0.4659
13506TIP3   OH261932   1.362   5.608   1.896 -0.6812 -0.5772 -0.0234
13506TIP3    H161933   1.326   5.588   1.810  3.9199 -1.2476 -2.1273
13506TIP3    H261934   1.394   5.697   1.889  0.1901 -0.8079  0.7911
13507TIP3   OH261935   5.114   0.416   5.632 -1.0032 -0.6259  0.2861
13507TIP3    H161936   5.113   0.494   5.688 -0.6015 -1.3235  1.2889
13507TIP3    H261937   5.204   0.411   5.601 -1.0945 -0.5476  0.0053
13508TIP3   OH261938   6.403   4.747  12.058  0.0537 -0.2271  0.1905
13508TIP3    H161939   6.311   4.767  12.044  0.1003 -0.1704 -0.0372
13508TIP3    H261940   6.406   4.651  12.065  0.0206 -0.2484 -0.1097
13509TIP3   OH261941   2.445   1.129   3.492  0.0763  0.0259  0.1446
13509TIP3    H161942   2.412   1.157   3.577  0.5196  0.0008  0.3251
13509TIP3    H261943   2.491   1.047   3.510  2.5092  1.3399  0.3690
13510TIP3   OH261944   6.386   1.163  12.976  0.4169  0.0953  0.0176
13510TIP3    H161945   6.431   1.244  12.953  0.1587 -0.4133 -2.4967
13510TIP3    H261946   6.426   1.136  13.059  3.0127  0.9410 -0.8825
13511TIP3   OH261947   5.025   2.530  11.637  0.1144  0.2662  0.2304
13511TIP3    H161948   5.089   2.466  11.670  0.6701  0.7704  0.1453
13511TIP3    H261949   5.002   2.582  11.713  1.3737  1.4103 -0.1330
13512TIP3   OH261950   2.697   2.045   1.645  0.0145 -0.0845  0.1892
13512TIP3    H161951   2.673   2.126   1.689  0.5522  0.2108 -0.0526
13512TIP3    H261952   2.784   2.062   1.608 -0.4865 -0.2572 -1.1406
13513TIP3   OH261953   2.818   4.230   2.790 -0.0049 -0.1925 -0.6741
13513TIP3    H161954   2.822   4.238   2.885 -1.7345 -0.9832 -0.5115
13513TIP3    H261955   2.898   4.273   2.759  1.8599 -2.0754  1.2477
13514TIP3   OH261956   6.196   5.723  10.609 -0.0065 -0.1041  0.0036
13514TIP3    H161957   6.262   5.789  10.587  1.0572 -0.0495  2.8775
13514TIP3    H261958   6.147   5.762  10.682 -1.3234 -1.3222 -0.1911
13515TIP3   OH261959   5.080   5.682  16.190 -0.1747  0.0620  0.2551
13515TIP3    H161960   5.058   5.590  16.172 -1.2699  0.2673  0.4738
13515TIP3    H261961   5.118   5.714  16.108 -0.7213 -0.3193 -0.1559
13516TIP3   OH261962   2.619   6.801   3.373  0.0166  0.2277 -0.0496
13516TIP3    H161963   2.624   6.759   3.458 -0.9579  0.1834 -0.0103
13516TIP3    H261964   2.695   6.767   3.325  0.3806  0.0008  0.6793
13517TIP3   OH261965   2.268   3.793   1.098 -0.0051 -0.2134  0.1572
13517TIP3    H161966   2.272   3.744   1.180  1.6966 -0.5067 -0.0748
13517TIP3    H261967   2.232   3.730   1.035  0.0736 -0.4519  0.3483
13518TIP3   OH261968   5.969   2.446  12.080 -0.3258 -0.3134  0.6632
13518TIP3    H161969   5.878   2.421  12.091 -0.2550 -2.1513 -2.0064
13518TIP3    H261970   5.974   2.477  11.990  1.1447  2.7082  1.6530
13519TIP3   OH261971   6.668   4.028  15.941 -0.4354 -0.1678  0.1385
13519TIP3    H161972   6.709   4.108  15.974  1.6987 -0.9631 -0.3994
13519TIP3    H261973   6.734   3.991  15.881 -2.1174 -1.3769 -1.0422
13520TIP3   OH261974   3.094   1.021   1.093  0.1431 -0.2566 -0.3316
13520TIP3    H161975   3.154   1.095   1.099  0.8647 -0.9071  0.8795
13520TIP3    H261976   3.147   0.944   1.116 -1.4440 -0.6717  2.4784
13521TIP3   OH261977   5.366   0.847   2.813  0.3418  0.5178  0.1470
13521TIP3    H161978   5.344   0.922   2.869  1.5149 -0.5503  2.1369
13521TIP3    H261979   5.332   0.771   2.861  1.5202 -0.4439 -0.5047
13522TIP3   OH261980   2.404   2.792   5.733  0.9208  0.1995 -0.0270
13522TIP3    H161981   2.323   2.762   5.692  1.4610  0.5831 -1.4287
13522TIP3    H261982   2.389   2.779   5.827  0.0102 -1.5874 -0.3762
13523TIP3   OH261983   1.640   1.612   0.023 -0.1729  0.0402 -0.5117
13523TIP3    H161984   1.666   1.556   0.097  2.5395  0.2629 -1.1760
13523TIP3    H261985   1.573   1.669   0.059  1.2526  0.3452  1.9182
13524TIP3   OH261986   2.900   2.443   3.207  0.6667  0.1206 -0.1500
13524TIP3    H161987   2.831   2.382   3.182  0.5108  0.1240  0.2631
13524TIP3    H261988   2.960   2.391   3.260  0.2478  0.4521  0.6584
13525TIP3   OH261989   6.761   1.517  16.943 -0.0109 -0.0636 -0.2035
13525TIP3    H161990   6.675   1.560  16.936 -0.3728 -0.4930  1.2824
13525TIP3    H261991   6.752   1.439  16.888 -1.6013 -1.6073  2.0445
13526TIP3   OH261992   3.838   6.681  16.128 -0.5269 -0.1068 -0.1370
13526TIP3    H161993   3.902   6.750  16.110  0.5139 -0.9197  0.2875
13526TIP3    H261994   3.852   6.658  16.220 -0.7006 -1.0188 -0.3224
13527TIP3   OH261995   5.283   1.113   1.429  0.0061 -0.3045 -0.4624
13527TIP3    H161996   5.232   1.123   1.349 -0.8375  3.0312  0.3247
13527TIP3    H261997   5.219   1.119   1.500  1.1831  2.0851  0.5070
13528TIP3   OH261998   5.242   2.836  14.908  0.3108  0.6325 -0.2029
13528TIP3    H161999   5.234   2.930  14.926  1.0780  0.6716 -0.0002
13528TIP3    H262000   5.332   2.826  14.875  0.6492 -0.2063  0.9200
13529TIP3   OH262001   1.137   5.981   1.697  0.4134 -0.3253 -0.0098
13529TIP3    H162002   1.199   5.969   1.625  1.4184 -1.5582  1.0088
13529TIP3    H262003   1.086   5.900   1.697  0.3783 -0.3057  0.6089
13530TIP3   OH262004   4.698   4.989  13.436  1.0323  0.1012  0.2481
13530TIP3    H162005   4.754   5.020  13.365  1.7742 -0.2885  0.6442
13530TIP3    H262006   4.652   5.067  13.467  0.7428  0.2805 -0.6153
13531TIP3   OH262007   1.132   6.727   4.735  0.0635  0.0951 -0.0996
13531TIP3    H162008   1.177   6.713   4.651  0.5023 -1.3459  0.3438
13531TIP3    H262009   1.042   6.698   4.718 -0.1370  0.8711 -0.3768
13532TIP3   OH262010   0.024   4.022   1.457 -0.1547  0.0008  0.2985
13532TIP3    H162011   0.075   3.968   1.517  2.3468  1.0913 -0.7298
13532TIP3    H262012   0.089   4.064   1.400 -2.0927  2.5706 -0.2228
13533TIP3   OH262013   1.273   6.471   4.378  0.1064 -0.2979  0.2741
13533TIP3    H162014   1.325   6.456   4.298 -1.8746  0.1934 -1.1894
13533TIP3    H262015   1.299   6.558   4.408 -0.6894  0.4759 -1.1577
13534TIP3   OH262016   5.247   0.679  11.250  0.9859 -0.8063  0.2090
13534TIP3    H162017   5.239   0.671  11.345 -0.3953 -1.9101  0.0337
13534TIP3    H262018   5.171   0.633  11.216  0.4244  1.1861 -1.4139
13535TIP3   OH262019   6.253   2.086   4.474  0.4404  0.4381  0.1947
13535TIP3    H162020   6.279   2.170   4.513  1.0048  0.2656  0.1983
13535TIP3    H262021   6.268   2.097   4.380 -0.8029  0.8110  0.0284
13536TIP3   OH262022   5.300   1.923   0.434 -0.3236 -0.3219 -0.0284
13536TIP3    H162023   5.369   1.906   0.370  0.0166  0.8431  0.0189
13536TIP3    H262024   5.232   1.968   0.384 -0.7219 -0.7545  0.1075
13537TIP3   OH262025   4.227   5.100  12.376  0.2369 -0.0911  0.4726
13537TIP3    H162026   4.141   5.125  12.408 -0.8004 -1.4075 -1.0989
13537TIP3    H262027   4.253   5.172  12.318  0.5954  0.6914  1.5744
13538TIP3   OH262028   3.733   1.626  14.237  0.1236 -0.2860  0.5517
13538TIP3    H162029   3.745   1.721  14.245 -0.1639 -0.0057 -1.6429
13538TIP3    H262030   3.638   1.616  14.225 -0.0830 -1.0499  2.5510
13539TIP3   OH262031   1.471   0.565  13.748  0.3374  0.4874  0.2856
13539TIP3    H162032   1.382   0.540  13.725  0.3085  0.5497  0.3282
13539TIP3    H262033   1.463   0.654  13.782  0.3188  0.2446  0.9389
13540TIP3   OH262034   1.938   3.004  16.848  0.1878  0.0090  0.8254
13540TIP3    H162035   1.878   2.941  16.810  0.5640  0.3635 -0.4163
13540TIP3    H262036   1.889   3.086  16.852  0.4752  0.2269  0.0879
13541TIP3   OH262037   2.348   0.758  11.243 -0.2388  0.3682 -0.5626
13541TIP3    H162038   2.286   0.782  11.175 -0.0187  0.7233 -0.6407
13541TIP3    H262039   2.355   0.836  11.298 -0.5656  0.0159 -0.0186
13542TIP3   OH262040   1.380   2.089   2.464 -0.5119  0.2557 -0.1541
13542TIP3    H162041   1.361   2.119   2.553  1.8893 -0.4038  0.6615
13542TIP3    H262042   1.370   1.994   2.469 -1.4411  0.2983 -0.9139
13543TIP3   OH262043   4.351   4.020   0.889 -0.0926  0.1761  0.2098
13543TIP3    H162044   4.321   4.090   0.947 -0.6625  1.1420 -1.1812
13543TIP3    H262045   4.289   3.948   0.904  0.3612  0.0345  1.4893
13544TIP3   OH262046   0.882   5.363  16.408 -0.0086  0.4520 -0.1511
13544TIP3    H162047   0.941   5.414  16.464  0.5409 -1.2124  0.8468
13544TIP3    H262048   0.930   5.352  16.326 -0.8438  2.9581 -1.0828
13545TIP3   OH262049   0.370   0.801   4.801  0.0153  0.0017 -0.3273
13545TIP3    H162050   0.420   0.845   4.732 -1.1278  0.2594 -1.0063
13545TIP3    H262051   0.382   0.856   4.878  2.2616 -0.8907  0.0508
13546TIP3   OH262052   6.506   2.457  11.052 -0.1046 -0.2540 -0.3126
13546TIP3    H162053   6.463   2.455  10.966  0.0696 -0.5717 -0.3909
13546TIP3    H262054   6.441   2.422  11.112  0.5677 -2.2008 -0.6599
13547TIP3   OH262055   4.946   0.515   1.041  0.4351  0.0637 -0.1669
13547TIP3    H162056   4.857   0.517   1.077  0.5864 -0.7226  0.2815
13547TIP3    H262057   4.934   0.526   0.947 -0.5676 -3.9891 -0.7213
13548TIP3   OH262058   4.056   4.041   4.103 -0.5574  0.0756 -0.2683
13548TIP3    H162059   4.073   3.951   4.130  0.7698  1.2963  3.5899
13548TIP3    H262060   4.143   4.078   4.088 -0.7993  1.5533  1.6099
13549TIP3   OH262061   3.392   0.855  12.495  0.1839  0.0116 -0.3703
13549TIP3    H162062   3.463   0.851  12.559 -0.2243  0.6954  0.1464
13549TIP3    H262063   3.312   0.841  12.547 -0.1744  0.8350 -0.6756
13550TIP3   OH262064   4.750   5.966  16.423  0.2764 -0.2443 -0.3033
13550TIP3    H162065   4.670   5.938  16.379  0.7162  0.3310 -1.5210
13550TIP3    H262066   4.719   6.013  16.500 -0.5517 -0.4559 -0.4925
13551TIP3   OH262067   3.429   1.014  10.386  0.6281  0.2643 -0.1068
13551TIP3    H162068   3.443   1.090  10.443 -0.9978  0.1482  0.4942
13551TIP3    H262069   3.371   1.047  10.317  0.2820 -0.3182 -0.0953
13552TIP3   OH262070   1.648   1.845   2.765  0.3837 -0.7563 -0.4008
13552TIP3    H162071   1.685   1.856   2.852  0.2069  0.3118 -0.4556
13552TIP3    H262072   1.717   1.876   2.706 -0.1287  0.1153 -0.5553
13553TIP3   OH262073   4.191   2.777   4.738 -0.3612  0.5950 -0.1653
13553TIP3    H162074   4.113   2.722   4.746 -0.9860  1.6962  2.0680
13553TIP3    H262075   4.248   2.749   4.809  1.2577 -0.0576 -1.6462
13554TIP3   OH262076   2.115   3.981  14.786 -0.4851  0.1709 -0.4681
13554TIP3    H162077   2.163   3.909  14.744  2.1330  2.4715 -1.7203
13554TIP3    H262078   2.121   3.962  14.880 -0.1027 -1.3742 -0.7773
13555TIP3   OH262079   2.530   1.271  11.910  0.5820  0.1517  0.0561
13555TIP3    H162080   2.620   1.240  11.905  0.7945  0.4122  1.7329
13555TIP3    H262081   2.537   1.363  11.933 -0.1205  0.1297  0.3947
13556TIP3   OH262082   2.585   2.055   2.153  0.0513  0.1496 -0.8223
13556TIP3    H162083   2.627   2.002   2.085  1.7940  0.1218  0.2182
13556TIP3    H262084   2.656   2.110   2.187 -1.1313  1.2482 -0.0510
13557TIP3   OH262085   4.392   1.271  12.644  0.0534 -0.3549  0.1550
13557TIP3    H162086   4.478   1.251  12.680 -0.8144 -1.9036  1.4735
13557TIP3    H262087   4.371   1.196  12.589 -0.7378 -0.3178  0.3911
13558TIP3   OH262088   6.808   4.216  12.649  0.1584 -0.1716 -0.4196
13558TIP3    H162089   6.805   4.123  12.670  0.9942  0.1064  1.0825
13558TIP3    H262090   6.865   4.254  12.716 -0.3196  1.4548 -0.8853
13559TIP3   OH262091   3.522   4.082   5.678 -0.3051  0.1559 -0.5646
13559TIP3    H162092   3.563   4.050   5.759  0.8913 -0.4043 -1.3647
13559TIP3    H262093   3.579   4.154   5.650 -1.2785  1.0123 -0.3970
13560TIP3   OH262094   5.879   2.542  13.151 -0.1380  0.0366 -0.2560
13560TIP3    H162095   5.964   2.585  13.153 -0.5052  0.8008  1.7679
13560TIP3    H262096   5.859   2.531  13.058  2.5189 -0.9724 -0.7740
13561TIP3   OH262097   2.584   4.573  14.989 -0.1215 -0.2482 -0.7393
13561TIP3    H162098   2.641   4.497  14.982 -0.4784 -0.3959 -2.4380
13561TIP3    H262099   2.605   4.611  15.074  1.6623 -0.9492 -0.8305
13562TIP3   OH262100   0.453   0.534   6.283 -0.0110  0.1071  0.0353
13562TIP3    H162101   0.426   0.451   6.322 -0.8944  0.5087  0.3154
13562TIP3    H262102   0.490   0.584   6.356  0.3501  0.0256 -0.0937
13563TIP3   OH262103   0.449   5.097  12.253  0.2543 -0.0456  0.3251
13563TIP3    H162104   0.460   5.189  12.227 -0.8497 -0.5126 -2.0444
13563TIP3    H262105   0.516   5.050  12.204 -0.3760 -0.7126  0.0910
13564TIP3   OH262106   0.076   1.662  13.599  0.1685  0.8650 -0.5246
13564TIP3    H162107   0.040   1.614  13.525  1.1106  2.7868 -2.3619
13564TIP3    H262108   0.085   1.752  13.567  1.1196  1.6724  1.7673
13565TIP3   OH262109   1.167   1.944   3.429  0.4115  0.6893 -0.3887
13565TIP3    H162110   1.161   1.972   3.521  0.6054 -0.4790 -0.0114
13565TIP3    H262111   1.083   1.971   3.391  1.2264  3.3624 -0.5321
13566TIP3   OH262112   6.627   6.690  16.166  0.1694 -0.1174 -0.1225
13566TIP3    H162113   6.606   6.773  16.121  1.7587  0.6799  0.5094
13566TIP3    H262114   6.669   6.637  16.098  1.5423  0.6486  0.0914
13567TIP3   OH262115   5.750   4.442   1.583  0.2660 -0.1123 -0.0667
13567TIP3    H162116   5.681   4.404   1.529 -1.9142  0.5547  2.0660
13567TIP3    H262117   5.756   4.384   1.659  1.1491  0.5446  0.3832
13568TIP3   OH262118   1.376   4.642  13.075  0.0249 -0.7561 -0.3528
13568TIP3    H162119   1.401   4.553  13.099 -1.5095 -1.0606  0.1797
13568TIP3    H262120   1.411   4.697  13.145 -1.2760 -1.2484  0.7316
13569TIP3   OH262121   3.887   1.587   2.047  0.3160  0.3216  0.3534
13569TIP3    H162122   3.856   1.532   2.118 -0.2488 -0.0866 -0.2036
13569TIP3    H262123   3.832   1.665   2.051  1.3515  1.0384  1.3688
13570TIP3   OH262124   3.983   6.816  14.520 -0.0522 -0.3723  0.6610
13570TIP3    H162125   3.896   6.811  14.560 -0.4006  1.4078  0.2105
13570TIP3    H262126   4.022   6.894  14.558  1.3612 -1.1079  0.8011
13571TIP3   OH262127   4.258   4.193  11.182  0.1784 -0.0943 -0.6442
13571TIP3    H162128   4.234   4.248  11.107  0.1682  1.1083  0.2166
13571TIP3    H262129   4.185   4.131  11.191 -0.2814  0.3817 -1.0347
13572TIP3   OH262130   3.764   3.521  12.236 -0.3145 -0.1550 -0.2720
13572TIP3    H162131   3.717   3.588  12.285  2.1263  0.3556  1.5264
13572TIP3    H262132   3.750   3.546  12.144 -0.0174  2.4607  0.3076
13573TIP3   OH262133   4.928   1.200   0.012  0.1104  0.2029  0.1328
13573TIP3    H162134   4.890   1.142   0.078 -1.8016  0.8278 -0.3684
13573TIP3    H262135   4.910   1.156  -0.071 -0.1788  0.8656 -0.1604
13574TIP3   OH262136   6.640   6.374  12.285 -0.1987 -0.4961 -0.1976
13574TIP3    H162137   6.587   6.452  12.302 -0.3611 -0.2540 -1.6807
13574TIP3    H262138   6.710   6.404  12.228  0.2246 -1.2762 -0.1049
13575TIP3   OH262139   4.986   4.706   2.576  0.1358  0.7476 -0.6034
13575TIP3    H162140   4.941   4.753   2.506  0.2466  0.3546 -0.9439
13575TIP3    H262141   4.938   4.623   2.583 -0.1606  0.9706  0.0970
13576TIP3   OH262142   1.989   4.745  16.602  0.1119 -0.0631 -0.7625
13576TIP3    H162143   2.046   4.797  16.658  0.0145 -0.4397 -0.3105
13576TIP3    H262144   1.901   4.761  16.636 -0.0462  0.4045 -1.3690
13577TIP3   OH262145   2.149   0.205   4.261  0.2901  0.2544 -0.0033
13577TIP3    H162146   2.078   0.181   4.202  0.7509 -0.0780 -0.4278
13577TIP3    H262147   2.157   0.131   4.321  0.9567 -0.1682 -0.6016
13578TIP3   OH262148   0.676   0.793   3.890 -0.3425  0.0188  0.0692
13578TIP3    H162149   0.731   0.731   3.843 -0.3578  1.3101 -1.7082
13578TIP3    H262150   0.589   0.782   3.852 -1.2315 -1.3984  2.2687
13579TIP3   OH262151   4.017   5.781   0.096 -0.0863  0.1918 -0.0887
13579TIP3    H162152   4.045   5.775   0.188  0.4873 -0.1606 -0.2821
13579TIP3    H262153   4.098   5.785   0.047 -0.4001  1.0459 -0.5454
13580TIP3   OH262154   3.339   3.965  14.689 -0.2751 -0.5538 -0.3315
13580TIP3    H162155   3.357   3.930  14.776  2.5301  0.5018 -0.3940
13580TIP3    H262156   3.300   3.892  14.641 -0.2531 -1.6701  1.2944
13581TIP3   OH262157   6.659   2.053  14.199  0.0030 -0.5287  0.0384
13581TIP3    H162158   6.657   1.988  14.129 -2.2656 -1.7548  1.1284
13581TIP3    H262159   6.629   2.006  14.277  1.7626  0.9452  1.7240
13582TIP3   OH262160   6.633   4.176  16.919  0.2463  0.5471  0.1422
13582TIP3    H162161   6.619   4.244  16.985  0.8217 -0.4188  1.2766
13582TIP3    H262162   6.723   4.148  16.931  0.0355 -0.3872 -0.3463
13583TIP3   OH262163   1.790   6.273   3.226  0.6029  0.8723 -0.0481
13583TIP3    H162164   1.746   6.321   3.156 -1.2082 -0.5173  0.0685
13583TIP3    H262165   1.875   6.250   3.189 -0.4756 -0.2233 -2.0188
13584TIP3   OH262166   3.083   3.779  11.978  0.5573 -0.0539 -0.1854
13584TIP3    H162167   3.170   3.763  12.014 -0.1859  0.5658  2.0921
13584TIP3    H262168   3.056   3.863  12.016 -1.4902 -0.7996  0.1516
13585TIP3   OH262169   2.024   0.341  12.907  0.1221 -0.1923  0.5871
13585TIP3    H162170   2.027   0.266  12.848  2.1056 -0.0552  0.4489
13585TIP3    H262171   2.071   0.312  12.985  0.1269  0.5976  0.8911
13586TIP3   OH262172   5.022   3.127  13.873  0.1330  0.0880  0.2589
13586TIP3    H162173   5.069   3.056  13.917 -0.2380 -0.1947  0.2050
13586TIP3    H262174   4.930   3.101  13.876 -0.0263  0.6374  0.3659
13587TIP3   OH262175   6.701   0.723  12.112  0.0093  0.3210  0.2146
13587TIP3    H162176   6.703   0.665  12.035  1.1438 -0.6650  0.9516
13587TIP3    H262177   6.618   0.770  12.104  0.3249  0.6086 -1.8678
13588TIP3   OH262178   4.565   2.038  14.296  0.1434 -0.0247  0.3358
13588TIP3    H162179   4.589   2.071  14.210  0.8472 -0.7830  0.2303
13588TIP3    H262180   4.537   2.116  14.345  0.7322  0.5589 -0.2450
13589TIP3   OH262181   5.030   3.869  16.736  0.2957 -0.3277 -0.2932
13589TIP3    H162182   5.039   3.840  16.646  0.6267  1.5606 -0.9154
13589TIP3    H262183   5.119   3.894  16.763  0.4096 -1.9348  0.9772
13590TIP3   OH262184   4.239   1.405   3.714 -0.1746  0.0717 -0.0278
13590TIP3    H162185   4.185   1.386   3.791 -0.2187 -0.6480 -0.2339
13590TIP3    H262186   4.319   1.354   3.728 -1.0334 -1.7548 -1.4574
13591TIP3   OH262187   0.843   4.681   4.746  0.4975 -0.6556  0.7024
13591TIP3    H162188   0.929   4.720   4.733  0.7769 -1.5187 -0.1157
13591TIP3    H262189   0.799   4.740   4.807  0.9318  0.9219 -0.4423
13592TIP3   OH262190   3.435   5.173   3.607  0.1542 -0.0419 -0.3618
13592TIP3    H162191   3.413   5.266   3.603  0.4636  0.0843  0.5095
13592TIP3    H262192   3.403   5.144   3.693  1.6241 -0.2989  0.1325
13593TIP3   OH262193   4.762   3.169   0.370 -0.1160 -0.5428 -0.0909
13593TIP3    H162194   4.827   3.102   0.350  0.6552  0.3571 -0.7268
13593TIP3    H262195   4.782   3.195   0.460  1.2697  0.6003 -0.6760
13594TIP3   OH262196   6.123   4.122  16.490  0.9296  0.1198  0.2162
13594TIP3    H162197   6.196   4.071  16.455 -0.1268 -1.2089 -0.1591
13594TIP3    H262198   6.090   4.171  16.414  0.5295 -0.4234  0.0299
13595TIP3   OH262199   2.735   0.921   0.445  0.3919 -0.4660  0.0237
13595TIP3    H162200   2.701   0.978   0.375  2.7664  0.5503 -0.4317
13595TIP3    H262201   2.764   0.982   0.513  2.6036 -1.0623 -0.2833
13596TIP3   OH262202   3.024   5.079  16.360  0.8588 -0.1164  1.0596
13596TIP3    H162203   3.093   5.115  16.305  0.0819 -3.4427 -2.6268
13596TIP3    H262204   2.955   5.145  16.358  1.0720  0.1480 -1.7637
13597TIP3   OH262205   5.302   4.931  14.992 -0.3243  0.3624  0.0498
13597TIP3    H162206   5.227   4.909  14.936 -0.3817  0.2579  0.1676
13597TIP3    H262207   5.264   4.980  15.065 -0.1550  1.2012 -0.4039
13598TIP3   OH262208   2.501   2.402   3.619 -0.0071 -0.5882 -0.2642
13598TIP3    H162209   2.540   2.418   3.705 -0.1958 -0.0874 -0.2697
13598TIP3    H262210   2.560   2.340   3.577 -0.3599 -1.5290  0.5598
13599TIP3   OH262211   3.345   5.288  13.545 -0.1646  0.1049 -0.1043
13599TIP3    H162212   3.276   5.351  13.567 -1.0800 -1.2629  1.1084
13599TIP3    H262213   3.365   5.245  13.628  1.8600  0.1451 -0.5233
13600TIP3   OH262214   3.477   1.806  11.327  0.5842 -0.0691  0.9624
13600TIP3    H162215   3.443   1.764  11.248 -0.3792  0.6477  0.9883
13600TIP3    H262216   3.415   1.782  11.395  1.0459 -0.1200  1.3712
13601TIP3   OH262217   0.186   3.940   2.666 -0.2260  0.1767  0.2416
13601TIP3    H162218   0.219   4.016   2.714 -1.8999  0.0492  1.7294
13601TIP3    H262219   0.259   3.878   2.664  0.8573  1.4272 -0.1527
13602TIP3   OH262220   2.382   0.930   2.942  0.0207 -0.0073 -0.0327
13602TIP3    H162221   2.339   0.982   2.873 -0.4280 -1.7045 -1.0856
13602TIP3    H262222   2.351   0.841   2.927  3.0617 -1.1393 -0.1427
13603TIP3   OH262223   1.201   4.241   4.575  0.7953 -0.0445  0.1344
13603TIP3    H162224   1.134   4.178   4.600 -0.8249  2.0037  1.3369
13603TIP3    H262225   1.279   4.188   4.558 -0.3193 -2.2999  1.5252
13604TIP3   OH262226   4.067   1.754  13.666  0.0080  0.0951  0.1107
13604TIP3    H162227   4.028   1.667  13.679  2.8335 -1.6269 -1.7934
13604TIP3    H262228   4.004   1.800  13.611 -1.2784 -0.9127  0.6609
13605TIP3   OH262229   6.399   2.996  16.953  0.3313  0.5667 -0.2982
13605TIP3    H162230   6.364   3.080  16.983  0.3295  0.2104  0.7457
13605TIP3    H262231   6.436   2.956  17.032  1.4411  0.1228 -1.0118
13606TIP3   OH262232   2.531   1.146   5.316 -0.2781 -0.3511 -0.1774
13606TIP3    H162233   2.599   1.154   5.383 -0.4130  0.2183 -0.1070
13606TIP3    H262234   2.535   1.054   5.289 -0.3048 -0.6141  0.7002
13607TIP3   OH262235   6.079   2.696   0.531 -0.2551  0.6644  0.2447
13607TIP3    H162236   6.107   2.650   0.610  1.9217  2.7657  0.8423
13607TIP3    H262237   5.984   2.705   0.539 -0.3643 -1.1869  1.4257
13608TIP3   OH262238   4.897   5.355  13.429  0.2304 -0.2930 -0.0183
13608TIP3    H162239   4.937   5.273  13.459  0.7691 -1.0485 -2.5654
13608TIP3    H262240   4.816   5.328  13.386 -0.0296  0.6014 -0.1065
13609TIP3   OH262241   1.245   5.416   5.578 -0.3131  0.2494 -0.7417
13609TIP3    H162242   1.277   5.492   5.627  0.7886 -0.7162  0.0815
13609TIP3    H262243   1.313   5.398   5.513 -0.0324 -0.6775 -0.2161
13610TIP3   OH262244   5.291   2.775   2.961  0.5243  0.1718  0.2757
13610TIP3    H162245   5.299   2.750   2.869  0.1674  1.6524 -0.1875
13610TIP3    H262246   5.371   2.741   3.002  0.9168 -0.0938 -0.6852
13611TIP3   OH262247   3.656   4.034  12.533 -0.3451  0.3190 -0.2469
13611TIP3    H162248   3.615   3.956  12.571 -2.0057  1.6513  0.9227
13611TIP3    H262249   3.595   4.062  12.465  1.3881 -0.6380 -2.2997
13612TIP3   OH262250   1.130   3.769  10.711 -0.3205  0.1032 -0.1873
13612TIP3    H162251   1.060   3.708  10.688 -0.5403 -0.3470  1.4963
13612TIP3    H262252   1.098   3.855  10.684 -1.7195 -0.0437  0.9063
13613TIP3   OH262253   0.503   0.299   5.438 -0.4995 -0.4888 -0.7779
13613TIP3    H162254   0.484   0.360   5.368 -0.4714  0.4173 -0.0130
13613TIP3    H262255   0.433   0.234   5.434 -0.7922 -0.1426 -1.3004
13614TIP3   OH262256   4.276   3.233   1.243  0.0336  0.1611 -0.2396
13614TIP3    H162257   4.203   3.295   1.245 -1.5842 -1.6452 -0.6679
13614TIP3    H262258   4.287   3.212   1.150  0.7255 -0.0142 -0.1237
13615TIP3   OH262259   2.693   1.515  14.358  0.2546  0.3523  0.0123
13615TIP3    H162260   2.610   1.546  14.321 -1.5806 -3.7947  0.1347
13615TIP3    H262261   2.753   1.515  14.284 -0.5531  1.1029 -0.6678
13616TIP3   OH262262   3.577   3.773   1.699 -0.0064  0.3660 -0.2670
13616TIP3    H162263   3.554   3.696   1.647 -0.2095 -0.4688  0.9969
13616TIP3    H262264   3.517   3.841   1.669  0.3617  0.1271 -1.5971
13617TIP3   OH262265   5.972   4.173  11.494 -0.1203 -0.0855  0.3920
13617TIP3    H162266   6.008   4.110  11.557 -0.4708  0.3945  1.0939
13617TIP3    H262267   5.901   4.216  11.542 -0.2996  0.3932 -0.2909
13618TIP3   OH262268   6.722   4.148  16.249 -0.0522 -0.7040  0.1063
13618TIP3    H162269   6.713   4.114  16.338  1.1968 -2.3985 -0.3478
13618TIP3    H262270   6.638   4.189  16.230  0.4709  1.9660  2.9136
13619TIP3   OH262271   1.936   0.948   4.776 -0.2548 -0.1045  0.3806
13619TIP3    H162272   1.863   1.004   4.747 -0.0729  0.8561  1.6853
13619TIP3    H262273   1.964   0.903   4.697 -0.9840  1.0090 -0.5514
13620TIP3   OH262274   1.511   5.306  15.072  0.0642  0.4905 -0.4355
13620TIP3    H162275   1.604   5.285  15.062  0.1549  0.7046 -0.0764
13620TIP3    H262276   1.491   5.362  14.997  0.3362  0.7942 -0.2861
13621TIP3   OH262277   3.105   0.935   2.846  0.2377  0.1745  0.0264
13621TIP3    H162278   3.040   1.004   2.838  0.1345 -0.1027 -1.7753
13621TIP3    H262279   3.189   0.979   2.837  0.2319  0.2659  0.4067
13622TIP3   OH262280   1.571   2.650   3.845  0.3790 -0.2464 -0.9982
13622TIP3    H162281   1.542   2.718   3.905 -1.4775 -1.3490 -0.5426
13622TIP3    H262282   1.666   2.645   3.857  0.3873  1.4146 -0.1844
13623TIP3   OH262283   1.228   1.489  15.367  0.1859 -0.1568 -0.3144
13623TIP3    H162284   1.184   1.442  15.297 -1.5753  0.8906  0.0411
13623TIP3    H262285   1.173   1.565  15.384  0.5978 -0.3162  2.1496
13624TIP3   OH262286   4.967   4.426   2.137  0.4170  0.9961 -0.1677
13624TIP3    H162287   5.036   4.446   2.073  1.2943  1.3930  0.8780
13624TIP3    H262288   4.952   4.509   2.182  1.3690  0.2483  1.6221
13625TIP3   OH262289   3.631   5.470  11.922 -0.1079 -0.3691  0.2417
13625TIP3    H162290   3.538   5.480  11.902 -0.3556  0.3077  1.6298
13625TIP3    H262291   3.673   5.463  11.836 -0.8435  4.5365 -0.8204
13626TIP3   OH262292   6.210   1.343  16.656 -0.6588  0.1477 -0.1746
13626TIP3    H162293   6.264   1.420  16.671  0.7456 -1.0927  1.7066
13626TIP3    H262294   6.272   1.275  16.627 -1.8055 -0.3836 -1.4955
13627TIP3   OH262295   1.376   5.873   2.801  0.1623 -0.0820 -0.0395
13627TIP3    H162296   1.360   5.851   2.893 -0.2032  1.7709  0.3873
13627TIP3    H262297   1.291   5.900   2.767  0.7156  1.5880 -0.2024
13628TIP3   OH262298   4.621   0.879  10.944 -0.5827  0.8527  0.0852
13628TIP3    H162299   4.531   0.873  10.976 -0.0747  0.8384  1.5770
13628TIP3    H262300   4.625   0.814  10.873 -1.8919  1.2816 -0.4124
13629TIP3   OH262301   2.901   3.188   0.707 -0.5193 -0.1301 -0.2188
13629TIP3    H162302   2.903   3.104   0.753 -1.1884  0.1353  0.3098
13629TIP3    H262303   2.944   3.249   0.767 -0.7066  0.0582 -0.2761
13630TIP3   OH262304   4.226   4.903  11.019 -0.5893 -0.3035  0.1152
13630TIP3    H162305   4.215   4.809  11.035 -0.7221 -0.1103  1.3023
13630TIP3    H262306   4.295   4.929  11.080  1.3025 -0.0804 -2.0025
13631TIP3   OH262307   4.918   0.753  11.173 -0.3742 -0.1128  0.2198
13631TIP3    H162308   4.896   0.719  11.086  0.3385 -0.2005  0.0646
13631TIP3    H262309   4.836   0.750  11.222 -1.0757  1.0967 -0.8191
13632TIP3   OH262310   1.657   5.416   4.907 -0.7361 -0.2006 -0.2283
13632TIP3    H162311   1.586   5.432   4.969  0.2387  2.0648  0.4149
13632TIP3    H262312   1.694   5.503   4.890  3.6191 -1.4143  1.6321
13633TIP3   OH262313   2.655   5.493  13.359 -0.6801 -0.1929 -0.1314
13633TIP3    H162314   2.609   5.523  13.280 -2.1614 -0.3574  0.6228
13633TIP3    H262315   2.663   5.398  13.347  0.6457 -0.0073 -0.8374
13634TIP3   OH262316   4.165   5.855  14.556  0.3031 -0.0408 -0.2058
13634TIP3    H162317   4.260   5.865  14.563  0.2584  3.2046 -2.2980
13634TIP3    H262318   4.153   5.778  14.501  1.8134  0.2041 -0.9317
13635TIP3   OH262319   1.119   0.273   4.763  0.3702  0.0496 -0.3922
13635TIP3    H162320   1.142   0.220   4.839  1.2686  0.5972 -0.2692
13635TIP3    H262321   1.067   0.344   4.798  0.7047  0.2496 -0.2954
13636TIP3   OH262322   1.333   6.672  10.022 -0.4272 -0.1307 -0.2208
13636TIP3    H162323   1.354   6.679   9.929 -0.1725  1.3401 -0.0883
13636TIP3    H262324   1.241   6.647  10.025 -0.7641  0.9496 -0.9047
13637TIP3   OH262325   0.493   0.774  10.878  0.1881 -0.2786 -0.1032
13637TIP3    H162326   0.529   0.794  10.964  2.1634  0.7526 -1.0980
13637TIP3    H262327   0.447   0.853  10.852  1.1904  0.1011 -0.7509
13638TIP3   OH262328   0.967   1.946  14.130 -0.0069 -0.1305  0.4670
13638TIP3    H162329   0.908   1.919  14.201  1.3594 -0.1904  1.6358
13638TIP3    H262330   1.042   1.887  14.138  0.9524  1.0109  0.0877
13639TIP3   OH262331   3.527   3.221   5.495  0.1122 -0.2113 -0.4368
13639TIP3    H162332   3.591   3.179   5.552 -0.7367 -1.0249 -0.0465
13639TIP3    H262333   3.570   3.225   5.409  1.5958  1.4725  0.3104
13640TIP3   OH262334   3.764   6.247   2.360 -0.2143  0.5346  0.0201
13640TIP3    H162335   3.687   6.259   2.304 -0.8599 -0.3241  0.6833
13640TIP3    H262336   3.753   6.159   2.397  0.2155  1.0458  1.4285
13641TIP3   OH262337   6.362   1.124  14.761 -0.4254 -0.1814  0.2775
13641TIP3    H162338   6.280   1.161  14.794  0.0492 -0.0370  1.3271
13641TIP3    H262339   6.392   1.066  14.831  0.5860  0.0932  0.0860
13642TIP3   OH262340   6.358   2.804  14.361 -0.1453  0.1414  0.4057
13642TIP3    H162341   6.432   2.806  14.300 -1.4984  3.9270 -1.4128
13642TIP3    H262342   6.380   2.868  14.429 -1.7996  1.6156 -0.3633
13643TIP3   OH262343   6.231   4.323  13.037 -0.0849  0.5742  0.0900
13643TIP3    H162344   6.171   4.369  13.095 -1.3551  1.3408 -1.7301
13643TIP3    H262345   6.199   4.343  12.949  1.8801 -0.3475 -0.9015
13644TIP3   OH262346   2.013   1.874   5.647 -0.0325  0.0584 -0.6801
13644TIP3    H162347   2.059   1.830   5.719  0.7087 -0.8904 -1.6989
13644TIP3    H262348   1.923   1.841   5.653  0.0793 -0.1950 -0.3340
13645TIP3   OH262349   0.486   6.239   0.611 -0.6806 -0.0574  0.5670
13645TIP3    H162350   0.398   6.248   0.576 -1.4234  1.5128  2.6355
13645TIP3    H262351   0.542   6.236   0.533 -2.1946  3.2517 -0.8398
13646TIP3   OH262352   2.019   6.796  16.778  0.1112 -0.1720 -0.2566
13646TIP3    H162353   2.103   6.775  16.820  0.2681 -1.2896 -1.1018
13646TIP3    H262354   1.974   6.851  16.842  0.1089 -2.2365  1.6523
13647TIP3   OH262355   0.018   2.548   0.382  0.2912  0.5931 -0.2482
13647TIP3    H162356   0.072   2.614   0.424  2.5028 -1.3339  0.1663
13647TIP3    H262357   0.042   2.553   0.289 -0.7368  1.3936 -0.4882
13648TIP3   OH262358   0.494   4.439  14.504  0.4498 -0.4815 -0.4855
13648TIP3    H162359   0.412   4.418  14.458 -0.6895  0.6006  0.9430
13648TIP3    H262360   0.534   4.354  14.521  1.2448 -0.9448 -3.8978
13649TIP3   OH262361   3.736   2.353   3.955  0.2818 -0.2621  1.0299
13649TIP3    H162362   3.667   2.287   3.950 -0.1824  0.3037 -1.1339
13649TIP3    H262363   3.810   2.315   3.908  0.6638  0.0136  1.4048
13650TIP3   OH262364   4.932   2.909   2.822  0.3242 -0.2738  0.4883
13650TIP3    H162365   5.024   2.915   2.795  0.0820  1.6741 -0.1402
13650TIP3    H262366   4.892   2.987   2.783 -1.4154 -0.6387  1.4679
13651TIP3   OH262367   1.075   3.971  11.858 -0.1602 -0.0916 -0.1692
13651TIP3    H162368   1.161   3.962  11.900  0.2360  1.0849 -0.6853
13651TIP3    H262369   1.015   3.925  11.916  1.0254 -2.2647 -0.5574
13652TIP3   OH262370   2.990   3.740  16.079 -0.5895 -0.4307  0.1481
13652TIP3    H162371   2.938   3.731  15.999 -0.0960  0.0551 -0.2425
13652TIP3    H262372   2.975   3.659  16.127 -0.2277 -1.1116 -0.8466
13653TIP3   OH262373   4.749   2.850   6.253  0.3079 -0.1395 -0.5166
13653TIP3    H162374   4.819   2.789   6.274 -0.2443 -0.8121 -0.5961
13653TIP3    H262375   4.674   2.819   6.303 -0.8332 -1.3249 -2.8079
13654TIP3   OH262376   0.986   5.768   3.152  0.2118 -0.4125 -0.7213
13654TIP3    H162377   0.980   5.861   3.133 -0.8048 -0.4671 -0.6786
13654TIP3    H262378   1.073   5.743   3.120  0.0348  0.3003 -1.8099
13655TIP3   OH262379   1.910   0.861  15.089 -0.4281  0.2961 -0.2125
13655TIP3    H162380   1.975   0.794  15.066 -0.9739 -0.2568 -0.1836
13655TIP3    H262381   1.945   0.902  15.169  0.6581  1.0991 -1.0710
13656TIP3   OH262382   2.036   2.072  11.976 -0.2677  0.1051  0.0247
13656TIP3    H162383   2.091   2.105  11.905  0.0337 -0.2363  0.0971
13656TIP3    H262384   2.056   2.129  12.050 -0.6957  0.5592 -0.2000
13657TIP3   OH262385   3.346   0.809   0.888 -0.1529  0.2028 -0.1158
13657TIP3    H162386   3.346   0.905   0.887  0.1007  0.2057  0.0088
13657TIP3    H262387   3.321   0.786   0.977  0.8177  0.1652  0.1558
13658TIP3   OH262388   0.524   6.082   5.496 -0.4721 -0.0633 -0.0701
13658TIP3    H162389   0.581   6.038   5.560  2.3217 -0.6410 -2.7154
13658TIP3    H262390   0.468   6.012   5.463  1.3382 -0.9137 -1.5233
13659TIP3   OH262391   4.527   4.956  11.030 -0.4415  0.0019 -0.2112
13659TIP3    H162392   4.480   5.029  10.989  2.6082  2.5620  0.4740
13659TIP3    H262393   4.607   4.947  10.977 -0.2919 -2.2492  0.3145
13660TIP3   OH262394   6.803   2.692  16.118 -0.7433 -0.0795 -0.2183
13660TIP3    H162395   6.820   2.716  16.209 -1.4066  1.9359 -0.5749
13660TIP3    H262396   6.890   2.684  16.078 -0.4338 -1.3496  0.6306
13661TIP3   OH262397   6.607   0.184  15.506 -0.6254 -0.3721 -0.4480
13661TIP3    H162398   6.631   0.091  15.517 -0.5065 -0.4718 -1.4996
13661TIP3    H262399   6.557   0.187  15.425  0.6782  0.7047 -1.2669
13662TIP3   OH262400   0.316   2.809  13.630 -0.3479 -0.2574  0.4864
13662TIP3    H162401   0.275   2.759  13.559  0.6387  0.3466 -0.5279
13662TIP3    H262402   0.401   2.768  13.642 -0.5082 -0.3567  1.3463
13663TIP3   OH262403   6.093   0.591   1.604 -0.4189  0.0580 -0.1094
13663TIP3    H162404   6.004   0.603   1.573 -0.1039 -1.5317 -1.8074
13663TIP3    H262405   6.148   0.632   1.537  0.1708 -0.5175  0.0111
13664TIP3   OH262406   5.009   3.748  12.010  0.0691  0.0337  0.2787
13664TIP3    H162407   4.998   3.809  12.083 -0.6649  0.0372  0.1737
13664TIP3    H262408   4.941   3.773  11.947  0.0492 -0.6042  0.0372
13665TIP3   OH262409   2.021   0.283   1.575  0.2842 -0.3172 -0.1608
13665TIP3    H162410   2.030   0.192   1.547 -0.7374 -0.3286 -0.5085
13665TIP3    H262411   2.026   0.280   1.670  0.4594 -0.7118 -0.1809
13666TIP3   OH262412   5.478   4.588  16.494  0.0482  0.0860  0.2943
13666TIP3    H162413   5.491   4.501  16.455 -0.4921 -0.2442  0.8247
13666TIP3    H262414   5.565   4.626  16.495  0.0179  0.2963 -1.6232
13667TIP3   OH262415   3.630   0.523   5.067 -0.1217 -1.0869  0.5486
13667TIP3    H162416   3.677   0.447   5.032  0.5737 -0.0236 -0.9209
13667TIP3    H262417   3.699   0.586   5.088 -0.6024 -1.2166  2.8131
13668TIP3   OH262418   0.985   4.675   1.169  0.1880  0.3057  0.0309
13668TIP3    H162419   1.028   4.594   1.198 -0.4896 -0.3637 -0.7921
13668TIP3    H262420   1.035   4.702   1.092  0.6049  0.8589  0.4829
13669TIP3   OH262421   2.633   1.406  11.521 -0.1022 -0.0862  0.1142
13669TIP3    H162422   2.635   1.409  11.425  2.6301  1.2889  0.1147
13669TIP3    H262423   2.690   1.333  11.545 -0.4767 -0.1944  0.7140
13670TIP3   OH262424   5.409   5.515  14.610  0.1162 -0.1137  0.2824
13670TIP3    H162425   5.415   5.421  14.593 -0.3324 -0.6293  2.6210
13670TIP3    H262426   5.355   5.549  14.538  1.2373 -1.4138 -1.2352
13671TIP3   OH262427   3.221   4.065  12.328  0.4771  0.3394  0.2928
13671TIP3    H162428   3.184   4.060  12.240  1.0712  1.7019 -0.0513
13671TIP3    H262429   3.313   4.040  12.317  0.0966 -1.5504  0.9029
13672TIP3   OH262430   4.033   3.415  11.498 -0.3146 -0.2216  0.2735
13672TIP3    H162431   4.072   3.447  11.417 -0.2571 -0.1386  0.3339
13672TIP3    H262432   3.953   3.371  11.470  0.9351 -2.3919 -0.1055
13673TIP3   OH262433   6.166   5.857   1.872  0.2021  0.5693  0.2735
13673TIP3    H162434   6.082   5.839   1.914  1.0081  0.1216  1.7606
13673TIP3    H262435   6.215   5.909   1.935  1.3923  0.0259 -0.1549
13674TIP3   OH262436   5.193   3.545   1.847  0.0992 -0.3591 -0.2957
13674TIP3    H162437   5.260   3.608   1.872 -1.1909  0.6520  0.7505
13674TIP3    H262438   5.164   3.574   1.760  0.8103 -0.6436 -0.6348
13675TIP3   OH262439   6.513   1.285   1.606 -0.6285  0.3675 -0.0627
13675TIP3    H162440   6.448   1.262   1.673 -1.7412 -0.2291 -1.3036
13675TIP3    H262441   6.491   1.230   1.531  1.0028  0.5354 -0.7170
13676TIP3   OH262442   6.434   3.517  14.150 -0.7788  0.2243 -0.0601
13676TIP3    H162443   6.457   3.574  14.223 -0.3266 -0.3660  0.2647
13676TIP3    H262444   6.518   3.495  14.110 -1.0228  0.5369 -0.7568
13677TIP3   OH262445   0.678   0.564   3.078  0.2898 -0.0253  0.2786
13677TIP3    H162446   0.755   0.607   3.042 -1.0619  2.2361 -0.1129
13677TIP3    H262447   0.663   0.489   3.021  1.1801  0.5134 -0.6986
13678TIP3   OH262448   1.797   1.835  10.890 -0.0534 -0.3199 -0.3338
13678TIP3    H162449   1.821   1.823  10.798 -0.8657 -0.6767 -0.5100
13678TIP3    H262450   1.879   1.856  10.934  0.5591 -1.4456 -0.9127
13679TIP3   OH262451   6.250   1.845  15.629 -0.0738  0.2104  0.9678
13679TIP3    H162452   6.169   1.830  15.581  0.4747  1.1778 -0.2983
13679TIP3    H262453   6.290   1.758  15.636  0.8246  0.2508 -2.1807
13680TIP3   OH262454   2.820   6.716  13.287  0.7110  0.1314  1.3527
13680TIP3    H162455   2.744   6.721  13.346 -1.5213  0.5162 -1.3492
13680TIP3    H262456   2.803   6.641  13.231  1.3780  1.3046 -0.5094
13681TIP3   OH262457   0.734   2.671  13.414  0.1782  0.7327 -0.9939
13681TIP3    H162458   0.687   2.623  13.483 -3.7916  1.7416 -2.7710
13681TIP3    H262459   0.731   2.613  13.338  0.3236  1.5391 -1.6307
13682TIP3   OH262460   1.072   2.529   3.386  0.3571  0.0746  0.2562
13682TIP3    H162461   1.059   2.599   3.450  1.9906  0.3310  0.3515
13682TIP3    H262462   1.088   2.451   3.439 -0.2622 -0.1336  0.1460
13683TIP3   OH262463   2.259   1.307   4.303 -0.0031 -0.0791 -0.1375
13683TIP3    H162464   2.328   1.270   4.357  0.7424  0.1334 -0.9320
13683TIP3    H262465   2.260   1.401   4.322 -1.8984 -0.3738  1.8839
13684TIP3   OH262466   4.763   6.118   5.017 -0.2020 -0.3917  0.3194
13684TIP3    H162467   4.808   6.045   5.060  0.1432 -0.4020 -0.0556
13684TIP3    H262468   4.738   6.085   4.932 -1.9602 -0.7527  0.9418
13685TIP3   OH262469   6.137   4.152   3.019  0.0898  0.0810  0.4327
13685TIP3    H162470   6.093   4.218   2.964  0.1121  0.7037  1.1489
13685TIP3    H262471   6.173   4.089   2.956 -0.8678  0.1604 -0.2188
13686TIP3   OH262472   2.923   2.298   5.137  0.0271  0.2542 -0.0167
13686TIP3    H162473   2.884   2.229   5.190 -1.7063  0.3875 -1.0449
13686TIP3    H262474   3.017   2.286   5.147 -0.2421 -1.6857  0.5495
13687TIP3   OH262475   2.994   4.313  15.776 -0.1731 -0.0222  0.2475
13687TIP3    H162476   2.958   4.224  15.775  0.5422 -0.3235  0.3916
13687TIP3    H262477   3.021   4.329  15.686 -0.2409  0.0224  0.2353
13688TIP3   OH262478   1.608   3.575   0.675  0.1894 -0.8961  0.6924
13688TIP3    H162479   1.637   3.660   0.640 -0.7111 -1.6753 -2.2221
13688TIP3    H262480   1.684   3.541   0.722  2.0046 -0.2563 -1.5942
13689TIP3   OH262481   3.285   4.177  13.709  1.0290 -0.2753  0.2861
13689TIP3    H162482   3.255   4.193  13.798  0.6029  0.5468 -0.0043
13689TIP3    H262483   3.225   4.111  13.674 -1.4966  2.3924 -0.7984
13690TIP3   OH262484   6.048   1.525  14.129  0.6796 -0.1131  0.1698
13690TIP3    H162485   6.064   1.540  14.036 -0.2725  1.0495  0.1731
13690TIP3    H262486   6.130   1.550  14.172  0.3581  1.6235 -0.1690
13691TIP3   OH262487   3.060   3.904  12.524  0.4392 -0.6868  0.5469
13691TIP3    H162488   3.075   3.822  12.478 -0.2138 -0.8641  0.6478
13691TIP3    H262489   3.060   3.971  12.456 -1.8160 -1.0838  0.0940
13692TIP3   OH262490   1.576   5.055   1.554  0.0434 -0.3672 -0.3675
13692TIP3    H162491   1.624   4.972   1.550  1.2397  0.2326  0.6494
13692TIP3    H262492   1.568   5.073   1.648  1.4753  1.5550 -0.5673
13693TIP3   OH262493   5.592   2.114   2.977  0.2231 -0.6573  0.3810
13693TIP3    H162494   5.629   2.081   2.896  1.1716 -1.6178  1.1865
13693TIP3    H262495   5.658   2.173   3.012  0.5224 -1.4678  1.2333
13694TIP3   OH262496   3.307   5.264  14.407  0.6923 -0.6337  0.0856
13694TIP3    H162497   3.248   5.229  14.473 -0.3702 -0.4032 -0.7084
13694TIP3    H262498   3.328   5.189  14.351  0.1325 -0.4701 -0.3596
13695TIP3   OH262499   6.632   1.993  13.653  0.1023  0.1049  0.0863
13695TIP3    H162500   6.727   1.983  13.646 -0.1293 -1.6266 -1.5805
13695TIP3    H262501   6.597   1.912  13.616 -2.0354  0.5160  1.0623
13696TIP3   OH262502   1.346   4.493  16.481 -0.0091 -0.4827 -0.0819
13696TIP3    H162503   1.313   4.567  16.430 -0.8719 -0.6670  0.1863
13696TIP3    H262504   1.411   4.452  16.424 -1.5269 -1.1737 -1.4095
13697TIP3   OH262505   2.510   5.089   2.610  0.2044 -0.3840 -0.2024
13697TIP3    H162506   2.419   5.116   2.622 -0.2680 -1.8173 -0.3559
13697TIP3    H262507   2.552   5.107   2.694 -0.5891 -1.0029  0.3481
13698TIP3   OH262508   1.014   3.751   5.798  0.0821  0.4791  0.3203
13698TIP3    H162509   1.053   3.800   5.870  0.3522 -0.1568  0.6151
13698TIP3    H262510   0.948   3.695   5.840  1.3353 -1.0788  0.3204
13699TIP3   OH262511   5.848   3.171  14.698 -0.6568 -0.2725  0.1393
13699TIP3    H162512   5.875   3.157  14.789 -0.4210 -0.6860  0.0078
13699TIP3    H262513   5.930   3.168  14.648 -0.7324  0.4159 -0.0341
13700TIP3   OH262514   2.036   3.824  12.348  0.2477 -0.7805 -0.4197
13700TIP3    H162515   1.954   3.775  12.355 -0.1869 -0.0078  0.0374
13700TIP3    H262516   2.056   3.823  12.255  0.2760 -1.8634 -0.4136
13701TIP3   OH262517   5.596   5.187   0.167  0.1553  0.2602  0.1786
13701TIP3    H162518   5.672   5.174   0.110  0.9693  1.6639  0.9072
13701TIP3    H262519   5.624   5.156   0.253 -0.3224  0.1761  0.3058
13702TIP3   OH262520   6.049   2.168   3.730  0.4833 -0.1172  0.1769
13702TIP3    H162521   6.087   2.185   3.816 -0.3339 -0.9960  0.7391
13702TIP3    H262522   5.983   2.237   3.719 -0.7919 -1.1427  1.1525
13703TIP3   OH262523   2.921   5.981   1.188 -0.2802 -0.3506 -0.5676
13703TIP3    H162524   2.885   5.996   1.275 -0.0164  1.4251 -0.7294
13703TIP3    H262525   3.014   6.003   1.196  0.7565 -4.0817 -0.3465
13704TIP3   OH262526   1.257   3.245  10.759  0.0523  0.2132  0.2259
13704TIP3    H162527   1.236   3.170  10.814  1.1439 -0.2987 -0.0231
13704TIP3    H262528   1.319   3.211  10.694  0.4785  1.2962  0.0316
13705TIP3   OH262529   2.079   3.456  13.651  0.5369  0.3586 -0.3388
13705TIP3    H162530   2.008   3.458  13.586  0.1402 -0.9682  0.0240
13705TIP3    H262531   2.042   3.410  13.725  0.9215  2.0366  0.9645
13706TIP3   OH262532   5.992   2.155  10.775  0.1835  0.1590  0.6531
13706TIP3    H162533   6.011   2.065  10.747 -1.4770 -0.0215 -0.0183
13706TIP3    H262534   5.994   2.206  10.694 -0.6901  0.3759  0.7591
13707TIP3   OH262535   6.275   0.719  17.024  0.3519  0.1449 -0.3236
13707TIP3    H162536   6.227   0.674  16.954  0.4819  2.0933 -1.7537
13707TIP3    H262537   6.364   0.728  16.990  0.5885  0.5124  0.3817
13708TIP3   OH262538   3.151   1.934   2.423  0.2742 -0.2265 -0.1953
13708TIP3    H162539   3.082   1.998   2.408 -0.6091 -1.1891 -0.4283
13708TIP3    H262540   3.106   1.849   2.419  1.5569 -0.9103 -0.8613
13709TIP3   OH262541   5.649   0.470  15.953 -0.0215  0.4782 -0.0276
13709TIP3    H162542   5.671   0.562  15.937  1.7647  0.0323 -0.2908
13709TIP3    H262543   5.644   0.463  16.048  1.0786  0.6035  0.0564
13710TIP3   OH262544   4.776   5.824   1.433  0.7771 -0.1007 -0.5800
13710TIP3    H162545   4.864   5.811   1.470  0.8890 -1.0602 -1.1368
13710TIP3    H262546   4.782   5.908   1.387  1.1980  0.1806 -0.0203
13711TIP3   OH262547   2.232   5.037   4.578 -0.1584  0.0606 -0.0876
13711TIP3    H162548   2.325   5.021   4.562  0.0879 -0.9552  2.0887
13711TIP3    H262549   2.230   5.122   4.622 -0.6001  1.5449 -2.7449
13712TIP3   OH262550   5.093   6.015   1.691 -0.2704 -0.1978 -0.1088
13712TIP3    H162551   5.116   6.108   1.701 -0.1898 -0.2104 -0.1699
13712TIP3    H262552   5.035   5.996   1.765 -2.6008  0.6230 -1.6089
13713TIP3   OH262553   6.009   6.321   3.241 -0.3211  0.1241  0.7009
13713TIP3    H162554   6.088   6.269   3.250 -0.0198  0.9227  3.5241
13713TIP3    H262555   5.965   6.314   3.326 -1.9000  1.8578  0.0978
13714TIP3   OH262556   2.137   4.292  13.277  0.0652  0.0321 -0.1214
13714TIP3    H162557   2.163   4.375  13.319  0.2419 -0.0838 -0.0001
13714TIP3    H262558   2.184   4.291  13.194  2.0053 -1.0707  0.9164
13715TIP3   OH262559   2.887   0.741   0.557  0.1909  0.1037  0.5470
13715TIP3    H162560   2.849   0.799   0.491 -1.0537 -0.6557  0.5772
13715TIP3    H262561   2.956   0.694   0.510  0.1587  0.4636  0.1271
13716TIP3   OH262562   6.741   1.870  11.013 -0.2246  0.4472  0.4588
13716TIP3    H162563   6.648   1.847  11.012 -0.3985  0.5426 -3.5927
13716TIP3    H262564   6.743   1.961  10.984  1.1075  0.5839  0.9412
13717TIP3   OH262565   3.671   4.316   2.484 -0.5279 -0.2491  0.5268
13717TIP3    H162566   3.764   4.301   2.500 -0.5378 -0.2473  0.5873
13717TIP3    H262567   3.668   4.392   2.427 -0.5298  0.3362  1.2875
13718TIP3   OH262568   1.913   5.234  12.130 -0.3095 -0.1175 -0.2821
13718TIP3    H162569   1.872   5.245  12.216 -0.7193  0.1022 -0.5061
13718TIP3    H262570   1.950   5.146  12.133  3.0905  1.1548  1.5731
13719TIP3   OH262571   3.775   2.317   5.608  0.2356 -0.6959  0.4226
13719TIP3    H162572   3.853   2.290   5.560  1.6529  3.2845  0.1517
13719TIP3    H262573   3.706   2.322   5.541  1.2164  1.0746 -0.5138
13720TIP3   OH262574   0.566   5.670  11.482  0.3620  0.3182 -0.8058
13720TIP3    H162575   0.560   5.739  11.415 -2.6287  0.4250 -0.5815
13720TIP3    H262576   0.558   5.588  11.433 -1.5323  0.3877 -0.6993
13721TIP3   OH262577   5.594   4.167   3.256  0.1791 -0.3653  0.1354
13721TIP3    H162578   5.615   4.202   3.169 -1.9629  1.2160  0.1653
13721TIP3    H262579   5.654   4.213   3.315 -0.9200  1.4706 -0.1202
13722TIP3   OH262580   6.297   3.194   0.099 -0.3269  0.2298  0.2243
13722TIP3    H162581   6.291   3.234   0.185  2.3965 -0.9199  1.0833
13722TIP3    H262582   6.332   3.263   0.043  2.8553 -0.2747  1.3432
13723TIP3   OH262583   4.045   4.919   2.315 -0.3825  0.6175 -0.3360
13723TIP3    H162584   4.050   4.938   2.408 -1.6153 -1.1638  0.1586
13723TIP3    H262585   3.991   4.990   2.279 -0.9234  0.6754  0.5486
13724TIP3   OH262586   2.162   3.381  14.698  0.1657 -0.7165  0.0695
13724TIP3    H162587   2.233   3.366  14.761  1.0153 -1.1806 -0.9716
13724TIP3    H262588   2.183   3.325  14.623 -1.6389 -1.3289 -0.0251
13725TIP3   OH262589   4.276   1.696   5.815 -0.2167 -0.5489  0.4106
13725TIP3    H162590   4.184   1.721   5.823 -0.8335 -2.6405  0.4308
13725TIP3    H262591   4.319   1.738   5.890 -1.6091 -1.3779  1.7270
13726TIP3   OH262592   3.051   5.832  15.304  0.0931 -0.3077  0.0598
13726TIP3    H162593   3.110   5.759  15.319 -0.2652 -0.8235 -0.9677
13726TIP3    H262594   2.972   5.810  15.353 -0.7295 -1.5471 -1.7214
13727TIP3   OH262595   5.590   5.153   5.502 -0.6688  0.3931  0.4757
13727TIP3    H162596   5.546   5.117   5.425  0.4814  1.6891 -0.8670
13727TIP3    H262597   5.547   5.112   5.577 -0.4563 -2.5394 -0.8738
13728TIP3   OH262598   6.245   2.483  13.508 -0.8058 -0.2588 -0.3768
13728TIP3    H162599   6.337   2.495  13.483 -0.0272 -1.8168  1.4374
13728TIP3    H262600   6.242   2.394  13.543 -3.0252 -0.2117 -0.3325
13729TIP3   OH262601   1.484   0.729   3.492 -0.4509 -0.0356 -0.5204
13729TIP3    H162602   1.498   0.747   3.585  0.1101 -0.4869 -0.5161
13729TIP3    H262603   1.530   0.647   3.476 -3.2195 -1.7338 -0.4711
13730TIP3   OH262604   4.508   1.711  11.316 -0.1784  0.1978 -0.2913
13730TIP3    H162605   4.498   1.672  11.230  1.5749  2.6631 -1.7707
13730TIP3    H262606   4.577   1.660  11.358  1.0190  0.6556 -1.5841
13731TIP3   OH262607   6.509   4.471   4.481 -0.2067  0.1744  0.3646
13731TIP3    H162608   6.569   4.537   4.517  2.2598  0.1155 -3.0907
13731TIP3    H262609   6.422   4.510   4.489  0.6264  1.7941  2.5013
13732TIP3   OH262610   5.170   5.771   4.864  0.4426  0.3784  0.8596
13732TIP3    H162611   5.142   5.823   4.940 -0.0908 -0.4647  1.2560
13732TIP3    H262612   5.265   5.768   4.871  0.3595 -0.2308  1.8679
13733TIP3   OH262613   0.339   2.101   3.242 -0.3256 -0.3682 -0.0555
13733TIP3    H162614   0.298   2.137   3.163 -1.1581  0.6088  0.8010
13733TIP3    H262615   0.321   2.165   3.310  2.3267 -0.0619  0.4732
13734TIP3   OH262616   2.049   4.301   3.525 -0.1802  0.0236  0.0428
13734TIP3    H162617   2.093   4.217   3.536 -0.9054 -0.6283 -1.6559
13734TIP3    H262618   2.076   4.331   3.438  0.5093  1.8540  0.8400
13735TIP3   OH262619   5.102   1.098   3.751 -0.0532  0.5545 -0.4179
13735TIP3    H162620   5.047   1.028   3.784  0.0539  2.3387  4.3889
13735TIP3    H262621   5.189   1.058   3.741 -0.0611 -0.1773  1.9085
13736TIP3   OH262622   4.794   5.919  13.571  0.6218 -0.0805 -0.2256
13736TIP3    H162623   4.737   5.930  13.646  0.1139 -0.4448 -0.5526
13736TIP3    H262624   4.735   5.918  13.495  1.1417  0.4990 -0.6470
13737TIP3   OH262625   5.558   3.752   0.542  0.1831 -0.2710 -0.3432
13737TIP3    H162626   5.468   3.784   0.552  0.3858  0.1509  0.2435
13737TIP3    H262627   5.579   3.716   0.628  0.5173 -0.5251 -0.5318
13738TIP3   OH262628   6.348   2.188  14.157  0.0606 -0.0188  0.5689
13738TIP3    H162629   6.400   2.129  14.102 -0.5354 -2.1145  2.1248
13738TIP3    H262630   6.398   2.193  14.239 -1.1780 -0.4604  1.3720
13739TIP3   OH262631   5.622   4.957  16.524 -0.1826  0.1635  0.3896
13739TIP3    H162632   5.592   5.010  16.450  1.4378  1.2851  0.4756
13739TIP3    H262633   5.568   4.985  16.598 -2.5041 -1.6600 -0.4658
13740TIP3   OH262634   1.834   0.204   0.209  0.2484  0.2488 -0.5408
13740TIP3    H162635   1.843   0.110   0.195 -0.1344  0.4056 -2.0299
13740TIP3    H262636   1.919   0.232   0.242  0.6257 -0.4873 -0.8729
13741TIP3   OH262637   5.571   4.182  11.705  0.4358 -0.1234  0.0052
13741TIP3    H162638   5.629   4.225  11.768 -0.7989  0.4737  0.7738
13741TIP3    H262639   5.513   4.252  11.674 -0.6613 -0.9314  0.1694
13742TIP3   OH262640   2.459   0.921  11.697 -0.3470 -0.4011 -0.2428
13742TIP3    H162641   2.481   1.009  11.666  0.0065 -0.0107  1.0471
13742TIP3    H262642   2.435   0.873  11.618 -0.5606  0.8567 -0.9751
13743TIP3   OH262643   3.713   1.962  15.295  0.3536 -0.2256 -0.1104
13743TIP3    H162644   3.702   2.045  15.248 -1.0959 -0.5640 -0.4055
13743TIP3    H262645   3.684   1.981  15.384  0.3344 -0.3440 -0.0920
13744TIP3   OH262646   3.449   5.692   5.911 -0.5883  0.4755 -0.3168
13744TIP3    H162647   3.361   5.680   5.873 -0.3465  0.9380 -1.0531
13744TIP3    H262648   3.474   5.781   5.886  0.0237  0.4088  0.0378
13745TIP3   OH262649   0.495   3.581   4.087 -0.1846  0.0570  0.0491
13745TIP3    H162650   0.578   3.554   4.048  1.2765  0.9330  2.3141
13745TIP3    H262651   0.467   3.657   4.036 -0.7983 -1.5487 -2.1073
13746TIP3   OH262652   4.372   3.160   3.133  0.9071 -0.0751 -0.8211
13746TIP3    H162653   4.372   3.222   3.205  1.4661  0.7661 -1.5251
13746TIP3    H262654   4.378   3.074   3.175 -1.3765  0.2067  0.2488
13747TIP3   OH262655   6.136   6.746  15.967 -0.1844  0.3660 -0.1293
13747TIP3    H162656   6.115   6.781  16.054  0.3602  0.6587 -0.1145
13747TIP3    H262657   6.052   6.742  15.922 -0.3510  0.9870  0.1247
13748TIP3   OH262658   2.886   4.405   1.440  0.2710  0.1772 -0.1916
13748TIP3    H162659   2.923   4.456   1.513  2.8922 -0.1798 -1.1572
13748TIP3    H262660   2.865   4.471   1.374 -0.8082  0.3768  0.3296
13749TIP3   OH262661   2.909   1.607   6.411 -0.1390  0.5189  0.7144
13749TIP3    H162662   2.844   1.675   6.426 -0.9599  0.0375 -0.5398
13749TIP3    H262663   2.858   1.528   6.395  0.7907 -0.2484  1.4126
13750TIP3   OH262664   5.199   6.336  12.896 -0.5973 -0.3371  0.4271
13750TIP3    H162665   5.217   6.282  12.819  0.8551  1.3117 -0.4422
13750TIP3    H262666   5.277   6.327  12.950 -0.5434  0.5244  0.4996
13751TIP3   OH262667   1.278   6.693  11.905 -0.3307 -0.2512 -0.3982
13751TIP3    H162668   1.236   6.640  11.837  0.6556 -0.8276 -0.5885
13751TIP3    H262669   1.339   6.632  11.948  0.9110  0.7366 -0.6897
13752TIP3   OH262670   0.564   0.262   0.538 -0.3505  0.1789 -0.0640
13752TIP3    H162671   0.518   0.211   0.471  0.5589  0.5560 -1.0046
13752TIP3    H262672   0.652   0.274   0.502 -0.6030  2.6486  0.0046
13753TIP3   OH262673   0.675   0.371  12.990 -0.1620  1.0329 -0.0928
13753TIP3    H162674   0.757   0.403  13.027 -1.2286  3.9026  0.0732
13753TIP3    H262675   0.698   0.341  12.902  1.2778  0.3374  0.4922
13754TIP3   OH262676   4.934   0.284   3.476  0.1609  0.0481  0.2315
13754TIP3    H162677   4.877   0.309   3.549  1.2513 -0.3227  1.2457
13754TIP3    H262678   4.992   0.217   3.513  2.3569  1.5838 -0.2752
13755TIP3   OH262679   1.776   6.664  11.189 -0.6572 -0.2633 -0.4623
13755TIP3    H162680   1.734   6.677  11.104  0.1036 -1.4993 -1.0526
13755TIP3    H262681   1.788   6.569  11.195  1.4686 -0.0050 -0.0411
13756TIP3   OH262682   2.404   3.438   1.881 -0.2334  0.3919  0.2452
13756TIP3    H162683   2.491   3.477   1.881 -1.0431  2.3244 -0.3909
13756TIP3    H262684   2.399   3.389   1.799  0.2626  0.2126  0.3196
13757TIP3   OH262685   5.148   3.495  16.475 -0.2209  0.3446  0.3489
13757TIP3    H162686   5.056   3.516  16.495 -0.3431  1.3348 -1.0739
13757TIP3    H262687   5.143   3.442  16.395  0.4987  2.6795 -1.3715
13758TIP3   OH262688   6.641   5.192   3.005 -0.2532 -0.0428  0.2309
13758TIP3    H162689   6.578   5.121   2.988 -2.3837  0.9024  3.2986
13758TIP3    H262690   6.713   5.149   3.051 -0.3029 -0.6111 -0.2102
13759TIP3   OH262691   1.030   0.842  15.955 -0.0686 -0.6272 -0.1069
13759TIP3    H162692   0.996   0.902  16.021  0.5371 -0.0397 -0.3142
13759TIP3    H262693   1.111   0.808  15.992 -0.1919 -1.0013 -0.1696
13760TIP3   OH262694   3.173   6.018   5.339  0.0333 -0.0912  0.0709
13760TIP3    H162695   3.146   5.930   5.365 -0.6034  0.3635  1.0445
13760TIP3    H262696   3.157   6.071   5.417 -1.2854  1.2199 -1.0212
13761TIP3   OH262697   4.872   2.126   3.204 -0.6883 -0.5166  0.1039
13761TIP3    H162698   4.788   2.158   3.171 -0.4711 -2.0991 -2.2203
13761TIP3    H262699   4.929   2.126   3.128  0.7889 -1.5543  1.1539
13762TIP3   OH262700   5.766   0.479   6.426 -0.3232  0.3520 -0.0456
13762TIP3    H162701   5.712   0.482   6.347 -0.0194  0.9635 -0.2392
13762TIP3    H262702   5.747   0.394   6.465 -2.0954  0.8914  0.3674
13763TIP3   OH262703   5.449   2.513  12.901 -0.3330  0.1375  0.2218
13763TIP3    H162704   5.492   2.598  12.893  0.3092 -0.1617  0.4178
13763TIP3    H262705   5.484   2.461  12.829 -1.6341  0.3968 -0.6435
13764TIP3   OH262706   2.473   2.577  14.864  0.2678 -0.1087  0.1656
13764TIP3    H162707   2.436   2.656  14.904  0.2297 -0.1427  0.1983
13764TIP3    H262708   2.425   2.567  14.782 -1.3770 -1.3848  1.2093
13765TIP3   OH262709   1.706   4.634  14.314  0.3924 -0.2209  0.0562
13765TIP3    H162710   1.710   4.725  14.284 -2.3211  0.6469  1.9449
13765TIP3    H262711   1.790   4.596  14.286  1.7915  2.9321 -0.5010
13766TIP3   OH262712   1.664   1.622  10.707  0.0062  0.6200  0.1135
13766TIP3    H162713   1.635   1.657  10.622  0.6213 -1.1506 -0.8850
13766TIP3    H262714   1.759   1.616  10.699  0.0355  0.0863  0.7837
13767TIP3   OH262715   1.498   3.203   0.716  0.4651  0.4508 -0.2171
13767TIP3    H162716   1.572   3.224   0.773  1.0979 -1.0973 -0.4030
13767TIP3    H262717   1.537   3.151   0.645 -0.7248  0.0033 -0.5664
13768TIP3   OH262718   1.387   3.933   0.911  0.2318  0.1854 -0.0080
13768TIP3    H162719   1.419   3.873   0.978 -2.3183 -0.7383  0.4848
13768TIP3    H262720   1.364   3.876   0.837  3.5237  1.2098 -2.0745
13769TIP3   OH262721   0.243   2.004  16.660 -0.5805 -0.3282 -0.3784
13769TIP3    H162722   0.327   2.004  16.615 -0.1213  0.6798  0.4428
13769TIP3    H262723   0.179   2.022  16.590  0.0423  0.4100 -0.7757
13770TIP3   OH262724   1.816   3.685   1.228 -0.3209  0.0120 -0.3355
13770TIP3    H162725   1.778   3.754   1.282 -0.3944  0.2085 -0.6346
13770TIP3    H262726   1.884   3.730   1.177  0.6000 -0.4222  0.5049
13771TIP3   OH262727   2.217   5.535   2.193 -0.3017  0.5016  0.0666
13771TIP3    H162728   2.194   5.481   2.268 -1.5303  0.8625 -0.0299
13771TIP3    H262729   2.231   5.623   2.229  1.0588  0.2792  0.1328
13772TIP3   OH262730   2.062   4.495  15.784 -0.0460 -0.1837 -0.1299
13772TIP3    H162731   2.043   4.556  15.855 -0.1285 -1.0066  0.5694
13772TIP3    H262732   2.154   4.510  15.763 -0.0017  0.0065  0.2007
13773TIP3   OH262733   0.803   0.024   1.135 -1.1725 -0.4837  0.8114
13773TIP3    H162734   0.798  -0.024   1.052  1.2690 -3.4369  2.1579
13773TIP3    H262735   0.892   0.059   1.137 -1.4029  0.0855  1.9357
13774TIP3   OH262736   3.369   6.056   3.495  0.4843  0.2265 -0.1540
13774TIP3    H162737   3.356   6.077   3.403 -0.2514 -0.2348 -0.1629
13774TIP3    H262738   3.297   5.997   3.517  0.6421  0.3374  0.7194
13775TIP3   OH262739   5.803   5.774  12.350 -0.2980  0.2679  0.0343
13775TIP3    H162740   5.738   5.729  12.296  0.4213 -1.1743  0.3194
13775TIP3    H262741   5.752   5.816  12.420 -1.1323  1.2844 -1.1523
13776TIP3   OH262742   3.587   1.526   3.046  0.2157  0.3371 -0.3840
13776TIP3    H162743   3.545   1.553   2.965  0.6288  1.9601 -0.1112
13776TIP3    H262744   3.677   1.506   3.020  0.4516  1.2278 -0.2893
13777TIP3   OH262745   0.965   1.056   2.481 -0.5736  1.0198 -0.4842
13777TIP3    H162746   1.042   1.029   2.530 -2.3854 -1.5708  1.1929
13777TIP3    H262747   0.947   0.982   2.422 -2.1583  1.2353 -0.3217
13778TIP3   OH262748   3.839   6.332  14.686  0.0235 -0.1997 -0.4439
13778TIP3    H162749   3.818   6.276  14.611 -0.9448 -0.6386  0.1358
13778TIP3    H262750   3.924   6.300  14.716  0.0246 -0.5814 -0.8296
13779TIP3   OH262751   5.518   4.371  13.038 -0.1342 -0.1478 -0.7109
13779TIP3    H162752   5.559   4.291  13.071 -1.3627 -1.5202 -2.3142
13779TIP3    H262753   5.569   4.395  12.961  1.1320  1.5390  0.5681
13780TIP3   OH262754   1.591   0.149   2.224 -0.0273  0.0814  0.0957
13780TIP3    H162755   1.548   0.146   2.139 -1.8728  2.9028  0.7742
13780TIP3    H262756   1.520   0.138   2.288  0.4352  2.6537  1.2271
13781TIP3   OH262757   0.459   5.067  16.603 -0.3236 -0.5851 -0.3286
13781TIP3    H162758   0.514   5.071  16.526  0.4230 -0.6307  0.1935
13781TIP3    H262759   0.370   5.080  16.570 -0.0304 -0.7746 -1.2067
13782TIP3   OH262760   1.257   1.081   1.257  0.4493 -0.1129  0.4400
13782TIP3    H162761   1.329   1.082   1.194 -0.2823  0.0615 -0.4215
13782TIP3    H262762   1.218   0.994   1.248 -0.1333  0.1754  0.0825
13783TIP3   OH262763   6.501   5.209   3.289  0.4491  0.3307  0.4454
13783TIP3    H162764   6.426   5.240   3.340 -2.3058 -0.2512 -2.8757
13783TIP3    H262765   6.535   5.288   3.246 -0.7903  0.1252 -0.9931
13784TIP3   OH262766   5.667   3.857  16.922  0.1594  0.9799 -0.1564
13784TIP3    H162767   5.714   3.924  16.971  0.0716  0.6650  0.3638
13784TIP3    H262768   5.626   3.904  16.850 -0.7445  1.6479  0.7752
13785TIP3   OH262769   0.265   0.864  11.510 -0.8903  0.1021  0.3112
13785TIP3    H162770   0.292   0.787  11.461 -1.9165  0.2794 -0.5883
13785TIP3    H262771   0.172   0.849  11.528 -0.6451  0.2487  1.8478
13786TIP3   OH262772   1.658   2.804  13.329  0.0265 -0.3183  0.0002
13786TIP3    H162773   1.682   2.876  13.270 -1.7817  0.3426  0.0324
13786TIP3    H262774   1.729   2.801  13.393  1.1787  0.0525 -1.1910
13787TIP3   OH262775   5.439   1.964   4.658  0.3682  0.3173  0.2978
13787TIP3    H162776   5.406   1.948   4.570  0.7342 -0.4266  0.2899
13787TIP3    H262777   5.474   2.053   4.655 -0.3947  0.6177 -0.0602
13788TIP3   OH262778   5.910   1.496   3.068  0.5617 -0.3507  0.0048
13788TIP3    H162779   5.923   1.574   3.014 -1.7808  1.6436  2.0686
13788TIP3    H262780   5.844   1.444   3.020  1.9797 -1.0335 -1.2755
13789TIP3   OH262781   2.939   5.612   1.084  0.1284  0.1868 -0.3579
13789TIP3    H162782   3.005   5.670   1.046 -0.4226  1.5999  0.7047
13789TIP3    H262783   2.953   5.620   1.178  0.8799 -2.5102 -0.1729
13790TIP3   OH262784   4.363   0.871  11.025  0.4902 -0.3874 -0.1150
13790TIP3    H162785   4.335   0.790  10.982  1.4226  0.2370 -1.9963
13790TIP3    H262786   4.327   0.865  11.114 -1.2350 -1.8870 -0.8642
13791TIP3   OH262787   5.820   5.519  12.493 -0.0259 -0.5293 -0.1913
13791TIP3    H162788   5.911   5.501  12.521 -0.7351 -2.6941  0.9837
13791TIP3    H262789   5.821   5.611  12.468  2.4307 -0.3951  0.0919
13792TIP3   OH262790   6.525   3.110   2.811  0.0255 -0.2070  0.3496
13792TIP3    H162791   6.564   3.026   2.787  0.7299  0.3741 -0.6116
13792TIP3    H262792   6.582   3.144   2.879 -0.6467 -0.7965  1.2322
13793TIP3   OH262793   2.979   3.496   4.993 -0.4020  1.0612 -0.4578
13793TIP3    H162794   2.947   3.555   4.924 -0.0220 -0.0876 -1.6605
13793TIP3    H262795   2.904   3.441   5.013  0.0078  0.1635 -1.3208
13794TIP3   OH262796   2.638   1.009   0.172  0.2631 -0.8826 -0.7692
13794TIP3    H162797   2.561   1.045   0.127  0.3991 -0.1098 -0.3925
13794TIP3    H262798   2.708   1.015   0.107 -0.0604 -1.9188 -1.2373
13795TIP3   OH262799   5.312   3.123  16.072  0.1280  0.3952 -0.0961
13795TIP3    H162800   5.318   3.215  16.048 -1.2994  0.0972 -1.8532
13795TIP3    H262801   5.224   3.113  16.108  0.3207 -0.2534  0.2099
13796TIP3   OH262802   3.049   2.175  13.275  0.2103 -0.1894  0.0820
13796TIP3    H162803   3.022   2.149  13.186  0.0117 -3.3674  0.9474
13796TIP3    H262804   3.137   2.139  13.284  0.4133  0.5152  1.0237
13797TIP3   OH262805   3.035   4.354  14.984 -0.7010 -0.3833  0.2884
13797TIP3    H162806   3.057   4.270  14.943 -0.8227  0.2067 -1.0234
13797TIP3    H262807   2.943   4.368  14.961 -0.2235  0.9189 -1.0217
13798TIP3   OH262808   0.034   1.138   2.966 -0.0351  0.0422 -1.3641
13798TIP3    H162809   0.043   1.185   2.883  0.1345  1.7668 -0.3984
13798TIP3    H262810   0.004   1.203   3.028  1.4061 -0.8248  0.3182
13799TIP3   OH262811   6.149   5.494  13.827  0.3602 -0.4208  0.1345
13799TIP3    H162812   6.140   5.536  13.913  0.4171 -1.2062  0.5347
13799TIP3    H262813   6.082   5.536  13.773  0.1908 -0.0525  0.6186
13800TIP3   OH262814   0.279   3.692  14.451  0.1804 -0.6042  0.1767
13800TIP3    H162815   0.338   3.730  14.386  1.8340 -1.9215  0.8263
13800TIP3    H262816   0.214   3.645  14.400 -0.2204  0.6980 -0.5578
13801TIP3   OH262817   4.600   2.930   0.515  0.0266  0.4485 -0.2371
13801TIP3    H162818   4.576   2.999   0.453  1.6172  0.8490 -0.4377
13801TIP3    H262819   4.600   2.974   0.600 -1.1975  0.1248 -0.0426
13802TIP3   OH262820   2.091   0.700  11.514 -0.2607 -0.7186  0.0654
13802TIP3    H162821   2.057   0.665  11.597  0.5185 -1.4419  0.0934
13802TIP3    H262822   2.110   0.623  11.462  0.5042 -0.3036 -0.2818
13803TIP3   OH262823   0.511   0.425  13.896  0.1928 -0.0450  0.5896
13803TIP3    H162824   0.420   0.453  13.907 -0.7854 -2.2271 -1.1992
13803TIP3    H262825   0.552   0.497  13.849 -1.3160 -0.0627 -0.8535
13804TIP3   OH262826   6.820   4.634   4.029 -0.6792  0.3137  0.1172
13804TIP3    H162827   6.805   4.694   3.956 -0.1325  1.2073  0.7201
13804TIP3    H262828   6.748   4.652   4.090 -1.1689 -0.4733 -0.2222
13805TIP3   OH262829   4.444   5.196   3.408 -0.2799  0.2304  0.5391
13805TIP3    H162830   4.386   5.160   3.340 -0.3891  0.2559  0.6183
13805TIP3    H262831   4.388   5.204   3.485  0.2587 -1.4596  1.1539
13806TIP3   OH262832   2.706   6.453   5.453  0.4524 -0.1127 -0.2165
13806TIP3    H162833   2.749   6.532   5.419  2.1407  0.1280  2.2577
13806TIP3    H262834   2.764   6.381   5.427 -0.7345 -0.5284 -1.8757
13807TIP3   OH262835   0.562   5.746   2.087 -0.4496 -0.1437 -0.3343
13807TIP3    H162836   0.504   5.689   2.138  0.2428 -0.5772 -0.0177
13807TIP3    H262837   0.650   5.709   2.101  0.1087  1.3600  0.3925
13808TIP3   OH262838   1.390   1.079  11.523 -0.2678 -0.3221 -0.8118
13808TIP3    H162839   1.297   1.082  11.544 -0.5681 -1.2569 -1.8831
13808TIP3    H262840   1.392   1.057  11.430  1.0171 -1.8527 -0.4646
13809TIP3   OH262841   2.364   2.110  12.805  0.1247 -0.4848 -0.3718
13809TIP3    H162842   2.346   2.175  12.874 -3.9077 -0.8737 -0.8128
13809TIP3    H262843   2.383   2.030  12.853  0.6807 -0.0154  0.2162
13810TIP3   OH262844   1.251   2.301   3.298  0.5033 -0.5501 -0.9449
13810TIP3    H162845   1.169   2.293   3.250  0.8082 -1.9381 -1.2674
13810TIP3    H262846   1.228   2.280   3.388  0.4033 -0.3893 -0.9320
13811TIP3   OH262847   4.477   5.301  14.851 -0.1876  0.2228  0.2449
13811TIP3    H162848   4.520   5.280  14.933 -1.2921 -0.7916  0.5888
13811TIP3    H262849   4.384   5.306  14.873 -0.4283  0.7006 -0.7982
13812TIP3   OH262850   1.598   3.638   3.594 -0.2353  0.7199  0.1201
13812TIP3    H162851   1.513   3.616   3.632  1.1374 -1.6312  2.1923
13812TIP3    H262852   1.581   3.650   3.501 -2.5325 -1.7547  0.0999
13813TIP3   OH262853   2.013   5.120   3.872  0.0353  0.0319 -0.2465
13813TIP3    H162854   2.044   5.086   3.787  0.2140  0.6798 -0.4503
13813TIP3    H262855   2.078   5.187   3.895  0.6687 -0.9791  1.0038
13814TIP3   OH262856   6.161   3.552  14.030  0.3794  0.1716  0.5348
13814TIP3    H162857   6.147   3.632  13.980  0.6257  0.0782  0.3153
13814TIP3    H262858   6.235   3.572  14.088  2.5505 -0.8810 -1.7159
13815TIP3   OH262859   5.154   4.729   5.130  0.0803  0.5367  0.0948
13815TIP3    H162860   5.123   4.683   5.052 -1.5884  0.8164  0.5525
13815TIP3    H262861   5.130   4.820   5.116 -0.2066  0.5993  0.9197
13816TIP3   OH262862   6.203   0.445  14.215  0.2249  0.8332  0.5790
13816TIP3    H162863   6.249   0.472  14.136  0.6312  0.6287  0.7433
13816TIP3    H262864   6.166   0.359  14.193  1.5014  0.1296  1.0492
13817TIP3   OH262865   0.573   0.459   2.574  0.0717 -1.1748 -0.3001
13817TIP3    H162866   0.561   0.409   2.494 -0.0354 -0.0632 -1.0035
13817TIP3    H262867   0.662   0.494   2.567 -0.1796 -0.5146 -0.2719
13818TIP3   OH262868   0.039   1.744  10.336  0.1618 -0.1245 -0.6372
13818TIP3    H162869   0.052   1.650  10.331 -0.1205 -0.1145 -1.9119
13818TIP3    H262870   0.032   1.772  10.244 -1.0717  0.9460 -0.2367
13819TIP3   OH262871   0.183   2.015  10.106  0.0599  0.2311 -0.1121
13819TIP3    H162872   0.175   2.043  10.014 -0.5736 -0.4137 -0.2664
13819TIP3    H262873   0.151   1.925  10.106 -0.8617  0.5280  0.9010
13820TIP3   OH262874   4.883   1.821   2.671  0.6339  0.3983 -0.1467
13820TIP3    H162875   4.824   1.764   2.721  1.8661 -0.2353  0.6342
13820TIP3    H262876   4.864   1.909   2.705  0.9334  0.0627  0.9260
13821TIP3   OH262877   5.163   4.676  15.711  0.3866  0.2417 -0.5110
13821TIP3    H162878   5.241   4.700  15.661 -1.7611  2.5469 -3.1574
13821TIP3    H262879   5.106   4.633  15.647 -1.2836  0.4894  0.7430
13822TIP3   OH262880   5.510   3.300  17.011  0.4649 -0.1658  0.0241
13822TIP3    H162881   5.604   3.287  17.021  0.7539  1.7857  0.1134
13822TIP3    H262882   5.471   3.244  17.079  1.6004 -0.2351  0.6450
13823TIP3   OH262883   3.474   0.114   0.169  0.2322 -0.2520  0.5325
13823TIP3    H162884   3.454   0.201   0.203 -1.4158 -0.5295  0.3591
13823TIP3    H262885   3.451   0.119   0.076  1.2303 -0.5538  0.2544
13824TIP3   OH262886   6.479   5.127  11.814  0.0247 -0.1171  0.0554
13824TIP3    H162887   6.533   5.184  11.868 -2.4008  1.5987  0.8300
13824TIP3    H262888   6.464   5.049  11.869  1.6110 -0.6215 -0.1722
13825TIP3   OH262889   6.816   0.672   3.132  0.1149 -0.2663 -0.0137
13825TIP3    H162890   6.803   0.704   3.221 -0.1377 -0.0917 -0.1113
13825TIP3    H262891   6.786   0.743   3.076  3.3200  0.9715 -0.3251
13826TIP3   OH262892   0.725   0.464  10.859  0.6477 -0.2055 -0.2417
13826TIP3    H162893   0.699   0.390  10.804 -2.0512  0.1357  0.4127
13826TIP3    H262894   0.669   0.536  10.829 -0.1892  0.2604  2.1913
13827TIP3   OH262895   5.474   5.290  13.276 -0.1340 -0.2850  0.3394
13827TIP3    H162896   5.526   5.219  13.239  1.4675 -0.4075  2.6276
13827TIP3    H262897   5.511   5.370  13.237 -0.3824 -0.5381 -0.4439
13828TIP3   OH262898   4.058   2.854  10.977 -0.4215 -0.4151 -0.1918
13828TIP3    H162899   4.035   2.801  10.900  0.4677  1.3028 -1.7227
13828TIP3    H262900   4.127   2.804  11.021  0.8011 -0.3494 -1.9204
13829TIP3   OH262901   0.207   3.905   5.943  0.0218  0.0306  0.1373
13829TIP3    H162902   0.289   3.953   5.956  1.3914 -2.0390 -0.4431
13829TIP3    H262903   0.176   3.886   6.031  0.4820  0.2968  0.3626
13830TIP3   OH262904   0.322   4.987  15.439  1.3244 -0.2399 -0.3883
13830TIP3    H162905   0.336   4.908  15.492  0.8121 -0.4412 -0.5387
13830TIP3    H262906   0.326   4.956  15.349  1.0950 -0.1040 -0.4468
13831TIP3   OH262907   3.716   0.078  14.271 -0.2145 -0.2404 -0.1664
13831TIP3    H162908   3.800   0.111  14.240 -0.8919  0.1760 -1.6709
13831TIP3    H262909   3.729  -0.017  14.278  0.3870 -0.1770 -0.3612
13832TIP3   OH262910   0.511   1.706   3.013 -0.6176 -0.7126  0.1402
13832TIP3    H162911   0.499   1.758   3.092  3.5413 -0.9596  1.1983
13832TIP3    H262912   0.475   1.620   3.035 -0.9017 -0.3333  1.2178
13833TIP3   OH262913   0.234   2.300  15.965 -0.6317 -0.4368 -0.0279
13833TIP3    H162914   0.246   2.206  15.981 -1.2942 -0.5153  0.0222
13833TIP3    H262915   0.248   2.310  15.871  0.0022 -0.4869  0.0504
13834TIP3   OH262916   0.363   4.669  10.350 -0.2452  0.3104 -0.7391
13834TIP3    H162917   0.366   4.734  10.280  0.0996  0.9984 -0.0944
13834TIP3    H262918   0.450   4.629  10.349 -0.8200 -0.9830 -1.8983
13835TIP3   OH262919   5.841   6.579  11.891 -0.1754 -0.5650  0.1836
13835TIP3    H162920   5.832   6.667  11.853 -1.3745 -0.7626 -0.0519
13835TIP3    H262921   5.771   6.575  11.957  1.3238 -0.5388  1.8543
13836TIP3   OH262922   0.802   5.238   1.596 -0.3736  0.9239 -0.1345
13836TIP3    H162923   0.843   5.293   1.531 -2.0208  3.0700  0.5259
13836TIP3    H262924   0.868   5.227   1.665  0.3703  1.0562 -0.8222
13837TIP3   OH262925   6.194   2.072   2.932  0.2244 -0.1233 -0.2248
13837TIP3    H162926   6.181   2.149   2.875  1.7867 -1.1099 -2.0429
13837TIP3    H262927   6.118   2.017   2.914 -0.0211  0.2167 -0.2523
13838TIP3   OH262928   4.936   4.041  11.967  0.4800  0.0322  0.0848
13838TIP3    H162929   4.886   3.991  11.902 -0.3630 -0.9617  1.4291
13838TIP3    H262930   4.880   4.116  11.987 -1.5938 -2.0322  2.9740
13839TIP3   OH262931   4.057   3.988   3.457 -0.0123 -0.1852 -0.0485
13839TIP3    H162932   4.068   4.083   3.455  3.1412 -0.4415 -1.2772
13839TIP3    H262933   4.144   3.954   3.437 -0.6064 -3.3846  2.0698
13840TIP3   OH262934   1.669   2.563   2.878 -0.3021  1.0049 -0.2506
13840TIP3    H162935   1.761   2.576   2.859  0.2325  0.2599  1.5768
13840TIP3    H262936   1.633   2.522   2.800  1.2244  0.0693 -0.4958
13841TIP3   OH262937   3.571   5.737  15.484  0.1861  0.7585  0.2364
13841TIP3    H162938   3.559   5.831  15.499  0.8602  1.0862 -1.0874
13841TIP3    H262939   3.500   5.714  15.423  1.8182  1.1397 -1.9345
13842TIP3   OH262940   6.310   1.391   2.081 -0.0411  0.0284 -0.1663
13842TIP3    H162941   6.372   1.320   2.098  0.5999  0.8447  1.1264
13842TIP3    H262942   6.331   1.420   1.992  1.0427 -0.1178  0.0235
13843TIP3   OH262943   3.402   3.531  11.299 -0.1579 -0.8525 -0.6955
13843TIP3    H162944   3.385   3.438  11.314  0.5375 -0.8656  0.0393
13843TIP3    H262945   3.384   3.544  11.205 -1.6912 -1.4025 -0.5086
13844TIP3   OH262946   2.259   2.779  11.757  0.1857 -0.0701  0.1251
13844TIP3    H162947   2.195   2.778  11.828  1.1809 -3.5218  1.1597
13844TIP3    H262948   2.337   2.818  11.797  0.3085 -0.6845  0.4956
13845TIP3   OH262949   0.676   5.846   5.323  0.2792 -0.6573  0.3561
13845TIP3    H162950   0.725   5.927   5.315 -1.8585  0.9234  1.9652
13845TIP3    H262951   0.654   5.840   5.416 -2.8579 -0.9548 -0.2647
13846TIP3   OH262952   4.937   0.670  14.699  0.1489 -0.2040  0.3959
13846TIP3    H162953   4.858   0.695  14.651  0.6445  0.9635  0.1603
13846TIP3    H262954   4.943   0.733  14.771  1.2456  0.1662 -0.0045
13847TIP3   OH262955   3.998   4.099  16.334  0.6326  0.0312  0.2990
13847TIP3    H162956   4.074   4.075  16.388  0.8041  0.5299  0.2872
13847TIP3    H262957   3.999   4.195  16.333 -0.0261  0.0429  0.3347
13848TIP3   OH262958   6.395   5.841   3.117 -0.0502  0.3105  0.0495
13848TIP3    H162959   6.384   5.899   3.041  3.1811  1.0401  0.0296
13848TIP3    H262960   6.386   5.753   3.080  0.6303  0.6778 -1.0534
13849TIP3   OH262961   2.882   3.774  13.872  0.5846 -0.3062 -0.0650
13849TIP3    H162962   2.931   3.711  13.819  0.1014 -1.0040  0.3048
13849TIP3    H262963   2.940   3.793  13.946 -0.1004 -1.9477  0.9356
13850TIP3   OH262964   1.753   1.602  11.077  0.5539 -0.4986 -0.3249
13850TIP3    H162965   1.808   1.673  11.109  0.5376 -0.3252 -0.6846
13850TIP3    H262966   1.748   1.541  11.151  0.0739  0.1608  0.2012
13851TIP3   OH262967   3.499   1.248   5.155  0.3235 -0.0592  0.1402
13851TIP3    H162968   3.442   1.233   5.231 -0.9050  2.8213 -0.1128
13851TIP3    H262969   3.445   1.225   5.080  0.0172  1.1396 -0.0224
13852TIP3   OH262970   0.812   5.760  16.888 -0.3994  0.1971 -0.3641
13852TIP3    H162971   0.861   5.774  16.806  1.3478 -1.0952  0.3919
13852TIP3    H262972   0.838   5.833  16.944  0.4480 -0.3276 -0.0675
13853TIP3   OH262973   0.938   3.434   1.152 -0.2804 -0.2060  0.1246
13853TIP3    H162974   0.879   3.404   1.221  1.0187 -0.6424  1.0957
13853TIP3    H262975   0.897   3.513   1.118  0.2934  1.5617  3.2104
13854TIP3   OH262976   1.289   2.517  12.122  0.3007  0.1957  0.0204
13854TIP3    H162977   1.208   2.482  12.159 -0.4476 -0.1375 -1.8297
13854TIP3    H262978   1.342   2.541  12.198 -1.3699  0.0652  1.2775
13855TIP3   OH262979   4.356   3.343   0.461 -0.0633  0.1601 -0.5448
13855TIP3    H162980   4.335   3.263   0.510  2.9960  0.0830  0.8728
13855TIP3    H262981   4.319   3.414   0.515  2.0019 -0.0281  1.2379
13856TIP3   OH262982   0.995   0.424   2.899 -0.3643 -0.0311  0.1178
13856TIP3    H162983   1.071   0.434   2.842 -1.4165 -1.0529 -1.5338
13856TIP3    H262984   0.953   0.510   2.898  0.9165  0.6647  1.3615
13857TIP3   OH262985   6.633   3.883   1.694  0.3370 -0.2223  0.0740
13857TIP3    H162986   6.590   3.946   1.636 -2.9469 -1.1760  1.2755
13857TIP3    H262987   6.647   3.931   1.775  1.8210  0.1103 -0.3344
13858TIP3   OH262988   1.969   6.522  14.322 -0.1186  0.0297  0.8667
13858TIP3    H162989   1.936   6.473  14.247  2.0359  1.7636 -1.3641
13858TIP3    H262990   1.918   6.603  14.322 -0.6156 -0.2718  1.7688
13859TIP3   OH262991   1.367   0.076   0.530 -0.1976  0.3327  0.2482
13859TIP3    H162992   1.384   0.029   0.612  0.3180  2.1766  1.2663
13859TIP3    H262993   1.273   0.095   0.532 -0.4619 -0.8478 -0.3031
13860TIP3   OH262994   6.117   6.395  12.808  0.4072 -0.6578 -0.7397
13860TIP3    H162995   6.085   6.476  12.847 -1.6387 -2.0750  0.7254
13860TIP3    H262996   6.163   6.350  12.879  1.1506 -0.9878 -1.4101
13861TIP3   OH262997   4.044   2.204  15.195  0.6327 -0.1124  0.1023
13861TIP3    H162998   4.048   2.287  15.146  2.8554 -0.4008 -0.3008
13861TIP3    H262999   4.131   2.194  15.232 -0.3199 -1.0964  2.2133
13862TIP3   OH263000   4.135   5.632  11.937 -0.1987 -0.2229 -0.0976
13862TIP3    H163001   4.162   5.556  11.989 -0.1978 -0.6289 -0.6817
13862TIP3    H263002   4.199   5.700  11.959  1.1430 -1.0571 -1.1856
13863TIP3   OH263003   2.548   3.797  16.541  0.1727 -0.1305  0.0631
13863TIP3    H163004   2.465   3.838  16.518  0.1234 -0.2047  0.1093
13863TIP3    H263005   2.612   3.868  16.538 -0.3455  0.5749  2.8409
13864TIP3   OH263006   5.961   4.360   5.377  0.5587 -0.5238 -0.1119
13864TIP3    H163007   6.029   4.324   5.321  0.2000  0.8721 -1.5168
13864TIP3    H263008   6.000   4.438   5.416 -0.4174  0.7836 -1.5930
13865TIP3   OH263009   0.851   6.033   0.995  0.1086 -0.7222  0.2985
13865TIP3    H163010   0.911   5.959   0.981  0.8008 -0.3848  1.3540
13865TIP3    H263011   0.900   6.094   1.049 -0.1022  0.9932 -1.3720
13866TIP3   OH263012   2.817   0.153   1.180  0.0446  0.0880 -0.3139
13866TIP3    H163013   2.885   0.209   1.143  0.2410  0.2968  0.3539
13866TIP3    H263014   2.790   0.097   1.107  1.2051 -0.2684 -0.4907
13867TIP3   OH263015   4.951   1.110  15.724  0.1328  0.3878  0.1669
13867TIP3    H163016   4.970   1.119  15.630 -2.6929  0.9737 -0.4310
13867TIP3    H263017   4.960   1.198  15.759 -0.6995  0.5394  0.0194
13868TIP3   OH263018   1.484   2.028   4.958 -0.5527 -0.0113 -0.3394
13868TIP3    H163019   1.444   2.115   4.961 -0.5105 -0.0179  0.5050
13868TIP3    H263020   1.463   1.995   4.870 -0.8868  0.6966 -0.5304
13869TIP3   OH263021   2.601   4.266   2.614 -0.2878 -0.6679  0.1418
13869TIP3    H163022   2.668   4.263   2.682  0.1879 -0.5488 -0.3183
13869TIP3    H263023   2.643   4.309   2.539 -1.2865  0.6404  0.2927
13870TIP3   OH263024   4.120   1.549   1.422 -0.0355  0.6457  0.6643
13870TIP3    H163025   4.188   1.482   1.424  0.8207  1.4907  1.0122
13870TIP3    H263026   4.042   1.505   1.454  0.4373 -0.2563  0.6059
13871TIP3   OH263027   1.337   5.947   0.688  0.6512  0.2019  0.4525
13871TIP3    H163028   1.328   5.852   0.685 -0.7307  0.3354  0.1188
13871TIP3    H263029   1.402   5.962   0.757 -0.5145 -0.9080  1.8538
13872TIP3   OH263030   1.512   5.655   4.739  0.4432  0.4224 -0.3348
13872TIP3    H163031   1.491   5.628   4.650  0.2794  2.2303 -0.8804
13872TIP3    H263032   1.608   5.651   4.744  0.5124  1.2345 -0.9117
13873TIP3   OH263033   1.212   1.361  13.265  0.2257 -0.0831 -0.0434
13873TIP3    H163034   1.214   1.411  13.183  0.0642 -0.5277 -0.3207
13873TIP3    H263035   1.142   1.297  13.252  0.5721 -0.5188  0.2330
13874TIP3   OH263036   2.513   1.662  13.034 -0.0580  0.7774 -0.0751
13874TIP3    H163037   2.551   1.686  13.119 -1.1960  1.1036  0.3570
13874TIP3    H263038   2.572   1.595  13.000  0.8940  1.2546  0.5783
13875TIP3   OH263039   1.329   0.451  14.819 -0.1423  0.0400 -0.1501
13875TIP3    H163040   1.294   0.532  14.856 -1.0846 -1.0517  1.4587
13875TIP3    H263041   1.280   0.440  14.737 -1.5508  0.0078  0.6701
13876TIP3   OH263042   1.038   0.700  12.316 -0.4305  0.5056  0.1247
13876TIP3    H163043   0.943   0.706  12.326 -0.2855  0.9654  1.4545
13876TIP3    H263044   1.072   0.780  12.357  0.5440  0.1466  0.0508
13877TIP3   OH263045   0.078   0.065  14.158 -0.3453 -0.0669 -0.1922
13877TIP3    H163046  -0.010   0.038  14.132 -0.6956 -0.2973  1.1697
13877TIP3    H263047   0.134  -0.009  14.134 -0.6098 -0.1626 -0.5219
13878TIP3   OH263048   0.259   5.950   6.032  0.3706 -0.1673 -0.3924
13878TIP3    H163049   0.282   5.861   6.006 -2.6353 -0.4599 -2.6851
13878TIP3    H263050   0.285   6.004   5.957 -0.1054  0.4992 -0.0848
13879TIP3   OH263051   6.826   6.150  11.229  0.6291 -0.2445  0.3191
13879TIP3    H163052   6.732   6.139  11.241  0.2491  1.5956 -0.6013
13879TIP3    H263053   6.866   6.081  11.283 -1.1492  0.9791  3.4568
13880TIP3   OH263054   1.030   4.732  13.726  0.3205  0.0730  0.0585
13880TIP3    H163055   0.978   4.674  13.781 -0.1218 -0.1629 -0.5888
13880TIP3    H263056   1.087   4.673  13.677  0.3771  0.2387 -0.0772
13881TIP3   OH263057   5.346   3.606  11.177  0.8026  0.5527  0.0071
13881TIP3    H163058   5.412   3.672  11.155 -0.6572  1.4514 -2.1700
13881TIP3    H263059   5.279   3.617  11.109 -1.1923 -0.8409  1.6157
13882TIP3   OH263060   3.832   3.260  12.978  0.4719  0.0758 -0.9204
13882TIP3    H163061   3.795   3.188  12.926  0.2632 -0.0719 -0.5728
13882TIP3    H263062   3.897   3.217  13.035  0.9401  0.2844 -1.2916
13883TIP3   OH263063   4.311   3.005   5.194  0.5137 -0.5037  0.6677
13883TIP3    H163064   4.307   2.985   5.287 -0.6722 -0.7131  0.5885
13883TIP3    H263065   4.397   3.043   5.181  0.2937  0.5311  2.0466
13884TIP3   OH263066   1.035   2.692   4.954 -0.4004  0.1183  0.4801
13884TIP3    H163067   1.075   2.778   4.958 -0.4630  0.1464  0.5017
13884TIP3    H263068   0.942   2.707   4.972 -0.6892  0.2442 -1.0262
13885TIP3   OH263069   6.454   0.607   6.008 -0.0304 -0.2686  0.4606
13885TIP3    H163070   6.546   0.584   6.019 -0.0866 -1.3545 -1.0464
13885TIP3    H263071   6.442   0.613   5.913 -1.2846  0.8595  0.6658
13886TIP3   OH263072   1.866   0.714   4.897 -0.2948  0.4022  0.1074
13886TIP3    H163073   1.858   0.703   4.992 -2.4129  0.1678 -0.0333
13886TIP3    H263074   1.868   0.809   4.884 -0.8829  0.4559  0.3606
13887TIP3   OH263075   6.272   2.975  15.266  0.2507 -0.5768  0.1303
13887TIP3    H163076   6.217   2.902  15.293  0.7614 -1.3950 -0.9620
13887TIP3    H263077   6.261   3.041  15.335 -0.3290 -1.6185  1.0558
13888TIP3   OH263078   4.035   0.868  10.654 -0.1369 -0.2824 -0.0508
13888TIP3    H163079   4.068   0.896  10.568 -0.0715 -1.1721 -0.3288
13888TIP3    H263080   3.940   0.870  10.645 -0.1347 -0.0492 -0.0316
13889TIP3   OH263081   3.812   3.134  16.410  0.2355  0.2122 -0.2080
13889TIP3    H163082   3.856   3.102  16.332  2.8389  1.8620  0.4441
13889TIP3    H263083   3.816   3.061  16.472 -1.5649 -0.9911 -1.4315
13890TIP3   OH263084   4.340   4.270   2.622 -0.7146  0.2576 -0.0877
13890TIP3    H163085   4.398   4.344   2.640  0.4879  0.0232 -2.6298
13890TIP3    H263086   4.319   4.278   2.528 -1.5677 -1.9285 -0.1414
13891TIP3   OH263087   5.752   3.798  10.634 -0.2387  0.2997 -0.8059
13891TIP3    H163088   5.754   3.703  10.624  0.8480  0.4105 -2.0342
13891TIP3    H263089   5.842   3.821  10.659 -0.0545  1.1129 -2.0852
13892TIP3   OH263090   4.760   2.184   5.748  0.1257 -0.3148  0.4720
13892TIP3    H163091   4.826   2.147   5.808 -0.2005  0.0960  1.0949
13892TIP3    H263092   4.802   2.263   5.714 -0.4044  0.4848  1.6243
13893TIP3   OH263093   4.852   6.415  13.451  0.0565 -0.0517  0.0507
13893TIP3    H163094   4.915   6.453  13.390 -1.4271 -0.0679 -1.5698
13893TIP3    H263095   4.860   6.321  13.438  0.0753 -0.0772  0.2433
13894TIP3   OH263096   1.791   0.349  11.018  0.1225  0.0422  0.4770
13894TIP3    H163097   1.704   0.336  11.056 -1.3944  1.2532 -2.2277
13894TIP3    H263098   1.851   0.351  11.093 -2.4254  1.2171  2.6298
13895TIP3   OH263099   6.397   6.426  12.634  0.3045 -0.2320 -0.1159
13895TIP3    H163100   6.344   6.493  12.676  0.5682 -0.6202  0.8471
13895TIP3    H263101   6.468   6.475  12.592  0.4320  0.1086  0.4821
13896TIP3   OH263102   1.807   0.705  12.591 -0.1336  0.2215  0.7137
13896TIP3    H163103   1.901   0.719  12.583  0.4807 -2.8282  1.3485
13896TIP3    H263104   1.776   0.695  12.501  0.4386 -0.1485  0.5494
13897TIP3   OH263105   5.168   5.707   1.343 -0.1449 -0.3537 -0.0045
13897TIP3    H163106   5.100   5.715   1.276 -0.9167 -1.3915  0.6145
13897TIP3    H263107   5.246   5.743   1.302 -0.7032 -0.5274 -1.2969
13898TIP3   OH263108   0.053   1.505  15.996 -0.1072  0.2320  0.4674
13898TIP3    H163109  -0.010   1.435  15.977  0.8591 -0.3395 -0.7591
13898TIP3    H263110   0.006   1.586  15.977 -0.7193 -0.1515  0.3308
13899TIP3   OH263111   0.350   1.189  11.914  0.4799 -0.0958  0.0677
13899TIP3    H163112   0.261   1.217  11.891 -0.1315 -0.2733  2.0245
13899TIP3    H263113   0.387   1.263  11.963  0.4734 -0.9298  1.3962
13900TIP3   OH263114   4.801   2.930  16.790 -0.0231  0.9812 -0.0003
13900TIP3    H163115   4.864   2.868  16.755  0.2304  1.9214 -1.2702
13900TIP3    H263116   4.850   3.011  16.801 -0.6402  1.3014  0.4626
13901TIP3   OH263117   5.996   3.111   4.999  0.3685 -0.0040 -0.7356
13901TIP3    H163118   5.943   3.122   5.077  1.3401 -0.2358 -0.0296
13901TIP3    H263119   5.951   3.163   4.932 -1.3952 -1.1677 -0.4983
13902TIP3   OH263120   4.244   2.221   3.797 -0.3991 -0.0140  0.4180
13902TIP3    H163121   4.336   2.195   3.808  0.1334  1.3297 -0.5963
13902TIP3    H263122   4.230   2.219   3.703 -0.8767  1.5209  0.4350
13903TIP3   OH263123   5.959   0.431   1.836  0.5875 -0.2486  0.1863
13903TIP3    H163124   5.891   0.434   1.903 -0.1027  0.7029 -0.5308
13903TIP3    H263125   5.925   0.369   1.771  1.3022 -1.2500  0.7525
13904TIP3   OH263126   4.048   5.333  12.877  0.1711  0.6714 -0.3298
13904TIP3    H163127   3.994   5.285  12.813 -1.5489  0.8114  0.9476
13904TIP3    H263128   4.105   5.266  12.915 -0.8464 -0.0011  0.0553
13905TIP3   OH263129   2.513   4.765   4.280 -0.2640  0.3269  0.1070
13905TIP3    H163130   2.425   4.794   4.259 -0.8766 -1.0131  0.7489
13905TIP3    H263131   2.536   4.703   4.211 -1.1249 -1.7966  1.6125
13906TIP3   OH263132   3.536   3.316  17.028 -0.0666 -0.5102 -0.0100
13906TIP3    H163133   3.595   3.287  16.958 -0.4817  1.1055 -1.0801
13906TIP3    H263134   3.589   3.315  17.107  1.4925  1.0927 -0.9774
13907TIP3   OH263135   3.180   2.214   1.526  0.5806 -0.3798 -0.1382
13907TIP3    H163136   3.206   2.303   1.503  1.8751 -0.4453  0.9637
13907TIP3    H263137   3.146   2.221   1.615  0.1492 -0.9037 -0.2581
13908TIP3   OH263138   4.175   6.667  13.129  0.2933  0.0511 -0.1710
13908TIP3    H163139   4.180   6.578  13.096 -1.4630 -0.7989  1.6248
13908TIP3    H263140   4.104   6.708  13.079  1.8299  0.8709 -1.7786
13909TIP3   OH263141   5.507   4.418  14.130 -0.7696 -0.0820  0.2120
13909TIP3    H163142   5.501   4.322  14.124 -1.9134  0.0487 -2.3294
13909TIP3    H263143   5.556   4.434  14.210 -1.3355 -2.7654  1.2296
13910TIP3   OH263144   5.463   1.009  12.995  0.2136  0.2089  0.6017
13910TIP3    H163145   5.556   0.992  12.977 -0.0752  0.4236 -1.2520
13910TIP3    H263146   5.452   1.102  12.975 -0.6125 -0.0470 -0.1491
13911TIP3   OH263147   2.287   3.302  11.470 -0.1042 -0.0844  1.0425
13911TIP3    H163148   2.369   3.331  11.509  0.3307 -1.1356  0.9578
13911TIP3    H263149   2.285   3.344  11.384  0.9860 -1.0490  0.5231
13912TIP3   OH263150   6.602   5.186   3.767  0.2415 -0.1460 -0.3553
13912TIP3    H163151   6.511   5.178   3.738 -0.0805 -1.6441  0.9511
13912TIP3    H263152   6.634   5.096   3.770  0.8035  0.0754  2.1181
13913TIP3   OH263153   4.009   6.264  11.488  0.3114 -0.3948 -1.0108
13913TIP3    H163154   4.028   6.199  11.420 -2.2162 -2.7604  0.3253
13913TIP3    H263155   3.992   6.212  11.566 -2.7386  1.7464 -0.0541
13914TIP3   OH263156   4.932   1.912   0.293 -0.1232  0.2911 -0.2553
13914TIP3    H163157   4.962   1.871   0.374 -0.5793 -0.9389 -0.6794
13914TIP3    H263158   5.001   1.973   0.270  0.7812 -0.5323  0.2060
13915TIP3   OH263159   5.368   5.464   2.861  0.1621 -0.6504  1.0408
13915TIP3    H163160   5.296   5.408   2.830  2.7929 -2.6812 -2.0590
13915TIP3    H263161   5.343   5.552   2.835 -1.2634 -1.2695  0.1770
13916TIP3   OH263162   5.725   6.251   4.719 -0.0982 -0.9653  0.1996
13916TIP3    H163163   5.744   6.212   4.634 -0.2993 -2.1206  0.6620
13916TIP3    H263164   5.693   6.339   4.699 -0.7952 -1.4640 -0.9603
13917TIP3   OH263165   0.796   5.311  15.522  0.2861  0.2041  0.1807
13917TIP3    H163166   0.785   5.217  15.518 -0.9441  0.3874 -1.8788
13917TIP3    H263167   0.863   5.331  15.456 -0.9916  0.9317 -0.9498
13918TIP3   OH263168   4.949   6.718   2.925  0.1873 -0.1801  0.0844
13918TIP3    H163169   4.934   6.639   2.873 -0.3412  1.8809 -3.2753
13918TIP3    H263170   5.033   6.705   2.967  0.4112 -2.2542 -0.9143
13919TIP3   OH263171   5.373   6.646  15.181  0.3510  0.3329 -0.9317
13919TIP3    H163172   5.291   6.633  15.132  0.4765  1.7837 -1.5855
13919TIP3    H263173   5.408   6.728  15.147  1.5728  0.2552  0.0744
13920TIP3   OH263174   3.327   3.153  16.276 -0.3599 -0.0529 -0.2393
13920TIP3    H163175   3.323   3.063  16.244 -1.1128  0.2180 -0.9420
13920TIP3    H263176   3.317   3.207  16.198  2.7179  0.7169 -0.2127
13921TIP3   OH263177   5.462   3.414  12.736 -0.0994 -0.5190 -0.1436
13921TIP3    H163178   5.513   3.417  12.655  1.0247  0.8291  0.5607
13921TIP3    H263179   5.382   3.463  12.716 -0.2228 -0.9206 -0.6652
13922TIP3   OH263180   1.276   3.875  12.074 -0.1436  0.1342  0.5293
13922TIP3    H163181   1.304   3.801  12.021  0.6550  1.2270 -0.6267
13922TIP3    H263182   1.357   3.922  12.094 -0.8852  2.9068 -2.1864
13923TIP3   OH263183   0.209   4.715   3.000 -0.5902  0.6600  0.4450
13923TIP3    H163184   0.118   4.742   3.002 -0.4456  1.0832  1.8069
13923TIP3    H263185   0.257   4.789   3.038  0.6403  1.5580 -2.5099
13924TIP3   OH263186   3.794   2.787   1.887  0.1149  0.0045 -0.4026
13924TIP3    H163187   3.743   2.862   1.918 -1.3897 -0.5028 -1.5120
13924TIP3    H263188   3.827   2.813   1.802 -1.2147 -0.8598 -1.2362
13925TIP3   OH263189   3.850   1.454   3.462  0.2968  0.0701  0.0361
13925TIP3    H163190   3.907   1.378   3.456  0.3168 -0.0676  1.5801
13925TIP3    H263191   3.843   1.472   3.556  1.0017  2.5077 -0.2946
13926TIP3   OH263192   0.857   0.870   0.333 -0.4866 -0.2718 -0.1304
13926TIP3    H163193   0.816   0.827   0.408 -2.5955  1.0928 -0.4148
13926TIP3    H263194   0.799   0.943   0.312  1.0021  0.4880 -1.9718
13927TIP3   OH263195   2.837   5.709  10.674  0.1735  0.3257 -0.7303
13927TIP3    H163196   2.771   5.733  10.608 -1.0948  1.2435  0.7957
13927TIP3    H263197   2.833   5.614  10.677  0.0862  0.2780 -1.8012
13928TIP3   OH263198   2.504   3.107   4.687 -0.6368  0.1944  0.2761
13928TIP3    H163199   2.525   3.186   4.637 -1.8272  0.1702 -0.2729
13928TIP3    H263200   2.589   3.066   4.702 -0.2986 -0.5825 -3.0041
13929TIP3   OH263201   2.928   0.894  13.009 -0.4545 -0.1147  0.3609
13929TIP3    H163202   2.910   0.982  12.976  2.5453  0.2518 -0.5794
13929TIP3    H263203   2.864   0.839  12.964  0.1533  1.1005 -2.1780
13930TIP3   OH263204   1.045   3.460  12.224  0.1270  0.0439 -0.1825
13930TIP3    H163205   1.012   3.425  12.141  2.0278  0.6013 -1.2335
13930TIP3    H263206   1.062   3.383  12.278  1.8411 -0.5978 -1.5257
13931TIP3   OH263207   3.484   1.237  14.275 -0.4629 -0.3091 -0.4144
13931TIP3    H163208   3.396   1.200  14.270 -0.2781 -1.0865  1.3270
13931TIP3    H263209   3.538   1.177  14.224 -0.7876 -0.3133 -0.7585
13932TIP3   OH263210   2.196   2.879   2.487 -0.0089 -0.3507  0.2444
13932TIP3    H163211   2.205   2.810   2.420 -1.8149 -1.0685  0.6561
13932TIP3    H263212   2.249   2.952   2.454  0.3185 -1.2093 -1.2397
13933TIP3   OH263213   4.702   3.534   5.218  0.5727  0.7892  0.5274
13933TIP3    H163214   4.651   3.466   5.173 -2.0244  1.6537  1.9203
13933TIP3    H263215   4.637   3.581   5.271  2.8645  2.1321  2.3196
13934TIP3   OH263216   0.205   0.953  13.095  0.3072  0.0993 -0.3487
13934TIP3    H163217   0.282   0.926  13.145 -0.3149  3.1832  2.6963
13934TIP3    H263218   0.148   0.877  13.095  1.5708 -0.9077  1.2193
13935TIP3   OH263219   1.442   4.407  15.484  0.1875  0.6119  0.3565
13935TIP3    H163220   1.419   4.441  15.571 -0.0135 -0.5396  0.7810
13935TIP3    H263221   1.512   4.464  15.453 -1.1980  2.3969  0.3202
13936TIP3   OH263222   2.478   5.464   4.833  0.5676 -0.6069 -0.0699
13936TIP3    H163223   2.388   5.446   4.857 -0.1244 -1.3860 -2.8380
13936TIP3    H263224   2.531   5.419   4.899 -1.0015  0.1753  1.8177
13937TIP3   OH263225   1.132   6.058  13.539  0.2624  0.0445 -0.1465
13937TIP3    H163226   1.054   6.055  13.485  1.0065  0.7434 -1.3016
13937TIP3    H263227   1.166   6.146  13.527 -0.3114  0.7392  2.6145
13938TIP3   OH263228   6.054   0.885   1.768  0.5940  0.1760 -0.0020
13938TIP3    H163229   5.959   0.879   1.759  0.6436 -0.7511  0.0637
13938TIP3    H263230   6.083   0.796   1.785  1.3780  0.6002  1.0092
13939TIP3   OH263231   0.625   0.758   2.762  0.2317 -0.0031  0.3265
13939TIP3    H163232   0.533   0.733   2.770  0.1984  0.0198  0.0357
13939TIP3    H263233   0.643   0.755   2.668  1.1941 -2.3162  0.5181
13940TIP3   OH263234   5.512   5.561   1.276  0.5746 -0.0669  0.0111
13940TIP3    H163235   5.558   5.544   1.358 -0.7075 -1.2261  0.5348
13940TIP3    H263236   5.427   5.519   1.288 -0.5150  1.7124 -1.0315
13941TIP3   OH263237   2.674   3.718  14.657 -0.1215 -0.1998  0.1324
13941TIP3    H163238   2.652   3.747  14.745  1.2589 -0.4230  0.5703
13941TIP3    H263239   2.596   3.673  14.626 -0.6946  0.0614  1.1522
13942TIP3   OH263240   6.333   1.034  15.373  0.4904 -0.3018 -0.7939
13942TIP3    H163241   6.299   1.040  15.462 -0.9149  0.8365 -1.3801
13942TIP3    H263242   6.303   0.949  15.341  2.8995 -1.7807  0.5064
13943TIP3   OH263243   4.954   4.927  11.887 -0.4162  0.1591  0.3831
13943TIP3    H163244   4.970   4.879  11.805  0.5715  1.4383 -0.2077
13943TIP3    H263245   5.016   5.000  11.885 -0.7384  0.5233  2.0394
13944TIP3   OH263246   4.609   0.617  13.881 -0.5095 -0.3190  0.1198
13944TIP3    H163247   4.640   0.542  13.932 -2.3429 -0.8381  0.5326
13944TIP3    H263248   4.665   0.689  13.910 -0.4398 -0.9565  1.6966
13945TIP3   OH263249   6.322   0.671   4.857 -0.0791 -0.3465  0.7215
13945TIP3    H163250   6.316   0.690   4.950 -1.1270  0.9960  0.4058
13945TIP3    H263251   6.342   0.577   4.853  0.8830 -0.2371  2.2860
13946TIP3   OH263252   2.665   0.245   5.936  0.0150 -0.3901  0.2417
13946TIP3    H163253   2.759   0.226   5.936  0.0256 -0.3525  0.0144
13946TIP3    H263254   2.655   0.315   6.000  0.0892 -0.6350  0.5219
13947TIP3   OH263255   5.362   5.955   2.990  0.7076  0.5785 -0.1772
13947TIP3    H163256   5.380   5.956   2.896 -0.2707 -1.9343 -0.4971
13947TIP3    H263257   5.448   5.945   3.031  0.9732 -1.0134 -1.0198
13948TIP3   OH263258   1.925   3.396  11.284  0.2971  0.5123  0.6527
13948TIP3    H163259   1.978   3.380  11.206 -0.1383  0.8918  0.2731
13948TIP3    H263260   1.953   3.329  11.347 -0.2636 -0.6252 -0.2832
13949TIP3   OH263261   6.413   1.332   3.693 -0.2083  0.0185  0.1976
13949TIP3    H163262   6.490   1.373   3.733  1.2225 -1.6342 -0.7677
13949TIP3    H263263   6.375   1.401   3.638  1.6968  0.3219 -0.8059
13950TIP3   OH263264   4.617   0.848  12.925 -0.2163 -0.1227  0.3672
13950TIP3    H163265   4.547   0.866  12.989  0.1612  1.9658  0.2499
13950TIP3    H263266   4.696   0.837  12.978  0.0479  1.3497  0.3142
13951TIP3   OH263267   0.273   1.586  13.326 -0.1171  0.5314  0.2247
13951TIP3    H163268   0.327   1.562  13.250  0.2466 -0.3756  0.7602
13951TIP3    H263269   0.187   1.606  13.288  0.8785  3.3433 -0.8136
13952TIP3   OH263270   2.469   0.637   4.216 -0.1071  0.5701 -0.4606
13952TIP3    H163271   2.404   0.572   4.190  0.9778 -0.3030 -1.1011
13952TIP3    H263272   2.495   0.612   4.304 -0.2392  0.5923 -0.4151
13953TIP3   OH263273   5.240   4.737  16.680  0.1668  0.5632 -0.3447
13953TIP3    H163274   5.283   4.730  16.765 -0.1060  1.3970 -0.1279
13953TIP3    H263275   5.155   4.693  16.691 -0.6622  2.2525  0.3877
13954TIP3   OH263276   1.608   4.108   0.940  0.8027  0.0812  0.1791
13954TIP3    H163277   1.687   4.059   0.916  0.9646 -0.1246  1.0667
13954TIP3    H263278   1.536   4.048   0.919  0.8639  0.3288 -0.7768
13955TIP3   OH263279   2.692   2.453  15.319  0.1167 -0.3484  0.2457
13955TIP3    H163280   2.731   2.539  15.333 -2.2067  0.8356 -0.0197
13955TIP3    H263281   2.665   2.455  15.227  1.5876 -2.0861 -0.2712
13956TIP3   OH263282   2.065   1.404  14.143 -0.1728 -0.2047 -0.0307
13956TIP3    H163283   1.981   1.449  14.140  0.1333  0.3394 -0.4659
13956TIP3    H263284   2.042   1.313  14.164 -1.1851 -0.8128 -3.1452
13957TIP3   OH263285   1.693   2.942  10.329  0.2888  0.1486  0.7110
13957TIP3    H163286   1.682   3.037  10.322  0.8680  0.2843  1.4994
13957TIP3    H263287   1.621   2.915  10.386 -1.8758 -0.3759 -2.0487
13958TIP3   OH263288   5.085   0.417  14.912  0.1361  0.2632 -0.6096
13958TIP3    H163289   5.077   0.477  14.837 -0.5896 -1.6194 -2.1416
13958TIP3    H263290   5.081   0.330  14.873  1.8579 -0.8338  1.4580
13959TIP3   OH263291   2.581   3.059  11.129 -0.2787  0.5305 -0.1336
13959TIP3    H163292   2.486   3.067  11.116 -0.4622 -0.7269  0.3084
13959TIP3    H263293   2.599   3.117  11.203 -1.2427 -1.4170  1.7502
13960TIP3   OH263294   3.137   0.656   1.595 -0.4059  0.3262  0.5391
13960TIP3    H163295   3.194   0.654   1.671  1.4273 -2.1047 -0.7659
13960TIP3    H263296   3.196   0.658   1.520 -2.0692 -0.1416 -0.8592
13961TIP3   OH263297   3.374   1.794   2.366 -0.2149  0.0359  0.4666
13961TIP3    H163298   3.364   1.729   2.435 -1.7327 -0.1432  0.1053
13961TIP3    H263299   3.294   1.846   2.371 -0.2446  0.1540 -1.0174
13962TIP3   OH263300   2.043   1.155  14.534  0.4384  0.4800  0.0804
13962TIP3    H163301   1.965   1.100  14.521  1.4052 -0.8841 -0.1216
13962TIP3    H263302   2.099   1.134  14.460  3.0444 -2.1509  2.5610
13963TIP3   OH263303   2.377   3.189  12.138  0.5074  0.0535 -0.1788
13963TIP3    H163304   2.387   3.229  12.225  0.1082  0.1309 -0.1688
13963TIP3    H263305   2.406   3.256  12.077 -1.1454  0.7489 -0.2286
13964TIP3   OH263306   3.543   2.163   3.888 -0.4008  0.1038  0.3552
13964TIP3    H163307   3.458   2.194   3.920 -0.0377  2.8143 -1.0096
13964TIP3    H263308   3.523   2.118   3.806 -0.5727  0.4499  0.2034
13965TIP3   OH263309   5.010   5.382   5.525  0.4735 -0.4681 -0.1349
13965TIP3    H163310   4.941   5.392   5.460  0.3949 -2.1456 -0.3551
13965TIP3    H263311   4.974   5.421   5.605 -0.0446  0.1733 -0.6663
13966TIP3   OH263312   2.568   3.908   4.343  0.3130  0.3180 -0.3985
13966TIP3    H163313   2.648   3.856   4.338  1.4981  2.0301 -0.3247
13966TIP3    H263314   2.534   3.893   4.431 -0.0439 -1.2059 -0.7655
13967TIP3   OH263315   6.632   3.187  11.007 -0.3073  0.2696  0.0707
13967TIP3    H163316   6.695   3.141  10.952  1.0716  1.8189  0.2789
13967TIP3    H263317   6.637   3.143  11.092 -0.8779 -0.7749 -0.4200
13968TIP3   OH263318   4.876   5.532   4.676 -0.3546  0.1286 -0.3686
13968TIP3    H163319   4.889   5.578   4.758 -1.4623 -1.0411  0.5078
13968TIP3    H263320   4.783   5.543   4.657 -0.0110  0.8494 -1.7813
13969TIP3   OH263321   0.517   2.577   2.288 -0.0214  0.3751  0.1367
13969TIP3    H163322   0.611   2.558   2.281 -0.2006 -0.7385  0.4928
13969TIP3    H263323   0.475   2.491   2.284 -1.0123  0.8375  0.3019
13970TIP3   OH263324   3.487   5.958   2.053 -0.6417  0.1090  0.4353
13970TIP3    H163325   3.525   5.903   1.984  0.3885  2.8264 -1.3597
13970TIP3    H263326   3.550   5.953   2.125 -0.2731 -0.5923  0.0717
13971TIP3   OH263327   6.218   5.113   5.835  0.2558  0.4453  0.0154
13971TIP3    H163328   6.255   5.037   5.879  2.0647  0.0905 -1.9728
13971TIP3    H263329   6.208   5.178   5.904 -1.9748 -1.6891  1.9232
13972TIP3   OH263330   0.439   5.708  12.132  0.0013 -0.1262  0.0262
13972TIP3    H163331   0.375   5.671  12.072 -1.4483  2.5696 -0.2604
13972TIP3    H263332   0.481   5.632  12.173 -1.5423 -2.0047 -1.6873
13973TIP3   OH263333   2.343   1.586  15.580 -0.1684  0.0245 -0.2200
13973TIP3    H163334   2.358   1.555  15.491  0.0490 -3.4502  0.8772
13973TIP3    H263335   2.264   1.640  15.573 -1.6912 -2.2227 -2.2033
13974TIP3   OH263336   1.158   2.068   0.043 -0.0237  0.3703 -0.3291
13974TIP3    H163337   1.178   2.060  -0.050  0.7750 -1.1354 -0.0665
13974TIP3    H263338   1.159   1.977   0.076 -0.4275  0.8522  1.1184
13975TIP3   OH263339   0.237   6.263  15.492 -0.3016  0.0362 -0.4121
13975TIP3    H163340   0.186   6.276  15.412 -1.5415  1.4168  0.5549
13975TIP3    H263341   0.276   6.349  15.510 -1.4307  0.2257  1.3582
13976TIP3   OH263342   1.425   2.006  13.170 -0.1392  0.1231 -0.5662
13976TIP3    H163343   1.346   2.052  13.141 -0.3947 -0.9386 -1.6361
13976TIP3    H263344   1.432   2.028  13.263 -1.8009  0.0959 -0.3973
13977TIP3   OH263345   4.985   3.133  15.646  0.5562 -0.2532  0.4213
13977TIP3    H163346   5.031   3.056  15.678  2.5778  0.5951 -0.2930
13977TIP3    H263347   5.005   3.136  15.552 -0.1826  0.6846  0.2765
13978TIP3   OH263348   0.176   2.445   2.424  0.2141 -0.5609  0.1955
13978TIP3    H163349   0.171   2.538   2.445  0.7322 -0.8777  1.8792
13978TIP3    H263350   0.201   2.443   2.331 -1.2206  0.9549 -0.2761
13979TIP3   OH263351   0.239   2.333  13.410 -0.2316  0.4257  0.3726
13979TIP3    H163352   0.284   2.308  13.490 -0.8910 -0.5419  0.4549
13979TIP3    H263353   0.149   2.303  13.422 -0.1571 -0.5081 -1.0513
13980TIP3   OH263354   4.643   2.387   1.514  0.6743  0.2090 -0.4572
13980TIP3    H163355   4.708   2.352   1.453  1.3151  3.2984 -1.7151
13980TIP3    H263356   4.595   2.453   1.464 -1.3145  0.2788  1.3678
13981TIP3   OH263357   0.697   5.658   4.405 -0.3164 -0.1963  0.6133
13981TIP3    H163358   0.772   5.622   4.358 -1.3046 -3.4389  1.3048
13981TIP3    H263359   0.646   5.702   4.338 -0.6122 -2.8751 -1.0511
13982TIP3   OH263360   1.890   0.687   1.402 -0.7822 -0.3140  0.5652
13982TIP3    H163361   1.873   0.601   1.362  0.9907 -0.3667 -0.1741
13982TIP3    H263362   1.927   0.666   1.488 -2.8386 -0.2156  1.5366
13983TIP3   OH263363   5.154   6.630   0.299  0.1047  0.1324 -0.0994
13983TIP3    H163364   5.231   6.588   0.335 -0.4104  0.2987  1.2764
13983TIP3    H263365   5.165   6.723   0.321 -0.1269  0.2686 -0.5524
13984TIP3   OH263366   2.471   0.623   2.350 -0.0432  0.0447  0.1539
13984TIP3    H163367   2.532   0.693   2.373 -0.7000  0.5779  0.3016
13984TIP3    H263368   2.418   0.660   2.279 -1.7269  0.4584  1.5559
13985TIP3   OH263369   1.684   3.813   5.836  0.0886 -0.2174  0.0393
13985TIP3    H163370   1.758   3.754   5.852  0.3891 -0.0476 -0.6969
13985TIP3    H263371   1.617   3.784   5.898  0.3935 -1.0483 -0.0117
13986TIP3   OH263372   1.915   3.870  11.122  0.4376  0.3049 -0.3939
13986TIP3    H163373   1.899   3.777  11.140 -0.0465  0.1355 -1.5667
13986TIP3    H263374   1.895   3.914  11.204 -4.4931 -0.0850 -1.0580
13987TIP3   OH263375   2.675   2.806  16.784  0.0377 -0.0351  0.1312
13987TIP3    H163376   2.687   2.721  16.827  0.8932 -1.0231 -1.9383
13987TIP3    H263377   2.596   2.796  16.732  0.0400  0.5190  0.0103
13988TIP3   OH263378   4.987   1.314   4.036 -0.2999 -0.5700 -0.4447
13988TIP3    H163379   4.961   1.382   4.098 -1.3509  0.1028 -1.5729
13988TIP3    H263380   4.981   1.233   4.086  0.9756  0.1224  0.9346
13989TIP3   OH263381   4.486   2.359  11.449 -0.0901 -0.0277  0.1472
13989TIP3    H163382   4.465   2.336  11.358  0.9488  0.3286 -0.1974
13989TIP3    H263383   4.420   2.424  11.473  0.5603  1.0786 -0.9203
13990TIP3   OH263384   5.312   4.039  14.676  0.2136 -0.4815  0.4811
13990TIP3    H163385   5.243   4.065  14.615 -0.4792  1.9237  2.1237
13990TIP3    H263386   5.391   4.034  14.623 -0.6131  0.1538 -0.8618
13991TIP3   OH263387   2.960   0.201   5.970  0.3620 -0.1291  0.1284
13991TIP3    H163388   3.055   0.204   5.983  0.1599 -0.5889  1.9636
13991TIP3    H263389   2.930   0.132   6.029 -1.2755  0.9395  0.6083
13992TIP3   OH263390   6.257   5.594   1.435 -0.1491  0.3306  0.0559
13992TIP3    H163391   6.175   5.619   1.392 -0.7796 -0.8678  0.5209
13992TIP3    H263392   6.301   5.537   1.372  0.7126  1.5828 -0.5082
13993TIP3   OH263393   5.102   2.791   6.162  0.3900 -0.0528 -0.3449
13993TIP3    H163394   5.053   2.757   6.236  1.4239  0.0316  0.3999
13993TIP3    H263395   5.047   2.862   6.127 -1.0132 -1.3668 -0.8941
13994TIP3   OH263396   5.200   1.761   3.342  0.1239 -0.3750  0.4603
13994TIP3    H163397   5.104   1.753   3.346 -0.0488  0.5609 -0.9084
13994TIP3    H263398   5.225   1.705   3.268  0.5166  0.1529  0.1904
13995TIP3   OH263399   6.187   0.722   1.313 -0.0039  0.3298 -0.4601
13995TIP3    H163400   6.200   0.793   1.376 -0.2125  0.1976 -0.2658
13995TIP3    H263401   6.092   0.724   1.295 -0.5025 -1.5798  1.5516
13996TIP3   OH263402   3.582   3.685  12.346 -0.1037 -0.1671 -0.1594
13996TIP3    H163403   3.503   3.736  12.326 -0.4523 -0.0214  1.4404
13996TIP3    H263404   3.563   3.646  12.432  1.9272  0.6293  0.7013
13997TIP3   OH263405   2.989   6.763   4.306  0.2908  0.6016 -0.1498
13997TIP3    H163406   2.941   6.839   4.275  0.5210 -0.0553 -2.2900
13997TIP3    H263407   2.923   6.694   4.315  0.0942  0.9740  1.7144
13998TIP3   OH263408   5.665   6.508  13.211 -0.2200  0.3950 -0.1660
13998TIP3    H163409   5.685   6.564  13.137 -0.4243  0.5248 -0.1244
13998TIP3    H263410   5.739   6.518  13.271 -0.0736  0.3189 -0.3342
13999TIP3   OH263411   2.989   6.589   1.512  0.3122 -0.3293 -0.4901
13999TIP3    H163412   3.020   6.592   1.421 -0.0129  0.8810 -0.5757
13999TIP3    H263413   2.894   6.584   1.505  0.3067 -0.6194 -0.2146
14000TIP3   OH263414   3.955   3.893  12.427  0.1385  0.0344  0.1477
14000TIP3    H163415   3.911   3.822  12.474 -1.6889 -0.5002 -2.1555
14000TIP3    H263416   3.962   3.861  12.337 -0.5331  2.6566 -0.9333
14001TIP3   OH263417   1.279   6.387  16.216  0.1254 -0.5910 -0.7106
14001TIP3    H163418   1.316   6.458  16.163  2.0904 -1.1265 -0.1548
14001TIP3    H263419   1.252   6.430  16.297  2.5128 -0.5894  0.1579
14002TIP3   OH263420   1.089   6.040   4.575  0.0036 -0.2285 -0.3910
14002TIP3    H163421   1.128   5.955   4.553 -0.1900 -0.1478 -1.0733
14002TIP3    H263422   1.112   6.097   4.501 -0.5201  0.1045 -0.3045
14003TIP3   OH263423   5.185   0.838   3.583  0.0282 -0.2843  0.6573
14003TIP3    H163424   5.204   0.751   3.616  0.4730 -1.0298 -1.4247
14003TIP3    H263425   5.101   0.830   3.537  0.2926  0.2415  0.0486
14004TIP3   OH263426   4.536   3.470  13.521  0.1147  0.2921 -0.1314
14004TIP3    H163427   4.529   3.486  13.427 -4.4054 -2.1385 -0.4590
14004TIP3    H263428   4.552   3.376  13.528 -2.3748 -0.0916  1.4359
14005TIP3   OH263429   3.991   1.601   2.408 -0.0281  0.0894 -0.0274
14005TIP3    H163430   4.069   1.547   2.395 -0.0511  0.4453 -2.0627
14005TIP3    H263431   4.024   1.683   2.446  0.6510  0.3322 -1.0950
14006TIP3   OH263432   4.868   5.356   3.505 -0.0944 -0.0733  0.3300
14006TIP3    H163433   4.874   5.325   3.414  1.2065  1.2933 -0.1060
14006TIP3    H263434   4.925   5.297   3.555  1.3819  0.7920 -0.2642
14007TIP3   OH263435   6.005   1.992   4.033 -0.1926 -0.6019  0.2155
14007TIP3    H163436   5.947   1.992   4.109 -0.0309  0.9703  0.3698
14007TIP3    H263437   6.090   2.022   4.067  0.5391 -2.1554 -0.1503
14008TIP3   OH263438   1.376   4.098   0.275  0.0355  1.2000  0.0732
14008TIP3    H163439   1.345   4.156   0.344  0.7181  1.6641 -0.0025
14008TIP3    H263440   1.445   4.046   0.316 -0.1041  0.9176 -0.0464
14009TIP3   OH263441   0.937   4.761   4.126  0.0360 -0.8717 -0.2754
14009TIP3    H163442   1.000   4.832   4.118  0.2559 -1.0076  0.2566
14009TIP3    H263443   0.961   4.716   4.207 -0.9511 -0.7132  0.1186
14010TIP3   OH263444   0.632   3.047  11.571 -0.3856 -0.0163  0.3480
14010TIP3    H163445   0.645   2.997  11.651 -2.0533  1.2912  1.5013
14010TIP3    H263446   0.555   3.007  11.530 -0.3291  0.1388  0.0872
14011TIP3   OH263447   4.858   3.354   5.846 -0.3675  0.1885 -0.2303
14011TIP3    H163448   4.891   3.350   5.936  0.5016 -1.0671 -0.5714
14011TIP3    H263449   4.780   3.409   5.852 -0.1424  0.4064  1.2310
14012TIP3   OH263450   1.912   2.296  11.682  0.1561 -0.0891  0.0885
14012TIP3    H163451   1.960   2.365  11.636  0.6164 -0.3172  0.2270
14012TIP3    H263452   1.907   2.327  11.772  0.8459 -0.4871  0.2702
14013TIP3   OH263453   4.007   2.193  11.250 -0.2114  0.5322 -0.0855
14013TIP3    H163454   3.960   2.113  11.272  1.4892 -0.3641  0.4489
14013TIP3    H263455   3.980   2.214  11.161 -1.1501 -0.2811  0.0035
14014TIP3   OH263456   1.709   4.919   3.568  0.1858  0.0131 -0.2674
14014TIP3    H163457   1.694   4.948   3.658  0.5183 -0.1780 -0.1500
14014TIP3    H263458   1.747   4.832   3.577  0.8965  0.2911 -0.5769
14015TIP3   OH263459   1.191   6.338  15.968 -0.1446  0.3147  0.3735
14015TIP3    H163460   1.210   6.327  16.061 -0.2295 -0.3659  0.3182
14015TIP3    H263461   1.275   6.359  15.928 -0.1405  0.7924  0.6257
14016TIP3   OH263462   3.661   4.979  13.249 -0.0247  0.1480  0.2481
14016TIP3    H163463   3.659   4.907  13.187  1.8661 -0.7867  1.1906
14016TIP3    H263464   3.626   4.943  13.331  0.8898  0.2766  0.7145
14017TIP3   OH263465   3.754   1.835  14.949  0.3758 -0.2312 -0.0791
14017TIP3    H163466   3.726   1.809  15.036  1.1086 -1.1285 -0.0989
14017TIP3    H263467   3.689   1.900  14.921 -0.0546 -0.1905  0.9859
14018TIP3   OH263468   1.984   5.195   1.110  0.1603 -0.2232  0.0981
14018TIP3    H163469   1.938   5.112   1.092 -0.3692  0.1830 -0.4706
14018TIP3    H263470   2.042   5.207   1.035 -0.1071  0.1519 -0.0503
14019TIP3   OH263471   3.412   5.302   1.583  0.0166  0.3859 -0.2119
14019TIP3    H163472   3.401   5.264   1.670 -0.0624  1.5607  0.3008
14019TIP3    H263473   3.435   5.227   1.528  1.4518 -0.1773  1.0734
14020TIP3   OH263474   2.575   1.623   0.757  0.5684  0.2147 -0.2515
14020TIP3    H163475   2.541   1.577   0.680 -1.0983  0.9460  0.0114
14020TIP3    H263476   2.648   1.569   0.786  0.9418 -0.3431 -2.0486
14021TIP3   OH263477   5.938   0.800   3.315  0.5963 -0.0826 -0.1842
14021TIP3    H163478   5.914   0.830   3.402  1.4402  0.0099  0.0276
14021TIP3    H263479   6.014   0.743   3.329  0.0964 -0.9182 -0.7570
14022TIP3   OH263480   3.341   1.965  16.876  0.0619 -0.2711  0.4258
14022TIP3    H163481   3.355   1.872  16.861  2.3317 -0.1722  1.4121
14022TIP3    H263482   3.385   2.008  16.803  1.6504  0.0241  1.5071
14023TIP3   OH263483   1.149   3.925  16.212  0.4137 -0.3809 -0.2283
14023TIP3    H163484   1.111   4.005  16.247  0.0147 -0.7470  0.1895
14023TIP3    H263485   1.222   3.955  16.157 -0.1990  0.3024 -0.6842
14024TIP3   OH263486   5.700   6.063  15.405  0.2644  0.0397 -0.5813
14024TIP3    H163487   5.748   5.982  15.424 -0.6422 -0.0799  1.4005
14024TIP3    H263488   5.608   6.035  15.398  0.0480  0.7729 -0.7620
14025TIP3   OH263489   0.697   3.946   1.579  0.5038  0.0214  0.0344
14025TIP3    H163490   0.703   3.865   1.528 -1.8751 -0.0549 -0.2047
14025TIP3    H263491   0.716   4.015   1.516 -1.6497 -0.1227 -0.8289
14026TIP3   OH263492   6.036   6.105  11.176  0.0100 -0.1508 -0.5717
14026TIP3    H163493   5.991   6.077  11.256  0.4396 -0.4138 -0.4187
14026TIP3    H263494   6.012   6.198  11.167  2.5718  0.9025  1.7483
14027TIP3   OH263495   4.533   1.719  12.584 -0.6102  0.6343  0.0058
14027TIP3    H163496   4.474   1.655  12.544 -1.4409  2.3042 -1.5657
14027TIP3    H263497   4.620   1.692  12.557 -0.9170  0.0106 -0.3796
14028TIP3   OH263498   2.206   3.091  12.544 -0.1044  0.3929  0.4359
14028TIP3    H163499   2.124   3.125  12.508  0.5932  2.2193  0.4675
14028TIP3    H263500   2.260   3.168  12.557  2.3042 -0.8836 -1.2488
14029TIP3   OH263501   4.897   6.402   3.420 -0.4770  0.2486 -0.3422
14029TIP3    H163502   4.983   6.380   3.384  0.0355  0.6727  0.5992
14029TIP3    H263503   4.893   6.498   3.418 -0.6177  0.2634  0.3112
14030TIP3   OH263504   3.855   6.788   3.671  0.6419 -0.3971  0.0767
14030TIP3    H163505   3.801   6.852   3.625  3.1836  1.2689 -0.7907
14030TIP3    H263506   3.797   6.712   3.681 -1.0832  0.2914 -3.0382
14031TIP3   OH263507   1.073   3.864  11.608 -0.0825 -0.3099  0.1546
14031TIP3    H163508   1.092   3.884  11.700  0.7794  0.6982 -0.2317
14031TIP3    H263509   1.059   3.769  11.607 -0.9097 -0.2279  1.4579
14032TIP3   OH263510   6.226   1.493  10.785  0.1146  0.9695  0.2084
14032TIP3    H163511   6.246   1.485  10.878  1.6792 -0.5955 -0.2172
14032TIP3    H263512   6.202   1.405  10.757  1.7874  0.9252 -1.2915
14033TIP3   OH263513   6.601   4.006   3.078  0.2932 -0.6402  0.8086
14033TIP3    H163514   6.687   4.029   3.111  1.1444 -0.9222 -1.0605
14033TIP3    H263515   6.577   4.078   3.019 -0.7953 -0.5260  1.3548
14034TIP3   OH263516   2.869   4.878   2.964 -0.3100  0.4646 -0.0528
14034TIP3    H163517   2.807   4.833   3.022  1.0471 -1.6008 -0.1259
14034TIP3    H263518   2.954   4.866   3.005  0.6586 -0.8654 -2.3288
14035TIP3   OH263519   2.920   1.227  12.990 -0.0556 -0.0845 -0.4700
14035TIP3    H163520   2.910   1.320  12.975  0.9961 -0.0010 -0.7233
14035TIP3    H263521   3.014   1.214  13.005 -0.0230 -1.2356 -1.4555
14036TIP3   OH263522   6.215   1.717   5.140 -0.4456 -0.1886 -0.0905
14036TIP3    H163523   6.309   1.703   5.141 -0.4360 -0.1071  0.2845
14036TIP3    H263524   6.200   1.787   5.205 -0.9203 -1.1932  0.9252
14037TIP3   OH263525   2.467   2.149  10.722  0.4278  0.1015  0.5213
14037TIP3    H163526   2.446   2.060  10.750  0.3627  0.2136  0.8356
14037TIP3    H263527   2.413   2.205  10.778  0.4303  0.3350  0.2897
14038TIP3   OH263528   5.936   3.232  12.429 -0.0783  0.3452  0.6178
14038TIP3    H163529   5.959   3.287  12.355 -1.7147  1.2794  0.7736
14038TIP3    H263530   6.018   3.222  12.478  0.5343  1.5023 -0.1445
14039TIP3   OH263531   2.361   1.790  12.126  0.6961 -0.0151  1.0454
14039TIP3    H163532   2.358   1.865  12.186  2.6182  1.5651 -0.6669
14039TIP3    H263533   2.276   1.791  12.082  0.1609  0.2378  2.0401
14040TIP3   OH263534   6.547   4.986  13.027 -0.3751  0.3719 -0.2914
14040TIP3    H163535   6.547   4.891  13.018 -0.9147  0.4253 -0.9092
14040TIP3    H263536   6.520   5.001  13.118 -0.1293 -0.0612 -0.1404
14041TIP3   OH263537   0.613   2.325   3.073  0.1559 -0.0008 -0.1490
14041TIP3    H163538   0.549   2.357   3.009 -0.2607  0.3968  0.4517
14041TIP3    H263539   0.617   2.231   3.058  1.6385  0.3269 -2.1735
14042TIP3   OH263540   0.801   5.191   2.512  0.5221  0.1360 -0.1532
14042TIP3    H163541   0.852   5.253   2.565 -0.5897  0.2803  0.7782
14042TIP3    H263542   0.757   5.246   2.448  0.6527  0.1367 -0.2438
14043TIP3   OH263543   6.482   0.637  10.781 -0.4143 -0.1480  0.2283
14043TIP3    H163544   6.577   0.635  10.775 -0.4975 -1.0818 -1.3803
14043TIP3    H263545   6.458   0.720  10.739 -0.3114 -0.0134  0.4385
14044TIP3   OH263546   2.241   3.804  16.871  0.0541 -0.2900  0.4939
14044TIP3    H163547   2.194   3.808  16.954  1.0190  0.9496  1.0096
14044TIP3    H263548   2.249   3.895  16.843  1.9565 -0.4641  0.3495
14045TIP3   OH263549   6.478   6.239   2.524 -0.0042  0.9140  0.6349
14045TIP3    H163550   6.479   6.231   2.620 -1.8311 -0.9360  0.5833
14045TIP3    H263551   6.395   6.281   2.505 -0.0643  0.4431 -0.1660
14046TIP3   OH263552   0.688   5.584  12.308  0.3380  0.0676  0.2772
14046TIP3    H163553   0.630   5.528  12.258 -0.0966  0.6198  0.1467
14046TIP3    H263554   0.706   5.535  12.388 -1.6305  0.5567  1.0638
14047TIP3   OH263555   3.017   3.210   4.417 -0.4258  0.1604  0.1081
14047TIP3    H163556   2.965   3.286   4.442 -0.3413  0.5110 -0.7228
14047TIP3    H263557   2.971   3.135   4.454 -1.3883  0.4854 -0.3958
14048TIP3   OH263558   3.561   3.060  12.495  0.3265  0.1512  0.4142
14048TIP3    H163559   3.470   3.031  12.490  0.8953 -1.5950 -0.5461
14048TIP3    H263560   3.571   3.119  12.419  1.0583 -3.1202 -2.2883
14049TIP3   OH263561   2.484   0.047   6.091 -0.3603  0.6204 -0.0298
14049TIP3    H163562   2.402   0.048   6.140 -0.0834  0.0610  0.4553
14049TIP3    H263563   2.552   0.055   6.157  0.0585 -1.0567 -0.2069
14050TIP3   OH263564   0.559   0.945   1.582  0.0686  0.0878 -0.4245
14050TIP3    H163565   0.478   0.921   1.538  0.5782 -0.5957 -1.0149
14050TIP3    H263566   0.618   0.972   1.511  0.7002 -0.4374 -0.1090
14051TIP3   OH263567   6.112   0.109  12.273 -0.8469  0.5889  0.4649
14051TIP3    H163568   6.202   0.116  12.305 -0.0483  0.2380 -1.5309
14051TIP3    H263569   6.116   0.039  12.207 -2.1979  1.6893 -0.8637
14052TIP3   OH263570   5.109   0.111   3.589 -0.0776 -0.2673 -0.2344
14052TIP3    H163571   5.086   0.112   3.682  0.2493 -3.0943 -0.0196
14052TIP3    H263572   5.205   0.115   3.589 -0.1156  1.3055 -0.5859
14053TIP3   OH263573   4.958   6.161   3.075  0.0096 -0.4011  0.1140
14053TIP3    H163574   4.915   6.246   3.071 -2.2991 -1.5185 -1.3903
14053TIP3    H263575   5.048   6.180   3.103 -1.0205  2.2460  1.9962
14054TIP3   OH263576   2.966   3.890   4.162 -0.1619 -0.3456 -0.0913
14054TIP3    H163577   2.893   3.850   4.114  1.8126 -1.5968 -2.2650
14054TIP3    H263578   2.942   3.881   4.255 -1.9227 -2.3898 -0.6785
14055TIP3   OH263579   0.953   3.385  11.972  0.0811 -0.5816  0.3444
14055TIP3    H163580   0.953   3.465  11.921  1.3249 -1.1853 -0.6629
14055TIP3    H263581   0.883   3.332  11.933 -1.7400  0.5207  1.9439
14056TIP3   OH263582   1.919   4.973  14.496  0.3433  0.1470  0.0917
14056TIP3    H163583   1.905   4.941  14.407  1.3601  2.6687 -1.0730
14056TIP3    H263584   1.982   4.911  14.534 -0.2067 -1.0395 -0.8720
14057TIP3   OH263585   2.547   6.771   5.436 -0.1105 -0.2205 -0.6386
14057TIP3    H163586   2.471   6.756   5.380 -0.2093  0.2453 -0.6391
14057TIP3    H263587   2.513   6.771   5.525  0.1846 -1.8344 -0.5009
14058TIP3   OH263588   6.102   3.275  15.079  0.1090 -0.5232  0.9697
14058TIP3    H163589   6.007   3.262  15.079  0.4284 -3.7368  0.9649
14058TIP3    H263590   6.132   3.231  15.158  1.4961  2.3685  2.1899
14059TIP3   OH263591   5.441   6.524  11.362  0.1274 -0.5946  0.5662
14059TIP3    H163592   5.434   6.428  11.360  1.0198 -0.6667  0.6288
14059TIP3    H263593   5.466   6.545  11.452  0.8938 -0.3867  0.3172
14060TIP3   OH263594   6.209   6.026  12.617 -0.2575  0.4772 -0.1599
14060TIP3    H163595   6.184   6.108  12.576 -0.4804 -0.6924 -2.5523
14060TIP3    H263596   6.205   5.961  12.547  3.4761 -0.9541  0.6891
14061TIP3   OH263597   1.293   4.772  16.129 -0.6597  0.2804 -0.2238
14061TIP3    H163598   1.256   4.733  16.050  1.6725  0.4486 -1.4983
14061TIP3    H263599   1.335   4.853  16.099  2.8902 -1.0993  0.4818
14062TIP3   OH263600   3.519   5.118  11.642 -0.1410 -0.3074 -1.0664
14062TIP3    H163601   3.490   5.187  11.582 -0.6621 -0.6291 -1.1938
14062TIP3    H263602   3.614   5.131  11.650 -0.3041  0.7288 -0.6876
14063TIP3   OH263603   3.298   5.915   9.981 -0.1773  0.3062 -0.4015
14063TIP3    H163604   3.221   5.879  10.025 -0.4925 -0.4164 -1.4909
14063TIP3    H263605   3.278   6.008   9.970 -0.8401  0.1593 -0.5320
14064TIP3   OH263606   0.067   2.734   3.391  0.8093  0.6054 -0.3409
14064TIP3    H163607  -0.019   2.776   3.385  0.1232 -0.7226 -0.2319
14064TIP3    H263608   0.100   2.759   3.477 -0.7556 -1.1151  0.8584
14065TIP3   OH263609   4.414   1.107   4.264  0.6613  0.8661 -0.2509
14065TIP3    H163610   4.324   1.099   4.233  0.1847 -0.2514  1.2872
14065TIP3    H263611   4.465   1.129   4.186 -0.6373 -0.5485 -1.5463
14066TIP3   OH263612   5.692   3.419   3.305 -0.1811  0.5003 -0.4585
14066TIP3    H163613   5.764   3.363   3.275  0.1863 -0.1734  1.4983
14066TIP3    H263614   5.614   3.364   3.296 -0.6076  1.3738 -2.9799
14067TIP3   OH263615   2.009   2.273  16.679  0.7553  0.1213 -0.0601
14067TIP3    H163616   2.056   2.296  16.599  1.3547  0.5625  0.4065
14067TIP3    H263617   2.045   2.188  16.705 -0.1745 -0.5213 -0.8056
14068TIP3   OH263618   0.577   4.010   3.584 -0.2832 -0.0472  0.0604
14068TIP3    H163619   0.560   4.087   3.639 -0.9810 -0.1483 -0.0030
14068TIP3    H263620   0.562   4.042   3.495 -3.3560 -0.9120  0.1636
14069TIP3   OH263621   5.229   5.233  11.953  0.0077 -0.0195 -0.3195
14069TIP3    H163622   5.285   5.163  11.919  0.2339  0.3832 -0.7923
14069TIP3    H263623   5.158   5.240  11.889  0.1746  0.4162 -0.4620
14070TIP3   OH263624   4.419   3.344   2.924  0.6279 -0.8169  0.1427
14070TIP3    H163625   4.362   3.419   2.940 -0.2350 -1.4096 -0.0268
14070TIP3    H263626   4.415   3.294   3.006  2.3132  0.0204  0.7572
14071TIP3   OH263627   6.230   2.079  13.030  0.0990 -0.5673 -0.3120
14071TIP3    H163628   6.299   2.018  13.058  0.7074 -0.0503 -0.6614
14071TIP3    H263629   6.184   2.102  13.110  0.8645 -0.2821  0.0578
14072TIP3   OH263630   4.969   4.883  15.706 -0.4019  0.5387  0.1257
14072TIP3    H163631   5.010   4.803  15.739  1.5545  0.9636 -1.0816
14072TIP3    H263632   5.042   4.932  15.668 -1.5921  2.7939  0.6113
14073TIP3   OH263633   2.493   6.077   2.419  0.1281  0.2415 -0.0315
14073TIP3    H163634   2.500   6.018   2.494  2.7553  0.3135 -0.1348
14073TIP3    H263635   2.430   6.143   2.446 -0.3126 -0.7150  1.4051
14074TIP3   OH263636   6.444   1.208   3.396 -0.3316  0.1126  0.5855
14074TIP3    H163637   6.420   1.123   3.435 -0.1667  0.5576  1.6738
14074TIP3    H263638   6.528   1.192   3.353 -1.7505 -1.0867 -1.9939
14075TIP3   OH263639   0.204   0.497  11.935  0.3256 -0.5403 -0.0643
14075TIP3    H163640   0.116   0.533  11.922  0.0966 -1.1466 -0.1907
14075TIP3    H263641   0.214   0.492  12.030  0.4507  0.0745 -0.0403
14076TIP3   OH263642   6.416   6.746  15.948 -0.6708  0.2061  0.4361
14076TIP3    H163643   6.439   6.836  15.970 -1.3172 -0.0973  2.5121
14076TIP3    H263644   6.321   6.748  15.938 -0.6183 -0.1304 -0.1870
14077TIP3   OH263645   3.205   5.950  15.886 -0.2481 -0.5220  0.0767
14077TIP3    H163646   3.263   5.966  15.960  0.6067 -1.5681 -0.3349
14077TIP3    H263647   3.166   6.035  15.867  0.9685  0.1646  0.5271
14078TIP3   OH263648   0.091   1.010   6.132  0.4249 -0.1934 -1.0439
14078TIP3    H163649   0.061   1.086   6.083  0.6726  0.1165 -0.7174
14078TIP3    H263650   0.015   0.951   6.133 -0.1688  0.5650 -0.2687
14079TIP3   OH263651   2.254   0.364  12.497 -0.4487  0.0745  0.1423
14079TIP3    H163652   2.272   0.271  12.479 -1.5596 -0.1578  0.1377
14079TIP3    H263653   2.168   0.379  12.456 -0.6384  0.8979  0.8264
14080TIP3   OH263654   6.083   6.602   5.630 -0.2369 -0.2074 -0.4564
14080TIP3    H163655   6.104   6.685   5.672 -0.5544  0.0193 -0.7387
14080TIP3    H263656   5.995   6.581   5.660  0.5190 -1.3992  1.1170
14081TIP3   OH263657   2.986   1.320  15.735  0.7608 -0.6709  0.6174
14081TIP3    H163658   2.938   1.295  15.656  1.5068 -2.1351  0.5968
14081TIP3    H263659   3.074   1.339  15.704  0.6219  0.4735  0.8759
14082TIP3   OH263660   1.265   0.228  11.188 -0.0776  0.5402  0.7377
14082TIP3    H163661   1.310   0.160  11.236 -1.7741  0.3153  2.1124
14082TIP3    H263662   1.234   0.185  11.108 -0.5957 -0.1617  1.2998
14083TIP3   OH263663   2.325   2.035  11.805 -0.3003  0.4766  0.5619
14083TIP3    H163664   2.375   2.086  11.742 -1.9217 -0.4194 -1.5731
14083TIP3    H263665   2.390   1.979  11.847  0.6926  0.2420 -1.1846
14084TIP3   OH263666   3.979   2.215   3.568 -0.2138 -0.0227  0.4681
14084TIP3    H163667   3.883   2.223   3.562 -0.2504 -0.1178  0.9268
14084TIP3    H263668   4.008   2.213   3.477 -0.5205  1.6110  0.3014
14085TIP3   OH263669   1.901   1.718  14.261  0.0505  0.2918  0.1376
14085TIP3    H163670   1.911   1.705  14.355  0.4011  0.6515  0.1536
14085TIP3    H263671   1.991   1.727  14.229 -0.1080  1.0677 -0.0976
14086TIP3   OH263672   4.960   1.471   5.376 -0.6940 -0.1732 -0.1227
14086TIP3    H163673   4.908   1.538   5.330 -2.4681 -1.4563 -0.0843
14086TIP3    H263674   4.906   1.447   5.451  1.5297  0.8545  1.8979
14087TIP3   OH263675   0.058   5.486   3.856 -0.1527  0.1889  0.4962
14087TIP3    H163676   0.118   5.521   3.790  0.1060  1.5849  1.4323
14087TIP3    H263677  -0.022   5.466   3.807 -0.1984  1.8412 -0.1638
14088TIP3   OH263678   3.759   4.635  13.258  0.0098  0.4210  0.4585
14088TIP3    H163679   3.773   4.547  13.293 -1.2683  0.5065  1.2384
14088TIP3    H263680   3.665   4.649  13.266 -0.4810  0.3233 -3.2899
14089TIP3   OH263681   0.644   3.542   3.676 -0.2530 -0.6273 -0.4849
14089TIP3    H163682   0.660   3.506   3.763  0.1350 -0.2374 -0.3921
14089TIP3    H263683   0.580   3.482   3.637 -0.6947 -0.6160  0.1917
14090TIP3   OH263684   5.856   5.477  15.993 -0.3095  0.1172 -0.1373
14090TIP3    H163685   5.913   5.515  16.060 -0.7343  0.3072  0.1236
14090TIP3    H263686   5.831   5.551  15.938 -1.0482  0.2070  0.3053
14091TIP3   OH263687   4.335   1.910   4.104 -0.4065  0.7681 -0.1919
14091TIP3    H163688   4.349   2.005   4.111 -2.0285  1.0073  0.1096
14091TIP3    H263689   4.271   1.890   4.172 -0.1816 -0.5334 -0.3460
14092TIP3   OH263690   5.896   1.930   0.654 -0.2462  0.1129  0.3355
14092TIP3    H163691   5.897   1.915   0.560 -1.1113  1.2911  0.1243
14092TIP3    H263692   5.978   1.892   0.685  0.3888  0.3594 -0.9960
14093TIP3   OH263693   5.169   0.611  13.545 -0.2638  0.3726 -0.0644
14093TIP3    H163694   5.134   0.634  13.459  0.2225 -1.5433 -0.8302
14093TIP3    H263695   5.245   0.669  13.556 -0.4263  0.7470 -0.8496
14094TIP3   OH263696   2.082   3.658   4.346 -0.0727 -0.1992  0.0834
14094TIP3    H163697   1.994   3.644   4.381  0.1158 -0.0148  0.6456
14094TIP3    H263698   2.068   3.704   4.263 -0.5226 -0.5571 -0.0451
14095TIP3   OH263699   6.250   6.500  10.853 -0.3736 -0.1692 -0.4971
14095TIP3    H163700   6.220   6.548  10.930 -1.8225 -2.0100  0.1604
14095TIP3    H263701   6.207   6.543  10.780 -0.4551  0.4442 -0.0989
14096TIP3   OH263702   2.293   1.927  15.116  0.0420 -0.2202 -0.0675
14096TIP3    H163703   2.201   1.914  15.140 -0.8482 -0.5142 -3.2145
14096TIP3    H263704   2.341   1.865  15.170 -1.4974  0.2409  1.9828
14097TIP3   OH263705   0.213   5.673  14.601 -0.3576  0.1479  0.5555
14097TIP3    H163706   0.251   5.745  14.550  0.5144  1.8458  3.3313
14097TIP3    H263707   0.134   5.648  14.553  1.0655  0.6330 -2.2536
14098TIP3   OH263708   6.443   1.703   3.820  0.3498  1.0094 -0.4406
14098TIP3    H163709   6.529   1.745   3.828 -0.3347  2.7446 -1.5467
14098TIP3    H263710   6.385   1.756   3.873  0.1851 -1.1690  1.7560
14099TIP3   OH263711   5.295   1.587  14.574 -0.3160  0.6269 -0.0363
14099TIP3    H163712   5.336   1.529  14.509 -1.3039 -0.2185  0.0717
14099TIP3    H263713   5.364   1.604  14.638  0.8907  2.0159 -1.6105
14100TIP3   OH263714   3.710   2.214   2.294 -0.3000  0.2536  0.4383
14100TIP3    H163715   3.700   2.305   2.321 -0.9342  0.2099  0.3605
14100TIP3    H263716   3.700   2.163   2.375 -2.8598  0.0801  0.0880
14101TIP3   OH263717   4.883   5.872   0.018  0.0525 -0.3662 -0.0686
14101TIP3    H163718   4.861   5.798   0.075  1.7045 -0.2824  0.7276
14101TIP3    H263719   4.832   5.857  -0.061 -1.0299 -1.3773  0.7842
14102TIP3   OH263720   4.258   5.540   2.781  0.3891  0.4302 -0.2379
14102TIP3    H163721   4.320   5.469   2.798 -1.4169 -1.4557 -1.1512
14102TIP3    H263722   4.199   5.505   2.715 -1.0897  2.4993 -0.0943
14103TIP3   OH263723   2.698   0.259  13.651 -0.1028 -0.2396 -0.0751
14103TIP3    H163724   2.686   0.171  13.687 -2.2175 -0.8556 -2.0696
14103TIP3    H263725   2.624   0.309  13.684  0.3070  0.3981 -0.1016
14104TIP3   OH263726   3.812   2.585   2.920 -0.0017 -0.2433  0.2399
14104TIP3    H163727   3.804   2.552   2.831  1.5548 -0.7806  0.2666
14104TIP3    H263728   3.798   2.679   2.912 -0.8308 -0.4101 -0.4132
14105TIP3   OH263729   5.558   0.481   4.459 -0.9807 -0.5361 -0.8216
14105TIP3    H163730   5.609   0.553   4.422  0.1771 -0.7738  0.2469
14105TIP3    H263731   5.616   0.442   4.526 -2.2537 -1.3279 -0.1397
14106TIP3   OH263732   2.132   2.611   0.156 -0.1841  0.3576  0.0424
14106TIP3    H163733   2.147   2.532   0.207  3.5436  0.7799 -0.1176
14106TIP3    H263734   2.135   2.582   0.065 -1.0929  0.4344 -0.0291
14107TIP3   OH263735   4.257   6.119   1.885  0.3600 -0.4207  0.9997
14107TIP3    H163736   4.255   6.213   1.903 -1.2328 -0.4463  1.1079
14107TIP3    H263737   4.207   6.080   1.958 -0.9093 -1.1166 -0.2012
14108TIP3   OH263738   4.621   6.173  11.734 -0.1225 -0.6192  0.0020
14108TIP3    H163739   4.553   6.122  11.778 -0.1611  0.7107  1.6008
14108TIP3    H263740   4.657   6.229  11.803  1.2726  0.0752 -1.2402
14109TIP3   OH263741   3.769   0.911  13.351  0.3048 -0.1967 -0.2615
14109TIP3    H163742   3.715   0.850  13.300  0.3849 -0.2946 -0.2306
14109TIP3    H263743   3.711   0.984  13.372 -0.2617 -1.0010  1.0949
14110TIP3   OH263744   2.377   1.316   3.711  0.0770  0.2052  0.0850
14110TIP3    H163745   2.376   1.314   3.806 -1.1731  0.5569  0.1060
14110TIP3    H263746   2.465   1.344   3.688  0.8061 -1.1917  1.0918
14111TIP3   OH263747   6.444   3.427   2.991 -0.5327 -0.6035  0.4485
14111TIP3    H163748   6.499   3.468   3.058 -3.3048  0.6031  2.1697
14111TIP3    H263749   6.451   3.484   2.916 -1.9821  1.4719  1.8008
14112TIP3   OH263750   3.292   5.421   2.172 -0.4037  0.1730  0.5334
14112TIP3    H163751   3.325   5.509   2.153  3.4642 -1.4435 -1.4047
14112TIP3    H263752   3.241   5.397   2.094  0.3573 -0.0262  0.0865
14113TIP3   OH263753   5.724   0.721  10.876  0.2473 -0.6584  0.0632
14113TIP3    H163754   5.693   0.688  10.792 -0.0658 -2.1178  0.7040
14113TIP3    H263755   5.796   0.779  10.854  0.1128 -0.9376 -1.2164
14114TIP3   OH263756   2.938   2.402   0.023  0.3960  0.4548  0.3787
14114TIP3    H163757   3.016   2.452   0.000 -0.1334  0.7955 -0.7602
14114TIP3    H263758   2.865   2.463   0.006 -0.3018 -0.8537 -1.6327
14115TIP3   OH263759   5.333   2.121  16.032 -0.0793 -0.1132 -0.1849
14115TIP3    H163760   5.247   2.084  16.055  0.4901 -1.1254  0.3564
14115TIP3    H263761   5.316   2.215  16.021 -1.2654 -0.3041 -0.1118
14116TIP3   OH263762   5.070   2.467  12.841 -0.1594 -0.5023 -1.1287
14116TIP3    H163763   5.000   2.407  12.817 -0.6025 -0.5083  0.0807
14116TIP3    H263764   5.146   2.439  12.790 -0.2647 -2.3163 -0.3530
14117TIP3   OH263765   2.073   5.421   3.728  0.3832 -0.0818  0.2462
14117TIP3    H163766   2.037   5.493   3.676 -0.5311  0.6641  1.8181
14117TIP3    H263767   2.125   5.465   3.796  1.5213 -1.0184  0.0205
14118TIP3   OH263768   6.647   6.724  15.795  0.0377 -0.1345  0.3796
14118TIP3    H163769   6.569   6.735  15.850  0.1743 -0.3907  0.6260
14118TIP3    H263770   6.674   6.633  15.809 -0.3691 -0.4446 -0.6895
14119TIP3   OH263771   4.188   1.024  10.463  0.6203  0.5885  0.0416
14119TIP3    H163772   4.277   0.989  10.454 -0.7091 -3.6278  1.0527
14119TIP3    H263773   4.192   1.079  10.541  2.2222 -0.1249  0.5105
14120TIP3   OH263774   4.664   4.586  13.558 -0.1210  0.6250  0.1652
14120TIP3    H163775   4.702   4.595  13.646 -3.4650 -1.8875  2.1310
14120TIP3    H263776   4.689   4.497  13.531 -0.8542  0.6033 -0.4641
14121TIP3   OH263777   2.433   0.511  11.297  0.3123 -0.2875 -0.1615
14121TIP3    H163778   2.355   0.464  11.266  0.0881 -1.0289  1.3999
14121TIP3    H263779   2.427   0.597  11.257 -1.6745 -0.1031  0.4218
14122TIP3   OH263780   4.519   5.523  11.376  0.3687 -0.1595  0.4136
14122TIP3    H163781   4.610   5.496  11.391  0.6901 -0.1276 -1.3248
14122TIP3    H263782   4.526   5.603  11.324 -0.5875 -2.2537 -3.2945
14123TIP3   OH263783   1.427   5.368  11.141  0.1510  0.1622  0.1182
14123TIP3    H163784   1.443   5.430  11.070  1.3682 -1.0268 -0.6991
14123TIP3    H263785   1.418   5.423  11.219  1.7475  1.3715 -0.4726
14124TIP3   OH263786   1.124   6.756  16.616 -0.6231  0.4308  0.3210
14124TIP3    H163787   1.141   6.821  16.684 -1.6762  0.2820  0.7552
14124TIP3    H263788   1.041   6.715  16.642 -0.6538 -0.1655 -0.6431
14125TIP3   OH263789   4.144   3.820   0.857 -0.2977  0.1159  0.5237
14125TIP3    H163790   4.194   3.740   0.836  0.0289  0.1565  1.1394
14125TIP3    H263791   4.075   3.822   0.791  1.2607  0.7364 -1.1700
14126TIP3   OH263792   3.522   2.276  15.790  0.2525 -0.0847  0.1212
14126TIP3    H163793   3.581   2.300  15.862  0.2777 -0.6655  0.3008
14126TIP3    H263794   3.552   2.328  15.716  0.7586 -0.1018  0.3105
14127TIP3   OH263795   0.891   4.092  15.643 -0.0152 -0.2879  0.4722
14127TIP3    H163796   0.923   4.167  15.593 -0.0213  0.0670  0.9934
14127TIP3    H263797   0.810   4.124  15.684 -0.8063 -1.0297 -0.4736
14128TIP3   OH263798   6.643   4.506   3.735 -0.2896  0.3718 -0.3880
14128TIP3    H163799   6.710   4.457   3.687  1.3587  0.2384  1.9396
14128TIP3    H263800   6.600   4.440   3.789 -1.2022  0.7583 -0.6258
14129TIP3   OH263801   1.103   0.352   5.803  0.4257 -0.1867  0.0306
14129TIP3    H163802   1.089   0.385   5.714  0.3333 -0.7179 -0.1537
14129TIP3    H263803   1.087   0.258   5.797  0.0978 -0.1795  0.6818
14130TIP3   OH263804   0.820   5.633   2.123  0.5972  0.2131 -0.3709
14130TIP3    H163805   0.867   5.687   2.187  0.3823 -0.9848  0.8529
14130TIP3    H263806   0.876   5.557   2.109 -0.7149 -1.0364  0.7876
14131TIP3   OH263807   1.937   5.335   1.557  0.4110 -0.1711  0.0070
14131TIP3    H163808   1.992   5.333   1.479  0.9230  0.2010  0.3440
14131TIP3    H263809   1.983   5.277   1.619  0.0948 -0.3423  0.0809
14132TIP3   OH263810   3.227   2.750   4.270  0.1080  0.1508  0.4174
14132TIP3    H163811   3.217   2.826   4.328  1.5449 -0.2220  1.2137
14132TIP3    H263812   3.173   2.771   4.194 -0.4403  1.4465  1.1158
14133TIP3   OH263813   5.353   0.492   0.457 -0.4279 -0.2866  0.2531
14133TIP3    H163814   5.289   0.437   0.413 -0.2837 -1.4344  1.4151
14133TIP3    H263815   5.415   0.516   0.389 -1.3275 -0.3024 -0.5898
14134TIP3   OH263816   6.590   0.334  10.852 -0.2707 -0.1874  0.0423
14134TIP3    H163817   6.644   0.263  10.887 -0.5558  0.0665  1.0367
14134TIP3    H263818   6.533   0.292  10.788 -0.2447 -0.8119  0.4217
14135TIP3   OH263819   5.229   3.300  11.034  0.3123  0.4056  0.4121
14135TIP3    H163820   5.154   3.356  11.052  0.9222  1.6291 -0.7166
14135TIP3    H263821   5.191   3.218  11.002 -0.5476  0.6533  0.7798
14136TIP3   OH263822   2.629   0.073  12.706 -0.3410  0.6424 -0.1938
14136TIP3    H163823   2.586   0.032  12.781 -0.0817 -0.6344 -0.7191
14136TIP3    H263824   2.629   0.167  12.727 -0.1503  0.3053  1.4510
14137TIP3   OH263825   4.071   2.467  15.090 -0.0153  0.0043 -0.5280
14137TIP3    H163826   4.153   2.486  15.046  1.2731 -0.2228  1.6040
14137TIP3    H263827   4.005   2.520  15.045  1.3197  0.3286 -2.1673
14138TIP3   OH263828   5.994   0.005   0.436 -0.2502  0.1264  0.2712
14138TIP3    H163829   5.921   0.031   0.492  0.1791  0.5572  0.6360
14138TIP3    H263830   6.069   0.004   0.494  0.1286  0.1780 -0.2144
14139TIP3   OH263831   2.200   1.043   0.704 -0.0917  0.5013 -0.1653
14139TIP3    H163832   2.230   1.043   0.613 -0.8080  0.5917 -0.4108
14139TIP3    H263833   2.212   0.952   0.733  1.7138  0.8246  0.2018
14140TIP3   OH263834   3.762   2.093   2.906  0.4328  0.0191  0.2407
14140TIP3    H163835   3.708   2.164   2.871  0.7034 -0.4152 -1.0911
14140TIP3    H263836   3.836   2.087   2.846  2.5842  1.2787  2.5614
14141TIP3   OH263837   2.354   3.424  12.937  0.2566 -0.3584 -0.0638
14141TIP3    H163838   2.441   3.385  12.924  0.2540 -0.0058 -1.1545
14141TIP3    H263839   2.296   3.348  12.949  0.7916 -0.5893  1.3856
14142TIP3   OH263840   0.635   5.264   0.907 -0.3627 -0.6592  0.1254
14142TIP3    H163841   0.689   5.297   0.979 -0.3521 -0.8072  0.1861
14142TIP3    H263842   0.550   5.246   0.947 -0.6125  0.0438 -0.0736
14143TIP3   OH263843   4.377   5.798  12.973 -0.0324  0.1605  0.7065
14143TIP3    H163844   4.318   5.862  12.935 -2.4659 -1.2411  1.8466
14143TIP3    H263845   4.399   5.739  12.901 -0.8869  0.1417  0.4455
14144TIP3   OH263846   5.664   4.380  12.463 -0.2692 -0.0140  0.4864
14144TIP3    H163847   5.597   4.429  12.511 -0.2421  1.1497 -0.5936
14144TIP3    H263848   5.625   4.294  12.448 -0.4564 -0.2443  2.1405
14145TIP3   OH263849   3.873   3.015  12.770 -0.7229  0.1665  0.7849
14145TIP3    H163850   3.895   2.930  12.808  0.8128  0.0091 -0.3684
14145TIP3    H263851   3.937   3.027  12.700 -2.6962  0.9859 -0.9687
14146TIP3   OH263852   2.108   6.758  13.149 -0.2636  0.0952  0.0247
14146TIP3    H163853   2.123   6.755  13.243 -2.3034  0.7997  0.4336
14146TIP3    H263854   2.041   6.692  13.133 -0.5814  0.5931 -0.7744
14147TIP3   OH263855   6.545   0.319  11.131  0.1045  0.2098  0.1922
14147TIP3    H163856   6.547   0.227  11.103  0.9332  0.3570 -0.2403
14147TIP3    H263857   6.553   0.369  11.050  1.8804  0.6480  0.6104
14148TIP3   OH263858   4.369   6.102  14.324 -0.9803 -0.4836  0.0095
14148TIP3    H163859   4.444   6.158  14.344 -1.4023  0.0838  0.0416
14148TIP3    H263860   4.357   6.111  14.230 -1.4955  0.0593  0.1225
14149TIP3   OH263861   1.013   2.077  13.338  0.3619 -0.3739  0.1563
14149TIP3    H163862   1.091   2.129  13.355  0.8072 -0.6533 -0.9370
14149TIP3    H263863   1.013   2.011  13.406  2.9364 -2.4231 -1.6157
14150TIP3   OH263864   1.155   4.142   0.929 -0.5462  0.2447 -0.0376
14150TIP3    H163865   1.172   4.214   0.869 -1.1252 -0.0647 -0.5872
14150TIP3    H263866   1.203   4.068   0.893 -0.4104  0.2125  0.2111
14151TIP3   OH263867   3.990   4.202  12.908  0.1245  0.3286  0.3304
14151TIP3    H163868   3.967   4.171  12.996  2.1743  0.3960  0.9402
14151TIP3    H263869   4.029   4.125  12.866 -1.8964 -0.0538 -1.0100
14152TIP3   OH263870   2.446   5.424   3.720 -0.6428  0.5180  0.2182
14152TIP3    H163871   2.380   5.476   3.765  0.7959  0.7166  2.2612
14152TIP3    H263872   2.408   5.337   3.711 -1.3372  0.7391  0.9472
14153TIP3   OH263873   5.756   2.786  12.577 -0.0644  0.1113 -0.1048
14153TIP3    H163874   5.685   2.770  12.639 -0.9462 -0.4842 -1.2456
14153TIP3    H263875   5.728   2.863  12.527  1.2909  1.4946  1.1307
14154TIP3   OH263876   4.636   4.066   1.986  0.3214 -0.6272 -0.0362
14154TIP3    H163877   4.643   4.103   1.898  1.3897 -1.6597 -0.4180
14154TIP3    H263878   4.644   4.141   2.045  3.7717 -0.3009 -0.7282
14155TIP3   OH263879   5.496   1.642  11.215  0.4291 -0.4694  0.2365
14155TIP3    H163880   5.591   1.634  11.224  0.2431 -0.7428  2.5052
14155TIP3    H263881   5.469   1.560  11.175  1.2006 -0.0358 -1.2613
14156TIP3   OH263882   3.559   0.720  13.603 -0.5138 -0.1509 -0.0170
14156TIP3    H163883   3.510   0.781  13.548  0.3282  0.2925 -0.2986
14156TIP3    H263884   3.610   0.776  13.661  2.8336 -0.3466 -2.4399
14157TIP3   OH263885   2.056   0.794   1.178 -0.1794 -0.1504 -0.2032
14157TIP3    H163886   1.994   0.844   1.125 -0.5399 -1.5777 -1.1918
14157TIP3    H263887   2.003   0.761   1.251 -0.4643 -0.8780 -0.7279
14158TIP3   OH263888   2.352   4.038  16.564  0.1094 -0.1142 -0.6090
14158TIP3    H163889   2.272   4.081  16.595  0.2290  0.1036 -0.6007
14158TIP3    H263890   2.418   4.063  16.628  0.2250 -0.1497 -0.7145
14159TIP3   OH263891   1.676   3.467   1.892  0.1778  0.0071  0.3230
14159TIP3    H163892   1.600   3.438   1.843 -0.2300  1.3020  0.1444
14159TIP3    H263893   1.744   3.403   1.872 -0.8212 -1.0925  0.3870
14160TIP3   OH263894   2.022   6.333  13.814 -0.5613 -0.1190 -0.4467
14160TIP3    H163895   1.972   6.387  13.752  0.5584  0.8366 -0.5647
14160TIP3    H263896   2.078   6.278  13.759  2.7265  2.8732 -0.4805
14161TIP3   OH263897   0.221   1.614   3.862 -0.5912 -0.1789  0.3904
14161TIP3    H163898   0.168   1.535   3.854 -2.0064  0.9423 -3.1486
14161TIP3    H263899   0.163   1.685   3.834  1.7326  1.5953 -0.2103
14162TIP3   OH263900   1.790   4.960   4.871  0.1437 -0.5658 -0.5776
14162TIP3    H163901   1.733   4.889   4.902 -0.0542  1.1604  3.7094
14162TIP3    H263902   1.871   4.949   4.922  1.5453  0.2388 -2.5214
14163TIP3   OH263903   4.003   0.847   5.306 -0.2051 -0.0833 -0.5654
14163TIP3    H163904   3.923   0.841   5.358 -1.0071  2.8734 -1.2467
14163TIP3    H263905   4.072   0.866   5.370 -1.0537  2.7052 -0.3146
14164TIP3   OH263906   6.579   6.647  16.550 -0.5024 -0.8780  0.0803
14164TIP3    H163907   6.574   6.581  16.480  0.8978  0.0370 -0.9460
14164TIP3    H263908   6.670   6.643  16.580 -0.8734 -0.6591  1.2713
14165TIP3   OH263909   0.503   4.763  15.488  0.1768  0.0203  0.1176
14165TIP3    H163910   0.494   4.734  15.397 -1.5101  1.1741 -0.1338
14165TIP3    H263911   0.474   4.688  15.540 -2.3851  0.5053 -0.4649
14166TIP3   OH263912   6.523   4.758   3.185 -0.3682  0.6249  0.8638
14166TIP3    H163913   6.442   4.730   3.140 -1.2398  0.9539  2.1889
14166TIP3    H263914   6.544   4.842   3.144 -0.1517  0.1074 -0.1371
14167TIP3   OH263915   4.091   6.203   3.422 -0.8189 -0.0419 -0.5403
14167TIP3    H163916   4.100   6.297   3.439 -1.0736 -0.0745 -0.2096
14167TIP3    H263917   4.178   6.175   3.393 -0.9022  0.4229 -1.2753
14168TIP3   OH263918   3.357   2.854   3.931  0.3439 -0.0246 -0.1851
14168TIP3    H163919   3.407   2.931   3.956  1.2389 -0.4869 -0.5009
14168TIP3    H263920   3.271   2.888   3.906  1.0789  1.0089 -1.4170
14169TIP3   OH263921   4.141   4.636   2.408 -0.4280 -0.5721  0.1200
14169TIP3    H163922   4.121   4.728   2.387  1.2096  0.3715  2.2765
14169TIP3    H263923   4.069   4.608   2.464 -0.5578 -0.3434  0.0680
14170TIP3   OH263924   6.224   1.986  11.067  0.1530  0.3893  0.8117
14170TIP3    H163925   6.197   2.076  11.047 -2.0849 -0.3266  0.2556
14170TIP3    H263926   6.180   1.933  11.000 -1.7719 -1.4696  3.3404
14171TIP3   OH263927   4.292   4.137  16.464  0.1232  0.3526  0.3343
14171TIP3    H163928   4.256   4.219  16.430  0.6012  0.1942 -0.5919
14171TIP3    H263929   4.364   4.117  16.405  0.3663 -0.4513  0.8893
14172TIP3   OH263930   5.654   0.402  12.660  0.5696  0.3890  0.4689
14172TIP3    H163931   5.623   0.352  12.736 -1.8602  2.1667  0.7747
14172TIP3    H263932   5.580   0.399  12.599  2.0189  0.0395 -1.3635
14173TIP3   OH263933   0.486   5.863   4.686  0.2901  0.1194  0.7698
14173TIP3    H163934   0.537   5.789   4.720 -0.0219  0.6032  2.3732
14173TIP3    H263935   0.542   5.939   4.701 -0.6346  0.5780  2.0029
14174TIP3   OH263936   4.900   3.302  15.233 -0.1810  0.2332  0.0883
14174TIP3    H163937   4.842   3.261  15.170  1.1514 -1.3302 -0.1866
14174TIP3    H263938   4.925   3.385  15.192  0.3010 -0.5474 -1.2602
14175TIP3   OH263939   2.726   6.475  14.971  0.4940  0.1007  0.2208
14175TIP3    H163940   2.820   6.471  14.952  0.4540 -0.0090  0.0398
14175TIP3    H263941   2.685   6.497  14.887  0.4571  1.3917  0.5557
14176TIP3   OH263942   6.014   0.524   3.634  0.2992 -0.1487 -0.0749
14176TIP3    H163943   6.004   0.429   3.642 -1.6446  0.1136  1.4914
14176TIP3    H263944   6.073   0.548   3.705 -1.1710  0.0441  1.1181
14177TIP3   OH263945   2.664   6.561  12.370  0.2473 -0.3667 -0.1910
14177TIP3    H163946   2.570   6.551  12.388  0.1737  0.1606 -0.2680
14177TIP3    H263947   2.700   6.597  12.451 -0.1020  2.1126 -1.0570
14178TIP3   OH263948   1.429   5.937  10.520  0.2354 -0.4445  0.0014
14178TIP3    H163949   1.402   5.995  10.449 -0.5359 -1.0899 -0.2325
14178TIP3    H263950   1.494   5.879  10.481  1.3181  0.5096  0.3378
14179TIP3   OH263951   1.237   5.843   0.163 -0.1853  0.1915  0.4067
14179TIP3    H163952   1.222   5.775   0.098  1.0535 -1.7377  2.0403
14179TIP3    H263953   1.288   5.910   0.118  1.5264 -1.5734 -0.3738
14180TIP3   OH263954   0.829   4.156  16.655  0.0410 -0.4540  0.1086
14180TIP3    H163955   0.742   4.195  16.662  0.3047 -0.0159  1.1611
14180TIP3    H263956   0.855   4.173  16.564 -0.5258  0.3831  0.0839
14181TIP3   OH263957   6.157   1.957  11.335  0.0056  0.0152  0.1531
14181TIP3    H163958   6.214   1.973  11.260 -0.1516 -1.4045 -0.2987
14181TIP3    H263959   6.069   1.974  11.303 -0.0584 -0.5539  0.0175
14182TIP3   OH263960   2.932   1.816   0.025  0.0718 -0.0082 -0.9169
14182TIP3    H163961   2.963   1.902   0.055 -0.3058  0.3217 -1.4540
14182TIP3    H263962   2.910   1.769   0.106  0.9579  0.1292 -0.5762
14183TIP3   OH263963   2.224   5.298   4.686  0.4657  0.0063 -0.2840
14183TIP3    H163964   2.153   5.337   4.737 -0.2606 -1.1128 -0.4108
14183TIP3    H263965   2.245   5.365   4.620 -1.2271 -0.0592 -0.9442
14184TIP3   OH263966   0.061   1.731   4.359  0.5377 -0.5460  0.2838
14184TIP3    H163967   0.151   1.744   4.390  0.5614 -0.2981  0.1090
14184TIP3    H263968   0.062   1.762   4.269  0.6499 -1.9357 -0.2146
14185TIP3   OH263969   1.262   3.125  14.700 -0.0982 -0.5122  1.0759
14185TIP3    H163970   1.214   3.056  14.655  0.0346  0.5451 -0.7682
14185TIP3    H263971   1.317   3.164  14.633  1.9000 -0.3822  2.6881
14186TIP3   OH263972   1.010   5.606   2.523  0.3101 -0.3321 -0.5694
14186TIP3    H163973   1.089   5.588   2.573 -0.1291 -0.8099 -0.0251
14186TIP3    H263974   1.003   5.532   2.463 -0.8978 -1.4881  0.9067
14187TIP3   OH263975   4.005   3.450  12.436  0.2664 -0.0767 -0.3527
14187TIP3    H163976   3.917   3.450  12.472 -0.2185 -1.0523 -1.4881
14187TIP3    H263977   4.057   3.400  12.499  0.3720  1.6839  1.0521
14188TIP3   OH263978   3.526   3.184   1.352  0.0259  0.0962  0.4081
14188TIP3    H163979   3.567   3.255   1.402 -0.7173  1.5440 -0.9312
14188TIP3    H263980   3.441   3.219   1.325  0.7403 -0.1612 -2.6400
14189TIP3   OH263981   0.643   0.056  13.504 -0.1784 -0.1476  0.5790
14189TIP3    H163982   0.636   0.021  13.415 -0.9028 -1.5265  1.1595
14189TIP3    H263983   0.652   0.151  13.491 -2.4316 -0.0634 -0.9039
14190TIP3   OH263984   4.980   3.585  13.109 -0.4922  0.3879 -0.5313
14190TIP3    H163985   5.071   3.577  13.082  0.8970  0.9144  3.4042
14190TIP3    H263986   4.934   3.614  13.030  2.7416  0.3676 -2.5907
14191TIP3   OH263987   1.211   3.837  12.345  0.0791 -0.0932 -0.2623
14191TIP3    H163988   1.197   3.824  12.252  0.1153  2.9515 -0.7931
14191TIP3    H263989   1.268   3.765  12.372  0.6056 -0.6599 -2.7189
14192TIP3   OH263990   5.406   1.995  14.419 -0.0896 -0.2845 -0.0749
14192TIP3    H163991   5.448   2.077  14.393  1.5545 -0.5206  1.6007
14192TIP3    H263992   5.326   2.023  14.464 -0.0199  0.3441 -0.3305
14193TIP3   OH263993   3.521   5.375  15.893  0.3729 -0.4476 -0.4216
14193TIP3    H163994   3.442   5.382  15.946  0.6682 -1.5224  0.1935
14193TIP3    H263995   3.496   5.410  15.808 -1.3735 -2.5178 -0.8541
14194TIP3   OH263996   1.023   4.037   2.607 -0.1825 -0.0753 -0.2250
14194TIP3    H163997   1.078   4.115   2.609  0.0998 -0.2523 -0.8919
14194TIP3    H263998   1.017   4.009   2.699 -2.1249  1.9907  0.3850
14195TIP3   OH263999   1.238   4.445   5.331  0.4932 -0.4291 -0.5126
14195TIP3    H164000   1.193   4.473   5.251  0.4260  0.3330 -0.2210
14195TIP3    H264001   1.199   4.360   5.352 -0.5267  0.0163 -0.5037
14196TIP3   OH264002   0.418   2.721  11.533 -0.0222  0.0085  0.0061
14196TIP3    H164003   0.383   2.810  11.543  1.6633  0.6065  1.1302
14196TIP3    H264004   0.507   2.734  11.499  0.1157 -1.2695 -0.1764
14197TIP3   OH264005   2.639   1.005   3.000 -0.0451  0.2962  0.3518
14197TIP3    H164006   2.552   0.977   2.970  0.9562 -1.3292 -1.2759
14197TIP3    H264007   2.662   0.943   3.069  0.4072 -0.2683 -0.2825
14198TIP3   OH264008   5.232   5.634   6.384  0.3158 -0.3718 -0.3436
14198TIP3    H164009   5.302   5.644   6.319  1.1021  0.1142  0.5600
14198TIP3    H264010   5.246   5.547   6.420  0.7798 -0.0734  0.2042
14199TIP3   OH264011   0.077   3.150  14.604  0.1787  0.0420  0.4137
14199TIP3    H164012   0.141   3.145  14.532 -2.2504  1.4240 -2.0355
14199TIP3    H264013   0.083   3.065  14.648  0.6091 -1.5835 -2.5213
14200TIP3   OH264014   5.794   1.901  11.330 -0.1841 -0.7065 -0.3256
14200TIP3    H164015   5.775   1.993  11.314  0.1794 -0.2846  1.4507
14200TIP3    H264016   5.723   1.870  11.386 -0.6999 -1.7275 -1.5017
14201TIP3   OH264017   4.590   4.510   0.018  0.2006 -0.1600 -0.4117
14201TIP3    H164018   4.585   4.438  -0.045 -2.1531 -0.5979  0.2055
14201TIP3    H264019   4.625   4.470   0.098  0.6886 -0.1759 -0.6269
14202TIP3   OH264020   3.533   1.923  12.420  0.3563 -0.1929 -0.0304
14202TIP3    H164021   3.478   1.874  12.359  0.9257 -1.6696  0.5950
14202TIP3    H264022   3.622   1.898  12.397  0.6481  0.3844  0.4552
14203TIP3   OH264023   2.865   6.451   1.810  0.7954 -0.6582  0.2808
14203TIP3    H164024   2.826   6.373   1.849  1.8449 -1.3315  0.0287
14203TIP3    H264025   2.802   6.477   1.742  1.0989 -2.1793 -0.6485
14204TIP3   OH264026   1.735   1.758  10.325 -0.2122  0.2773 -0.9886
14204TIP3    H164027   1.793   1.830  10.348  0.1322  0.0786 -1.2254
14204TIP3    H264028   1.647   1.793  10.338 -0.0453  0.6957 -0.9699
14205TIP3   OH264029   5.279   5.296   4.667 -0.8973 -0.6935 -0.1325
14205TIP3    H164030   5.311   5.357   4.733  1.2457 -0.3853 -1.3628
14205TIP3    H264031   5.236   5.351   4.601 -0.7779 -0.7301 -0.2413
14206TIP3   OH264032   2.845   4.829   1.688 -0.6908 -0.2391  0.2740
14206TIP3    H164033   2.754   4.822   1.716 -0.1480 -1.1049  1.9764
14206TIP3    H264034   2.841   4.836   1.593 -2.6867  3.4072  0.4622
14207TIP3   OH264035   1.281   4.377   1.026  0.4623  0.0932  0.2394
14207TIP3    H164036   1.209   4.313   1.032 -0.1028  0.6676 -0.3219
14207TIP3    H264037   1.296   4.388   0.932  0.8270  0.4893  0.3419
14208TIP3   OH264038   6.508   5.845   4.623  0.1623 -0.2880  0.5055
14208TIP3    H164039   6.590   5.891   4.641  0.5726 -1.3753  1.5638
14208TIP3    H264040   6.519   5.811   4.534  0.5096  0.2811  0.3233
14209TIP3   OH264041   0.574   4.162  13.639 -0.0821  0.0493  0.4606
14209TIP3    H164042   0.493   4.210  13.658 -0.3947 -0.6132  0.8694
14209TIP3    H264043   0.552   4.070  13.658  0.8396 -0.1082  0.8331
14210TIP3   OH264044   6.579   3.439  10.620 -0.0754 -0.2105  0.4026
14210TIP3    H164045   6.538   3.525  10.624  0.3733  0.0343 -0.1237
14210TIP3    H264046   6.548   3.400  10.538 -0.1161 -0.4691  0.5372
14211TIP3   OH264047   2.916   2.950   0.844 -0.2790 -0.0228  0.0626
14211TIP3    H164048   2.958   2.945   0.930  3.2467  0.0081 -1.5035
14211TIP3    H264049   2.912   2.859   0.814 -0.5407  0.0714 -0.1931
14212TIP3   OH264050   1.209   0.645  13.865 -0.2579  0.5437  0.1395
14212TIP3    H164051   1.183   0.737  13.853  0.2185  0.5026 -1.3352
14212TIP3    H264052   1.127   0.596  13.855 -0.2193  0.6809 -0.9824
14213TIP3   OH264053   6.809   6.823  14.891 -0.2030  0.6256  0.0039
14213TIP3    H164054   6.884   6.764  14.906 -0.4065 -0.0054 -1.3482
14213TIP3    H264055   6.734   6.775  14.927 -0.2814  0.2911 -0.5920
14214TIP3   OH264056   0.225   4.167   1.324  0.3169 -0.1224  0.2197
14214TIP3    H164057   0.262   4.246   1.363  0.4394  0.2941 -0.7327
14214TIP3    H264058   0.191   4.195   1.239 -2.7792 -0.3256  1.2586
14215TIP3   OH264059   3.700   4.865  15.464  0.0853  0.5178 -0.2461
14215TIP3    H164060   3.604   4.863  15.460  0.1187  0.5438 -1.6006
14215TIP3    H264061   3.721   4.946  15.511 -0.5478  0.8969 -0.6097
14216TIP3   OH264062   2.565   4.562   2.019 -0.3113 -0.0804 -0.2982
14216TIP3    H164063   2.657   4.548   2.000 -0.7459 -2.0101 -1.2185
14216TIP3    H264064   2.519   4.511   1.952 -2.0236 -1.1620  1.6020
14217TIP3   OH264065   6.191   6.230   3.966  0.3468  0.1954 -0.2325
14217TIP3    H164066   6.125   6.163   3.983  1.4339 -1.4348 -2.0613
14217TIP3    H264067   6.144   6.300   3.921 -0.4339 -0.2387 -0.1038
14218TIP3   OH264068   1.798   0.250  16.353 -0.2788  0.1520 -0.7053
14218TIP3    H164069   1.832   0.244  16.264  1.8688  0.3168  0.0612
14218TIP3    H264070   1.875   0.264  16.408 -1.7399  2.3122  0.9641
14219TIP3   OH264071   3.290   5.790  13.322 -0.1184  0.6511  0.0788
14219TIP3    H164072   3.213   5.732  13.317  1.4396 -1.5353 -0.1244
14219TIP3    H264073   3.342   5.754  13.394  1.8646  0.5017 -1.3331
14220TIP3   OH264074   4.229   0.666  10.267  0.0341 -0.0466 -0.5102
14220TIP3    H164075   4.286   0.735  10.302  0.1506  0.4034 -1.5488
14220TIP3    H264076   4.269   0.642  10.184  0.1603 -1.5990 -0.0442
14221TIP3   OH264077   1.031   6.609   1.720 -0.1158 -0.1199  0.4947
14221TIP3    H164078   1.044   6.533   1.778  1.4934  0.9390  1.5960
14221TIP3    H264079   1.118   6.626   1.684 -0.7193  0.4615 -0.7233
14222TIP3   OH264080   0.039   5.602  10.615  0.3098  0.3443  0.0776
14222TIP3    H164081   0.083   5.673  10.661  0.9188 -1.0558  1.7494
14222TIP3    H264082  -0.046   5.639  10.589  0.5849  1.6520  0.9547
14223TIP3   OH264083   4.209   5.429   5.602  0.1036 -0.6558  0.1214
14223TIP3    H164084   4.281   5.391   5.653 -0.0348 -0.9728  0.0831
14223TIP3    H264085   4.170   5.354   5.557  0.8194 -0.2731 -1.1959
14224TIP3   OH264086   3.910   0.426   2.778  0.6858  0.2067  0.2485
14224TIP3    H164087   3.912   0.504   2.834  0.5766  0.4190 -0.0357
14224TIP3    H264088   3.995   0.426   2.734 -0.0082  1.2506 -1.1853
14225TIP3   OH264089   4.572   0.298  10.051 -1.0064 -0.1830  0.2015
14225TIP3    H164090   4.605   0.362  10.115 -0.6085 -1.2911  1.1412
14225TIP3    H264091   4.477   0.305  10.058 -0.9674 -0.3639  1.0047
14226TIP3   OH264092   3.517   1.809   3.600 -0.0987  0.4580  0.1228
14226TIP3    H164093   3.545   1.737   3.543 -1.2508 -1.0520  1.3630
14226TIP3    H264094   3.424   1.820   3.580 -0.3495  0.3783  1.1857
14227TIP3   OH264095   4.990   1.784   1.312 -0.5503  0.3977  0.4228
14227TIP3    H164096   4.952   1.720   1.372 -0.5143  0.6574  0.7231
14227TIP3    H264097   5.029   1.850   1.369 -1.1850  1.0448  0.1220
14228TIP3   OH264098   2.706   6.534   1.599  0.1013 -0.1560  0.0834
14228TIP3    H164099   2.631   6.478   1.620  1.3468 -1.2239  1.8940
14228TIP3    H264100   2.669   6.622   1.594 -1.2050 -0.5876  1.4760
14229TIP3   OH264101   6.123   4.683  16.028  0.7860 -0.5685  0.1514
14229TIP3    H164102   6.155   4.738  16.099  0.8258 -1.0489  0.5051
14229TIP3    H264103   6.172   4.713  15.951  0.3116  0.3660  0.1888
14230TIP3   OH264104   2.526   3.987  10.650  0.1829  0.7219 -0.1130
14230TIP3    H164105   2.449   3.958  10.600  0.3822  0.8541 -0.5056
14230TIP3    H264106   2.503   4.074  10.681  0.2832  0.8829 -0.4810
14231TIP3   OH264107   2.876   3.350  11.510 -0.2244 -0.4120  0.3516
14231TIP3    H164108   2.891   3.261  11.476  1.2245  0.2790 -0.9544
14231TIP3    H264109   2.814   3.389  11.449  0.1094 -0.1213  0.1958
14232TIP3   OH264110   4.529   3.632   4.973 -0.6265 -0.1611  0.2436
14232TIP3    H164111   4.552   3.710   5.024  1.7381 -1.1855  0.8758
14232TIP3    H264112   4.461   3.589   5.025  0.6316 -0.3676  1.8130
14233TIP3   OH264113   6.033   6.070   0.341 -0.3709  0.1673  0.8855
14233TIP3    H164114   6.091   6.128   0.293  0.1978 -1.1233 -0.0559
14233TIP3    H264115   5.945   6.093   0.310 -0.0512 -0.3081 -0.4593
14234TIP3   OH264116   6.690   3.542   0.080 -0.4067  0.3403  0.3975
14234TIP3    H164117   6.680   3.621   0.028  0.4272  0.7911  0.8955
14234TIP3    H264118   6.736   3.571   0.159  1.5816 -0.9287 -0.2289
14235TIP3   OH264119   5.518   6.071   0.809  0.3121  0.1299 -0.4027
14235TIP3    H164120   5.525   5.981   0.775 -0.3344 -0.6960  1.4778
14235TIP3    H264121   5.592   6.079   0.869 -1.2171 -0.2272  1.6373
14236TIP3   OH264122   3.676   0.218  10.937  1.0165  0.3618  0.2817
14236TIP3    H164123   3.698   0.131  10.970  2.4897  0.2099 -0.9896
14236TIP3    H264124   3.748   0.274  10.966  0.4743  0.9964  0.4271
14237TIP3   OH264125   4.619   5.818   5.385  0.2339  0.0903 -0.0175
14237TIP3    H164126   4.632   5.836   5.479 -1.2400  1.1763  0.0149
14237TIP3    H264127   4.525   5.801   5.377  0.1947  0.8315 -1.4274
14238TIP3   OH264128   3.855   0.695   5.114  0.2602 -0.6561 -0.7438
14238TIP3    H164129   3.942   0.731   5.134  0.3279 -1.4553  0.5192
14238TIP3    H264130   3.794   0.763   5.143  0.4297 -0.8349  0.0641
14239TIP3   OH264131   0.215   2.427  13.141  0.3988  0.5809  0.1026
14239TIP3    H164132   0.296   2.376  13.149  0.9693  1.4414 -0.0849
14239TIP3    H264133   0.170   2.412  13.224 -0.6885 -2.2620 -0.8643
14240TIP3   OH264134   3.107   4.360   2.811 -0.1164  0.0411  0.7466
14240TIP3    H164135   3.120   4.420   2.884  1.0958 -0.8623  1.3058
14240TIP3    H264136   3.177   4.382   2.749  0.0884 -0.5125  0.7747
14241TIP3   OH264137   4.915   3.274  13.194 -0.0354  0.5654  0.3167
14241TIP3    H164138   4.941   3.274  13.102 -0.5778 -1.7355  0.1008
14241TIP3    H264139   4.843   3.336  13.199 -0.5323  0.1258 -1.0023
14242TIP3   OH264140   4.903   5.061  16.568  0.1413  0.2013 -0.4556
14242TIP3    H164141   4.816   5.094  16.592  0.6467  0.4787  1.1795
14242TIP3    H264142   4.891   4.967  16.558 -0.8800  0.5447 -3.0091
14243TIP3   OH264143   4.055   2.835   4.463  0.0959  0.4728 -0.2687
14243TIP3    H164144   4.067   2.842   4.557  0.4536  0.0898 -0.2824
14243TIP3    H264145   4.137   2.797   4.431  0.2481  1.2361 -0.8158
14244TIP3   OH264146   3.607   1.617  13.264  0.1037  0.4769  0.7319
14244TIP3    H164147   3.603   1.543  13.203 -0.2388  1.1895 -0.1328
14244TIP3    H264148   3.562   1.586  13.342 -0.0410 -0.2208  0.3807
14245TIP3   OH264149   0.691   4.250  13.410 -0.0645  0.1652 -0.1646
14245TIP3    H164150   0.662   4.190  13.341  0.8953 -0.3378 -0.1424
14245TIP3    H264151   0.643   4.221  13.488  1.0757 -1.1826  0.0652
14246TIP3   OH264152   4.916   1.893  12.658 -0.1628  0.1051 -0.5634
14246TIP3    H164153   4.859   1.881  12.582  1.5898 -0.8498 -1.7982
14246TIP3    H264154   4.923   1.806  12.698 -1.1829  0.6256  0.8113
14247TIP3   OH264155   6.204   2.610  11.798  0.2620 -0.8424  0.0228
14247TIP3    H164156   6.251   2.650  11.871  0.6419  2.4722 -1.8369
14247TIP3    H264157   6.112   2.614  11.823  0.1813  2.3078 -0.4336
14248TIP3   OH264158   5.967   1.793   4.678  0.5933 -0.3051  0.5601
14248TIP3    H164159   6.056   1.782   4.710 -0.7088 -2.2940  4.2563
14248TIP3    H264160   5.951   1.716   4.623  0.7241 -0.8900  1.3115
14249TIP3   OH264161   2.550   6.478   3.979  0.2592  0.4131 -0.1690
14249TIP3    H164162   2.602   6.401   4.004  0.5843  0.1905 -1.4771
14249TIP3    H264163   2.461   6.444   3.971 -0.2113  0.8394  2.2969
14250TIP3   OH264164   6.733   3.671   4.492 -0.8356 -0.0538 -0.6880
14250TIP3    H164165   6.817   3.702   4.457 -0.6535 -1.0658 -1.1818
14250TIP3    H264166   6.675   3.747   4.486  0.0290  0.6601 -0.3588
14251TIP3   OH264167   2.705   3.169   5.893  0.3270  0.3555  0.3865
14251TIP3    H164168   2.676   3.207   5.977 -1.1631 -1.6445  0.8503
14251TIP3    H264169   2.645   3.096   5.878  2.4879 -1.2596 -0.9083
14252TIP3   OH264170   6.573   4.200   6.042  0.0129 -0.3874  0.7176
14252TIP3    H164171   6.546   4.223   6.131  1.6987  0.5002  1.0398
14252TIP3    H264172   6.519   4.255   5.985 -2.4352 -2.2724  0.9949
14253TIP3   OH264173   2.194   0.970  13.193  0.3960  0.3984  0.1515
14253TIP3    H164174   2.103   0.995  13.201 -0.4096 -1.1525 -2.7567
14253TIP3    H264175   2.193   0.874  13.200  1.6492  0.2946 -0.6658
14254TIP3   OH264176   0.161   4.249   1.059 -0.2783  0.1030  0.0044
14254TIP3    H164177   0.133   4.226   0.970 -0.1134 -0.0221 -0.0162
14254TIP3    H264178   0.101   4.319   1.086 -0.0120  0.4853 -0.3914
14255TIP3   OH264179   2.077   3.982   5.226  0.4259  0.2340  0.3816
14255TIP3    H164180   2.098   4.040   5.299  0.1754 -0.1352  0.7517
14255TIP3    H264181   2.004   3.929   5.258  1.7423 -1.4674  0.6724
14256TIP3   OH264182   0.189   4.450  15.393  0.2707  0.2716  0.5433
14256TIP3    H164183   0.269   4.435  15.342  0.7047  0.7608  1.0736
14256TIP3    H264184   0.142   4.366  15.389  1.5375 -0.5167  1.4900
14257TIP3   OH264185   2.030   0.316  14.699  0.2610 -0.7071 -0.0491
14257TIP3    H164186   2.023   0.336  14.606  0.4430  0.6960  0.2231
14257TIP3    H264187   2.091   0.243  14.703  1.1105 -0.0733 -0.9586
14258TIP3   OH264188   4.253   0.769   0.141 -0.0140  0.3058  0.3719
14258TIP3    H164189   4.217   0.712   0.209 -1.1329  1.3125  0.6594
14258TIP3    H264190   4.197   0.846   0.142  1.0598  1.1314 -0.4654
14259TIP3   OH264191   6.803   0.398   5.189 -0.5589  0.1285 -0.1026
14259TIP3    H164192   6.786   0.351   5.271 -1.7396 -1.1204 -1.0237
14259TIP3    H264193   6.877   0.455   5.210  0.1010 -1.1977  1.4360
14260TIP3   OH264194   4.712   5.879   2.330 -0.1630  0.0557  0.5167
14260TIP3    H164195   4.657   5.806   2.303  1.0083 -0.8623  0.5052
14260TIP3    H264196   4.708   5.941   2.257 -0.9783 -0.0933  0.4225
14261TIP3   OH264197   6.642   0.774  16.819  0.3746 -0.5609 -0.0794
14261TIP3    H164198   6.692   0.748  16.741  0.0252 -0.7035 -0.2564
14261TIP3    H264199   6.564   0.719  16.817  1.9080 -3.1327  2.2070
14262TIP3   OH264200   4.865   6.168   4.185 -0.5381 -0.3572 -0.4364
14262TIP3    H164201   4.850   6.237   4.249 -1.1354 -0.1897 -0.7568
14262TIP3    H264202   4.930   6.111   4.226 -0.6456 -0.0488  0.1635
14263TIP3   OH264203   1.681   1.653  14.489  0.4799  0.5607  0.1486
14263TIP3    H164204   1.767   1.695  14.498  1.0694 -0.4179 -0.7255
14263TIP3    H264205   1.674   1.596  14.566  1.1376 -0.2488 -0.3805
14264TIP3   OH264206   3.976   5.218  16.609 -0.1323 -0.0646  0.0780
14264TIP3    H164207   3.972   5.191  16.701 -0.7473  0.8130  0.3261
14264TIP3    H264208   4.064   5.255  16.599 -0.5194  1.1137  0.7159
14265TIP3   OH264209   4.468   6.754  12.011  0.1523  0.3303  0.2651
14265TIP3    H164210   4.445   6.803  12.090 -1.9459 -1.4367  0.8755
14265TIP3    H264211   4.397   6.770  11.950  0.1831 -0.7146 -0.0797
14266TIP3   OH264212   6.472   3.785  12.812  0.1944 -0.0927 -0.4763
14266TIP3    H164213   6.398   3.729  12.789  0.7361 -0.3606 -1.6584
14266TIP3    H264214   6.432   3.869  12.837 -0.5131 -0.2246 -1.1167
14267TIP3   OH264215   3.888   2.588   5.711  0.2764  0.4016  0.8277
14267TIP3    H164216   3.966   2.552   5.669 -0.0909 -0.4303  0.8523
14267TIP3    H264217   3.815   2.544   5.668 -0.4597  3.7964 -1.8618
14268TIP3   OH264218   2.135   1.684   0.550  0.1293 -0.1228  0.2296
14268TIP3    H164219   2.091   1.622   0.608 -0.2557  1.1588  1.3710
14268TIP3    H264220   2.159   1.757   0.608 -1.2453  1.7220 -1.4025
14269TIP3   OH264221   0.259   0.131  13.833 -1.1352 -0.3279  0.1277
14269TIP3    H164222   0.184   0.189  13.834 -0.8865  0.0112 -0.4399
14269TIP3    H264223   0.289   0.128  13.924  0.6038  2.7603 -0.2005
14270TIP3   OH264224   1.197   1.384  16.648  0.1848  0.2707  0.7960
14270TIP3    H164225   1.164   1.331  16.576  0.6667 -0.6658  1.2447
14270TIP3    H264226   1.177   1.333  16.727  2.3705 -0.1974  1.1073
14271TIP3   OH264227   6.409   6.791   0.376  0.2359 -0.3791 -0.6092
14271TIP3    H164228   6.441   6.722   0.434 -0.1139 -0.1482 -0.1394
14271TIP3    H264229   6.444   6.872   0.413  0.7366 -0.3063 -1.2200
14272TIP3   OH264230   3.701   0.383   0.034  0.4904  0.1423 -0.1891
14272TIP3    H164231   3.742   0.466   0.009 -0.2090  0.1504 -1.4532
14272TIP3    H264232   3.638   0.366  -0.037  0.7112 -1.5324 -0.0317
14273TIP3   OH264233   0.313   5.391  16.323 -0.5477 -0.3871 -0.1138
14273TIP3    H164234   0.275   5.349  16.400 -0.4557 -0.4754 -0.1183
14273TIP3    H264235   0.405   5.363  16.323 -0.6048 -0.5795 -0.3871
14274TIP3   OH264236   6.449   2.411   3.149 -0.0148 -0.3662  0.3322
14274TIP3    H164237   6.500   2.411   3.229 -0.8896  1.5078  0.9390
14274TIP3    H264238   6.379   2.348   3.165  0.8227 -1.3285  0.3174
14275TIP3   OH264239   0.464   2.835   0.287 -0.2752  0.4298 -0.1525
14275TIP3    H164240   0.453   2.756   0.233 -1.1721  0.4233  0.0231
14275TIP3    H264241   0.475   2.906   0.224 -0.3382  0.2842 -0.3280
14276TIP3   OH264242   2.698   3.740   1.306 -0.4309 -0.2051 -0.2164
14276TIP3    H164243   2.681   3.833   1.288  0.2364 -0.0839 -0.2644
14276TIP3    H264244   2.791   3.729   1.287 -0.7087 -1.1137 -1.1415
14277TIP3   OH264245   3.627   1.629   3.414 -0.0319  0.5149  0.0757
14277TIP3    H164246   3.642   1.627   3.320 -0.1630  0.4787  0.0550
14277TIP3    H264247   3.698   1.576   3.451  0.2198  0.8141  0.0243
14278TIP3   OH264248   1.405   1.261  15.337 -0.2330  0.0381  0.2322
14278TIP3    H164249   1.324   1.281  15.384  0.1953  1.2092  0.4920
14278TIP3    H264250   1.462   1.336  15.353  0.7288 -0.5431 -0.3613
14279TIP3   OH264251   2.551   5.247  12.086  0.3207 -0.5316 -0.1527
14279TIP3    H164252   2.526   5.270  12.175 -1.6339  1.0839 -1.0265
14279TIP3    H264253   2.642   5.274  12.079  0.1864  0.3222  1.0681
14280TIP3   OH264254   5.352   3.593   2.918  0.2170 -0.2377  0.0755
14280TIP3    H164255   5.328   3.642   2.997  2.3823 -0.9719  1.2707
14280TIP3    H264256   5.423   3.535   2.946  0.6838 -0.9309 -2.3007
14281TIP3   OH264257   0.234   0.883  16.801 -0.1759 -0.4893  0.0562
14281TIP3    H164258   0.328   0.899  16.804 -0.6181  2.3918  2.1157
14281TIP3    H264259   0.211   0.857  16.890 -1.5508  0.4232 -0.0066
14282TIP3   OH264260   5.599   3.329  12.046  0.2362  0.2162 -0.5079
14282TIP3    H164261   5.622   3.392  12.114  1.0294 -1.5142  0.8850
14282TIP3    H264262   5.656   3.352  11.972  1.8171  0.0472  0.6095
14283TIP3   OH264263   5.013   5.935  10.026  0.0488  0.5045 -0.2241
14283TIP3    H164264   4.994   5.842  10.016  1.4397  0.2701 -1.0034
14283TIP3    H264265   4.939   5.970  10.074  0.0438 -1.2213  1.1098
14284TIP3   OH264266   3.235   4.247  12.530  0.8008  0.3167 -0.1499
14284TIP3    H164267   3.244   4.332  12.486 -0.8670  1.4983  1.6511
14284TIP3    H264268   3.225   4.184  12.459  1.3168  1.7092 -1.5132
14285TIP3   OH264269   2.244   5.797   5.640 -0.1971 -0.2502  0.8738
14285TIP3    H164270   2.189   5.861   5.687  1.0103  1.2056  0.3835
14285TIP3    H264271   2.318   5.783   5.698  0.0515 -0.4056  0.5180
14286TIP3   OH264272   4.357   5.397  13.742  0.2189 -0.8735 -0.4143
14286TIP3    H164273   4.404   5.463  13.691  0.9046  1.3207  2.7292
14286TIP3    H264274   4.426   5.351  13.791 -0.5687 -0.3961  1.2039
14287TIP3   OH264275   0.012   0.990   5.052  0.2692 -0.1584 -0.1740
14287TIP3    H164276  -0.004   0.906   5.010 -0.6096 -0.3531  0.5135
14287TIP3    H264277   0.104   1.010   5.033  0.5782 -1.4228 -0.0656
14288TIP3   OH264278   3.035   0.377   1.478 -0.0514  0.1007  0.1234
14288TIP3    H164279   3.094   0.377   1.553 -0.3555  0.3683  0.3722
14288TIP3    H264280   3.092   0.380   1.402  0.2598  1.3029  0.3714
14289TIP3   OH264281   5.796   4.048   0.611 -0.1226 -0.1290 -0.4349
14289TIP3    H164282   5.882   4.035   0.652 -0.8557 -0.8414  0.9337
14289TIP3    H264283   5.740   3.981   0.650 -1.5374  0.9020 -0.6176
14290TIP3   OH264284   4.323   3.046  16.881  0.0798  0.4237 -0.0583
14290TIP3    H164285   4.255   2.987  16.847 -0.3820  0.4642  0.7578
14290TIP3    H264286   4.405   2.999  16.868 -0.4184 -1.2210  2.1602
14291TIP3   OH264287   0.040   5.187   0.833 -0.2862 -0.0249  1.0757
14291TIP3    H164288   0.106   5.209   0.767 -0.5025 -0.0685  0.8405
14291TIP3    H264289   0.041   5.260   0.894 -2.8922  2.0916 -1.1324
14292TIP3   OH264290   5.182   5.846  12.843  0.3541  0.9240  0.1951
14292TIP3    H164291   5.192   5.899  12.922 -0.0770  0.3738  0.6242
14292TIP3    H264292   5.183   5.755  12.875 -0.5395  0.7172 -0.3517
14293TIP3   OH264293   0.140   6.112   0.276  0.7072  0.5999  0.0331
14293TIP3    H164294   0.119   6.176   0.209 -0.4849  1.3837  1.1189
14293TIP3    H264295   0.082   6.038   0.257  1.6766  0.0351 -0.8709
14294TIP3   OH264296   0.952   3.639  11.805 -0.1107  0.0572  0.3096
14294TIP3    H164297   0.917   3.701  11.869  0.0075 -0.7273  1.1396
14294TIP3    H264298   1.047   3.651  11.810  0.0761 -1.7538  2.1215
14295TIP3   OH264299   5.908   6.058   4.985  0.6108 -0.4217  0.3076
14295TIP3    H164300   5.979   6.089   5.042  0.3737 -0.1008  0.4323
14295TIP3    H264301   5.923   6.101   4.901  0.4143 -0.1432  0.4126
14296TIP3   OH264302   5.036   3.069   5.509 -0.4166  0.3665  0.5225
14296TIP3    H164303   5.128   3.046   5.522 -0.6880 -0.5423  0.9310
14296TIP3    H264304   5.028   3.157   5.547  0.0634  0.0501  1.4040
14297TIP3   OH264305   5.008   4.911  14.267  0.0754 -0.4278  0.0940
14297TIP3    H164306   5.026   5.000  14.297  0.6083 -0.8247  0.9813
14297TIP3    H264307   5.083   4.888  14.212  0.1483 -0.4903  0.2206
14298TIP3   OH264308   6.750   3.794  15.410 -0.5036  0.1296  0.0251
14298TIP3    H164309   6.824   3.816  15.354 -0.3650 -2.4044 -0.8857
14298TIP3    H264310   6.789   3.764  15.492 -0.5725 -0.0569 -0.0114
14299TIP3   OH264311   2.626   1.019  11.455  0.1807  0.1324 -0.4665
14299TIP3    H164312   2.707   1.035  11.406  0.6701 -0.7910  0.0150
14299TIP3    H264313   2.561   1.073  11.411  1.2254  1.5238 -0.3671
14300TIP3   OH264314   2.497   1.994   1.450  0.1171 -0.1315  0.0600
14300TIP3    H164315   2.589   2.020   1.465  0.2361 -0.2675 -0.4201
14300TIP3    H264316   2.491   1.981   1.356 -0.7767  1.3530 -0.1221
14301TIP3   OH264317   6.743   5.337  13.542 -0.2857 -0.6931  0.1601
14301TIP3    H164318   6.703   5.276  13.604  1.5548 -0.8018  1.3285
14301TIP3    H264319   6.772   5.282  13.469  1.9227 -1.3948  1.4905
14302TIP3   OH264320   1.225   0.758   5.343  0.0054 -0.0008  0.3777
14302TIP3    H164321   1.292   0.825   5.354 -0.1563  0.0285  1.2776
14302TIP3    H264322   1.272   0.676   5.348  0.3451  0.0113 -1.6630
14303TIP3   OH264323   3.982   5.398  10.886  0.2470  0.3701  0.1250
14303TIP3    H164324   4.041   5.332  10.850  0.2581  0.0099  0.7971
14303TIP3    H264325   4.030   5.481  10.877  1.7284 -0.1446  2.4581
14304TIP3   OH264326   4.880   2.697  11.406 -0.0418  0.1296  0.3307
14304TIP3    H164327   4.805   2.655  11.363 -1.8729  1.5067  1.9574
14304TIP3    H264328   4.884   2.657  11.493  1.6534 -0.4509  0.0272
14305TIP3   OH264329   3.347   0.957   3.398 -0.2619  0.4594 -0.7908
14305TIP3    H164330   3.353   1.052   3.389  0.3260  0.5381  0.2529
14305TIP3    H264331   3.262   0.935   3.360 -0.6509  1.4707 -0.5477
14306TIP3   OH264332   0.832   1.677  15.979  0.3844 -0.4638 -0.6006
14306TIP3    H164333   0.804   1.667  15.888  2.7778 -1.9474 -1.2548
14306TIP3    H264334   0.896   1.608  15.992  1.1769  0.6204  1.8024
14307TIP3   OH264335   6.609   2.201  12.586  0.2486 -0.2920  0.2162
14307TIP3    H164336   6.633   2.276  12.640 -1.2718  1.5463 -1.5530
14307TIP3    H264337   6.642   2.222  12.498 -1.9733 -0.7119 -0.7767
14308TIP3   OH264338   1.750   2.288   0.289 -0.2837  0.1959  0.2184
14308TIP3    H164339   1.781   2.375   0.265 -1.5912  0.9073  0.9852
14308TIP3    H264340   1.804   2.262   0.363 -1.7515  1.6455  1.8919
14309TIP3   OH264341   1.766   2.137  16.805 -0.4899 -0.1248  0.0940
14309TIP3    H164342   1.848   2.176  16.774 -0.0771  0.7819  2.2083
14309TIP3    H264343   1.703   2.157  16.735  0.6562  0.7419 -0.7365
14310TIP3   OH264344   2.389   2.237   2.049  0.0540  0.8008 -0.3128
14310TIP3    H164345   2.455   2.195   2.104  1.3009  2.0214 -0.8181
14310TIP3    H264346   2.371   2.173   1.980 -0.6299 -0.2513  0.8078
14311TIP3   OH264347   0.831   5.677  16.170 -0.0960  0.0794  0.0601
14311TIP3    H164348   0.878   5.673  16.253  1.4985 -0.2724 -0.8143
14311TIP3    H264349   0.863   5.757  16.128  2.2535 -1.7052 -1.9042
14312TIP3   OH264350   4.697   2.487  11.622 -0.2158 -0.1457 -0.4645
14312TIP3    H164351   4.673   2.492  11.529  0.0385 -1.5950 -0.6286
14312TIP3    H264352   4.619   2.518  11.669  0.4000  2.8302 -1.1630
14313TIP3   OH264353   6.562   1.345  11.502  0.1798 -0.2540 -0.1477
14313TIP3    H164354   6.595   1.413  11.443  0.0507 -0.1313 -0.0800
14313TIP3    H264355   6.476   1.378  11.531 -0.5206 -1.0828 -1.1929
14314TIP3   OH264356   1.763   1.499   0.238  0.2545 -0.4288  0.4906
14314TIP3    H164357   1.783   1.430   0.301  0.6262 -0.5702  0.2242
14314TIP3    H264358   1.838   1.559   0.243 -0.5609  0.5518  1.5037
14315TIP3   OH264359   4.743   5.739  10.364  0.8005  0.4236  0.1488
14315TIP3    H164360   4.700   5.661  10.328  1.3565  0.4871 -0.6791
14315TIP3    H264361   4.681   5.772  10.429 -0.6925  0.8257 -1.3791
14316TIP3   OH264362   0.838   1.403   3.348 -0.5218 -0.0506 -0.1244
14316TIP3    H164363   0.831   1.468   3.418  0.8421  0.3356 -0.3214
14316TIP3    H264364   0.836   1.455   3.267 -0.4295 -0.3406 -0.3166
14317TIP3   OH264365   2.498   5.510   2.442 -0.0343 -0.3648 -0.0855
14317TIP3    H164366   2.573   5.569   2.450 -0.0379 -0.4346  0.4871
14317TIP3    H264367   2.536   5.425   2.420 -0.1052  0.0892 -2.1555
14318TIP3   OH264368   4.519   5.952   2.957 -0.0447  0.0430 -0.4421
14318TIP3    H164369   4.510   5.909   2.872 -1.4461  0.0790 -0.3381
14318TIP3    H264370   4.609   5.936   2.983  0.3711 -0.0711 -1.8778
14319TIP3   OH264371   1.129   5.570   2.780  0.2218 -0.4648 -0.5700
14319TIP3    H164372   1.146   5.575   2.874 -1.0659  0.7460 -0.3672
14319TIP3    H264373   1.216   5.574   2.740  0.7138  0.6185  0.5324
14320TIP3   OH264374   6.288   3.943   5.080 -0.0975 -0.6862 -0.5063
14320TIP3    H164375   6.376   3.917   5.052 -0.0450  0.8397 -1.8742
14320TIP3    H264376   6.275   4.030   5.044 -1.6846 -0.3148  0.8047
14321TIP3   OH264377   5.820   3.316   3.022 -0.4966 -0.2988 -0.2707
14321TIP3    H164378   5.804   3.222   3.026  0.7782 -0.5901 -1.1913
14321TIP3    H264379   5.910   3.326   3.053 -0.9234  0.7515  0.7386
14322TIP3   OH264380   4.561   2.509  12.602  0.5021 -0.1691 -0.0421
14322TIP3    H164381   4.542   2.598  12.571  0.5972 -0.9977 -2.7426
14322TIP3    H264382   4.492   2.491  12.666 -0.9200  1.0515 -1.1499
14323TIP3   OH264383   2.693   1.649   5.181  0.2471  0.1280 -0.6580
14323TIP3    H164384   2.696   1.555   5.196 -0.0208  0.0368 -1.1656
14323TIP3    H264385   2.704   1.687   5.268 -0.3208 -0.3803 -0.3601
14324TIP3   OH264386   2.860   3.963   2.703 -0.6505 -0.1929  0.0467
14324TIP3    H164387   2.841   3.949   2.610  1.1113 -0.6571 -0.2876
14324TIP3    H264388   2.843   4.056   2.718 -1.0828 -0.1441 -0.6995
14325TIP3   OH264389   1.121   6.512  15.437 -0.0940  0.7760  0.1792
14325TIP3    H164390   1.039   6.464  15.452  0.1976 -0.2326 -1.2996
14325TIP3    H264391   1.149   6.537  15.525 -2.2033  1.5492  0.7038
14326TIP3   OH264392   5.242   6.686   4.099 -0.1507 -0.1337  0.2749
14326TIP3    H164393   5.228   6.780   4.109  0.1953 -0.2098  1.6573
14326TIP3    H264394   5.269   6.676   4.007  1.1679  1.2956  0.4553
14327TIP3   OH264395   4.154   3.248  15.852 -0.0469 -0.1585 -0.0740
14327TIP3    H164396   4.198   3.225  15.770 -1.8959 -1.9654 -0.6260
14327TIP3    H264397   4.107   3.329  15.832 -0.3083 -0.4694 -0.7563
14328TIP3   OH264398   3.914   5.393   5.696  0.1443  0.2013 -0.2652
14328TIP3    H164399   3.953   5.476   5.726 -1.6828  0.8628  0.4993
14328TIP3    H264400   3.908   5.340   5.776 -2.5537  1.0409  0.2096
14329TIP3   OH264401   2.655   0.029  13.898  0.3691 -0.3753 -0.1771
14329TIP3    H164402   2.654   0.012  13.804  0.5543 -0.0074 -0.2488
14329TIP3    H264403   2.667  -0.057  13.938 -0.3753 -0.6144 -0.4654
14330TIP3   OH264404   1.222   0.659  11.520  1.0423  0.2206 -0.4789
14330TIP3    H164405   1.239   0.573  11.483  0.2138 -0.3765  0.4890
14330TIP3    H264406   1.198   0.713  11.445 -1.5548 -1.2005 -0.7874
14331TIP3   OH264407   0.241   1.423  16.959 -0.1102  0.4129  0.4727
14331TIP3    H164408   0.318   1.367  16.950  1.1345  2.2055 -0.5398
14331TIP3    H264409   0.172   1.377  16.911  1.0362  0.0177 -0.8362
14332TIP3   OH264410   2.066   6.688  15.681 -0.2273  0.4895 -0.1298
14332TIP3    H164411   2.154   6.691  15.717 -0.1388  1.0690 -0.3815
14332TIP3    H264412   2.020   6.760  15.724 -1.0920 -0.8514  1.2909
14333TIP3   OH264413   0.603   6.287  13.340 -0.2744 -0.1857 -0.5385
14333TIP3    H164414   0.563   6.360  13.291 -0.5991 -0.5027 -0.7532
14333TIP3    H264415   0.693   6.284  13.308  0.2965  1.2946  0.8041
14334TIP3   OH264416   1.936   0.819   0.871 -0.2963 -0.4866  0.2892
14334TIP3    H164417   1.924   0.871   0.792  0.9133  0.8081  0.9250
14334TIP3    H264418   1.853   0.826   0.918  0.2792  2.0708  1.0346
14335TIP3   OH264419   5.794   5.580  11.192  0.0717  0.6892 -0.3905
14335TIP3    H164420   5.836   5.643  11.133  0.7761 -0.1783 -0.8433
14335TIP3    H264421   5.703   5.576  11.162  0.3582  0.4570 -1.2620
14336TIP3   OH264422   3.713   5.799   6.181  0.5156  0.0632 -0.1615
14336TIP3    H164423   3.635   5.841   6.217 -1.5425 -2.5330 -1.2853
14336TIP3    H264424   3.784   5.863   6.196 -1.7213  2.4236  1.1260
14337TIP3   OH264425   5.894   5.904   3.053 -0.4987  0.5099 -0.5831
14337TIP3    H164426   5.849   5.963   2.993  1.3233  1.4148 -1.1256
14337TIP3    H264427   5.979   5.887   3.012  0.4291  0.3792  1.2512
14338TIP3   OH264428   2.929   3.688   5.261 -0.1442 -0.1736  0.2528
14338TIP3    H164429   2.959   3.778   5.270  1.8401 -0.8913  1.4187
14338TIP3    H264430   2.981   3.651   5.189 -2.0480 -0.0092 -1.2872
14339TIP3   OH264431   2.459   4.253   5.197 -0.5221  0.0331 -0.2410
14339TIP3    H164432   2.416   4.170   5.178 -0.3249 -0.5159  1.5344
14339TIP3    H264433   2.534   4.229   5.252  0.0041  1.3192 -0.3564
14340TIP3   OH264434   2.488   2.288  12.584  0.0510 -0.0022  0.2422
14340TIP3    H164435   2.406   2.245  12.608  0.5140 -0.3345  1.2872
14340TIP3    H264436   2.549   2.216  12.571  0.1954  0.2456 -0.4853
14341TIP3   OH264437   6.255   1.609   5.825 -0.2132 -0.1497  0.1569
14341TIP3    H164438   6.251   1.612   5.730  0.3211  0.5605  0.1510
14341TIP3    H264439   6.252   1.701   5.853  1.4946 -0.2417  0.7308
14342TIP3   OH264440   2.672   2.075  12.587 -0.0245 -0.1058  0.6180
14342TIP3    H164441   2.756   2.031  12.597  0.1090 -0.1327 -0.4871
14342TIP3    H264442   2.651   2.066  12.494 -0.1883  1.7921  0.4355
14343TIP3   OH264443   1.110   4.862  13.155  0.1662  0.4054  0.0667
14343TIP3    H164444   1.107   4.800  13.228  1.6717 -0.7109 -0.7557
14343TIP3    H264445   1.019   4.878  13.132 -0.2806 -1.9510 -0.0101
14344TIP3   OH264446   0.515   3.218   2.934  0.0908  0.1348 -0.4690
14344TIP3    H164447   0.601   3.231   2.973  0.3487  1.2834 -1.3611
14344TIP3    H264448   0.533   3.175   2.850 -0.2697 -0.3562 -0.2955
14345TIP3   OH264449   1.109   6.318  12.931  0.1807 -0.2023  0.4255
14345TIP3    H164450   1.144   6.231  12.950  0.9212 -0.0592 -0.2434
14345TIP3    H264451   1.140   6.338  12.843  0.1973  0.8244  0.6493
14346TIP3   OH264452   0.253   0.282  12.384  0.0066  0.3330 -0.1825
14346TIP3    H164453   0.247   0.228  12.463  1.6739 -1.1170 -0.9725
14346TIP3    H264454   0.345   0.309  12.380 -0.3465  1.5031 -0.9417
14347TIP3   OH264455   1.797   2.761   0.994 -0.0188 -0.0505  0.2965
14347TIP3    H164456   1.799   2.841   0.940  1.3522 -1.0968 -1.3209
14347TIP3    H264457   1.806   2.793   1.084  0.4725  1.6375 -0.2997
14348TIP3   OH264458   3.757   3.964  11.317  0.3014 -0.0989 -0.1820
14348TIP3    H164459   3.716   4.050  11.325  0.6280  0.0715 -0.3304
14348TIP3    H264460   3.727   3.931  11.232 -0.1744 -0.3209  0.0673
14349TIP3   OH264461   1.065   4.647  11.038 -0.3136  0.6665 -0.4441
14349TIP3    H164462   1.073   4.574  10.977  2.0225  0.6407 -0.1851
14349TIP3    H264463   1.047   4.723  10.982  1.5957  0.6094 -1.1946
14350TIP3   OH264464   6.227   4.453  15.586 -0.6175 -0.9733 -0.3291
14350TIP3    H164465   6.210   4.359  15.594 -2.5546 -0.9647 -2.9377
14350TIP3    H264466   6.298   4.459  15.522 -0.4958 -0.6495 -0.1644
14351TIP3   OH264467   3.701   5.445  14.670 -0.8037 -0.3144 -0.0931
14351TIP3    H164468   3.754   5.438  14.749  2.2562  0.8769 -1.8580
14351TIP3    H264469   3.715   5.362  14.625  0.6026  0.4434 -1.1102
14352TIP3   OH264470   3.308   4.794  11.210  0.3089  0.2083 -0.5718
14352TIP3    H164471   3.221   4.832  11.198  0.9226  1.6364 -0.7043
14352TIP3    H264472   3.367   4.870  11.211  1.3113 -0.5072  1.9356
14353TIP3   OH264473   0.236   6.377  14.850 -0.3337 -0.3647 -0.2649
14353TIP3    H164474   0.327   6.356  14.828  0.2773  1.8077 -0.0684
14353TIP3    H264475   0.212   6.312  14.917  1.8583  0.3634  1.3462
14354TIP3   OH264476   5.760   0.583   5.390  0.1856  0.5075 -0.2349
14354TIP3    H164477   5.790   0.564   5.301  0.9287 -2.1139  0.4867
14354TIP3    H264478   5.665   0.567   5.387  0.5005 -1.7198 -0.1397
14355TIP3   OH264479   5.747   3.536   2.183  0.2937 -0.4280  0.0465
14355TIP3    H164480   5.800   3.543   2.104  0.7098  0.0838  0.3616
14355TIP3    H264481   5.784   3.463   2.232 -0.0629 -0.8458 -0.2968
14356TIP3   OH264482   1.841   2.097  13.269  0.1741 -0.3195  0.0608
14356TIP3    H164483   1.809   2.042  13.198  2.6865 -1.3455 -0.3981
14356TIP3    H264484   1.854   2.037  13.342  1.2886 -0.0255  0.1173
14357TIP3   OH264485   3.885   0.779   3.234  0.1167  0.1035  0.1702
14357TIP3    H164486   3.945   0.819   3.171  0.7209 -0.2533  0.5128
14357TIP3    H264487   3.799   0.812   3.210  0.4070  0.3396 -0.5523
14358TIP3   OH264488   4.009   0.652   2.111 -0.3790  0.4191  0.5315
14358TIP3    H164489   3.944   0.582   2.103  0.5356 -0.3771 -0.2380
14358TIP3    H264490   3.980   0.719   2.049  0.0764 -0.3975 -0.5979
14359TIP3   OH264491   0.019   6.157   4.971 -0.3429  0.4913 -0.4227
14359TIP3    H164492   0.066   6.237   4.949 -0.8377  0.5537 -1.2580
14359TIP3    H264493  -0.030   6.179   5.050  1.2867  0.3192  0.7061
14360TIP3   OH264494   1.716   3.271   0.895  0.4283 -0.5686 -0.5752
14360TIP3    H164495   1.733   3.360   0.926  3.2339 -0.1601 -2.8408
14360TIP3    H264496   1.788   3.219   0.930 -0.6820 -1.8022 -0.0264
14361TIP3   OH264497   1.797   6.607  14.652  0.2630 -0.0539  0.5595
14361TIP3    H164498   1.844   6.677  14.608 -1.4145  0.2891 -0.8036
14361TIP3    H264499   1.863   6.564  14.706  1.6808  1.5751  0.2232
14362TIP3   OH264500   4.680   0.088   3.084 -0.3509  0.6903  0.0483
14362TIP3    H164501   4.758   0.082   3.139 -1.1733 -0.0431  1.2020
14362TIP3    H264502   4.614   0.128   3.141 -0.7471  1.5634 -0.9952
14363TIP3   OH264503   4.602   1.222   4.063  0.5185 -0.4044 -0.0470
14363TIP3    H164504   4.658   1.198   3.989 -0.1291 -0.0717 -0.6597
14363TIP3    H264505   4.612   1.317   4.071 -1.5522 -0.0085 -1.5311
14364TIP3   OH264506   4.506   3.178  11.449  0.2091  0.0585 -0.0217
14364TIP3    H164507   4.445   3.167  11.376  0.4376 -2.9838  0.1050
14364TIP3    H264508   4.575   3.234  11.415 -1.2883  1.3971 -1.0301
14365TIP3   OH264509   0.442   3.992  15.552 -0.3845 -0.4443  0.3492
14365TIP3    H164510   0.349   4.011  15.559 -0.3272 -0.4893  1.3137
14365TIP3    H264511   0.470   3.971  15.641  0.4725 -0.7837  0.0194
14366TIP3   OH264512   1.452   2.670  14.171 -0.2031  0.3737 -0.2038
14366TIP3    H164513   1.532   2.718  14.191 -1.1932  2.0180  0.0478
14366TIP3    H264514   1.480   2.580  14.157  1.5373  0.6740  1.0191
14367TIP3   OH264515   3.166   0.979   2.150 -0.1923 -0.3451  0.4090
14367TIP3    H164516   3.152   1.017   2.236 -1.7908  1.0341 -0.3984
14367TIP3    H264517   3.197   0.890   2.167 -0.1048  0.0343  2.3865
14368TIP3   OH264518   3.698   3.116   0.206 -0.4969  0.2297 -0.5929
14368TIP3    H164519   3.771   3.111   0.144  0.2866 -0.5088  0.3474
14368TIP3    H264520   3.651   3.034   0.194  1.4976 -1.4413  1.9021
14369TIP3   OH264521   6.025   0.076  12.749  0.0107 -0.1115 -0.3842
14369TIP3    H164522   5.937   0.102  12.776  0.7375  0.8681  1.2049
14369TIP3    H264523   6.083   0.138  12.794  1.5487 -1.0759 -0.9534
14370TIP3   OH264524   1.426   4.587  11.412 -0.0985  0.0048  0.0457
14370TIP3    H164525   1.491   4.657  11.405 -0.4706  0.3181 -0.2738
14370TIP3    H264526   1.345   4.625  11.380 -0.8550  0.1316  1.9889
14371TIP3   OH264527   2.705   3.165   1.016 -0.0468  0.2568  0.8298
14371TIP3    H164528   2.649   3.145   1.091 -0.0188  1.0729  1.0764
14371TIP3    H264529   2.654   3.136   0.940  0.4451 -1.7664  1.1945
14372TIP3   OH264530   2.162   4.353  12.490  0.1061 -0.6830  0.4664
14372TIP3    H164531   2.114   4.305  12.422 -0.1431  0.7138 -0.3799
14372TIP3    H264532   2.098   4.370  12.558 -0.2901  0.0218 -0.0648
14373TIP3   OH264533   2.183   5.835  11.783 -0.2602 -0.7115 -0.5659
14373TIP3    H164534   2.257   5.797  11.829 -0.2174 -0.9841 -0.8571
14373TIP3    H264535   2.194   5.929  11.793  0.8725 -0.6968 -1.7552
14374TIP3   OH264536   5.262   5.880  14.297 -0.1364  0.0815 -0.1313
14374TIP3    H164537   5.258   5.974  14.314 -2.3408 -0.1796  1.2914
14374TIP3    H264538   5.273   5.841  14.384 -2.4527 -1.0329 -0.2726
14375TIP3   OH264539   5.522   6.516  12.312 -0.3807 -0.7064 -0.3370
14375TIP3    H164540   5.542   6.536  12.403 -1.1876 -0.9187 -0.1078
14375TIP3    H264541   5.431   6.488  12.313 -0.4686 -0.4704 -1.2478
14376TIP3   OH264542   5.859   6.161   6.004 -0.0553  0.0374 -0.2407
14376TIP3    H164543   5.830   6.251   6.021 -3.6157 -0.9081 -0.4713
14376TIP3    H264544   5.859   6.119   6.090  1.1593  0.0922 -0.1947
14377TIP3   OH264545   3.125   0.921   0.411  0.0016  0.8309  0.1581
14377TIP3    H164546   3.070   0.964   0.476  0.1688  1.6173 -0.2087
14377TIP3    H264547   3.203   0.894   0.460 -0.5966 -0.0926  0.6305
14378TIP3   OH264548   5.087   5.642  14.496 -0.2582 -0.6591 -0.3816
14378TIP3    H164549   5.002   5.616  14.531 -0.2797 -0.0138  0.0579
14378TIP3    H264550   5.069   5.665  14.405 -0.6069 -0.2425 -0.2056
14379TIP3   OH264551   5.978   4.382  10.379  0.4156  0.2310 -0.0002
14379TIP3    H164552   5.975   4.476  10.396 -0.6598  0.3639 -0.8081
14379TIP3    H264553   6.060   4.370  10.331  0.9527  0.6224  0.8009
14380TIP3   OH264554   2.517   3.852  11.102 -1.0511 -0.2477  0.0416
14380TIP3    H164555   2.596   3.878  11.150  0.1092 -0.9656 -1.3787
14380TIP3    H264556   2.529   3.759  11.085 -1.5364 -0.0826 -1.3691
14381TIP3   OH264557   6.016   4.659  11.382  0.4937 -0.5213 -0.0577
14381TIP3    H164558   6.091   4.618  11.425 -0.4665  0.2156  2.4893
14381TIP3    H264559   6.053   4.700  11.303  2.6693 -0.5295  0.8878
14382TIP3   OH264560   1.929   6.325   4.820 -0.2678  0.1360  0.2401
14382TIP3    H164561   1.833   6.323   4.814 -0.3700  2.8771 -0.1255
14382TIP3    H264562   1.959   6.285   4.738 -1.1178  0.1603 -0.0946
14383TIP3   OH264563   4.612   6.039  12.275 -0.2765 -0.1570  0.2574
14383TIP3    H164564   4.673   6.109  12.298  1.0341 -0.3251 -2.2718
14383TIP3    H264565   4.530   6.085  12.256  0.3768  0.6684 -0.7053
14384TIP3   OH264566   2.568   3.649  15.870 -0.4103 -0.0740 -0.7399
14384TIP3    H164567   2.519   3.685  15.944  0.0387 -1.9337  0.5440
14384TIP3    H264568   2.503   3.643  15.799 -0.9257  1.4600 -0.4473
14385TIP3   OH264569   0.988   2.547  14.763  0.3840 -0.3598  0.2903
14385TIP3    H164570   0.953   2.477  14.818 -0.5289 -0.0704  0.1039
14385TIP3    H264571   0.952   2.529  14.676 -1.0409  1.0948  0.5216
14386TIP3   OH264572   2.902   4.275  11.988 -0.1075 -0.0369 -0.3215
14386TIP3    H164573   2.910   4.354  11.934 -2.2421 -0.2321 -0.9975
14386TIP3    H264574   2.808   4.261  11.997  0.1807 -0.9166  2.1744
14387TIP3   OH264575   0.632   3.881  14.604 -0.4317 -0.0591  0.1762
14387TIP3    H164576   0.584   3.857  14.684  0.2091 -2.1709 -0.0014
14387TIP3    H264577   0.724   3.866  14.627 -0.0483  1.5003 -0.2764
14388TIP3   OH264578   1.591   2.315   4.122  0.3906 -0.6636  0.1339
14388TIP3    H164579   1.627   2.403   4.138  0.6714 -0.8823  0.7151
14388TIP3    H264580   1.583   2.310   4.026 -1.8285  0.8812  0.1561
14389TIP3   OH264581   5.477   0.332   1.909 -0.0598 -0.3543 -0.1439
14389TIP3    H164582   5.499   0.423   1.887 -1.5445 -0.3808 -1.9779
14389TIP3    H264583   5.536   0.280   1.855  0.2462 -0.5013  0.3217
14390TIP3   OH264584   5.739   3.841   2.541  0.0123  0.5279  0.0076
14390TIP3    H164585   5.807   3.810   2.600 -1.4053 -1.0881  0.8923
14390TIP3    H264586   5.727   3.933   2.564 -1.9859 -0.5031  3.9554
14391TIP3   OH264587   3.648   1.016  14.816  0.0504 -0.2513  0.7363
14391TIP3    H164588   3.559   0.986  14.794  0.2705 -1.7694  1.7013
14391TIP3    H264589   3.645   1.029  14.911  1.3943 -2.4573  1.1479
14392TIP3   OH264590   3.323   4.830  14.481  0.5511 -0.0134 -0.4136
14392TIP3    H164591   3.368   4.844  14.397 -1.5505 -0.4950 -1.7084
14392TIP3    H264592   3.368   4.756  14.521 -0.3791 -1.9488 -2.6996
14393TIP3   OH264593   0.208   4.272  13.973 -0.2832 -0.1745  0.0222
14393TIP3    H164594   0.206   4.265  14.069 -2.0180  1.0268  0.1269
14393TIP3    H264595   0.155   4.199  13.942  1.1676 -1.2142 -0.1232
14394TIP3   OH264596   4.968   1.578   0.925 -0.0054 -0.0285 -0.2031
14394TIP3    H164597   4.941   1.529   1.002 -2.0526 -0.4185 -1.1007
14394TIP3    H264598   4.957   1.517   0.852 -0.6331  1.1095 -1.0985
14395TIP3   OH264599   5.494   5.787   4.767 -0.0725  0.0404  0.3699
14395TIP3    H164600   5.490   5.879   4.792  1.2522  0.2812 -0.2246
14395TIP3    H264601   5.484   5.787   4.672 -0.6310 -0.4981  0.4160
14396TIP3   OH264602   1.235   6.274   3.401  0.4320 -0.0147  0.0592
14396TIP3    H164603   1.277   6.356   3.375 -0.8365  1.8040  3.2251
14396TIP3    H264604   1.303   6.227   3.449  0.4994  0.2864  0.2627
14397TIP3   OH264605   0.749   4.887   1.919 -0.1623 -0.1489 -0.4943
14397TIP3    H164606   0.838   4.894   1.884 -0.1419  1.2995 -0.2475
14397TIP3    H264607   0.753   4.932   2.004 -1.1030 -0.1487 -0.4378
14398TIP3   OH264608   2.205   3.807  15.843  0.2994 -0.5737 -0.5012
14398TIP3    H164609   2.134   3.870  15.829  0.3472 -0.4867 -0.3497
14398TIP3    H264610   2.275   3.858  15.883 -0.0251 -0.9336  0.5403
14399TIP3   OH264611   1.410   2.798   5.279  0.4450  0.2610  0.5797
14399TIP3    H164612   1.422   2.856   5.204 -0.2035 -0.0569  0.2268
14399TIP3    H264613   1.429   2.711   5.246 -1.0360 -0.0413  0.4430
14400TIP3   OH264614   2.036   2.136   1.161  0.5269  0.2980  0.6976
14400TIP3    H164615   2.042   2.041   1.151  1.3021  0.3837  0.3058
14400TIP3    H264616   2.076   2.154   1.246  0.3874  0.2805  0.7681
14401TIP3   OH264617   0.292   3.506  11.090 -0.2845 -0.2564 -0.4621
14401TIP3    H164618   0.337   3.543  11.166 -0.7711 -0.1675 -0.2092
14401TIP3    H264619   0.357   3.448  11.050 -0.1643 -0.6584  0.2905
14402TIP3   OH264620   0.281   1.057   1.271 -0.3274  0.1480 -0.4565
14402TIP3    H164621   0.187   1.050   1.290 -0.3687 -0.4600 -0.8465
14402TIP3    H264622   0.320   0.985   1.320 -0.0601  0.3953 -0.3025
14403TIP3   OH264623   5.512   2.211   4.666  0.4543  0.2140 -0.4698
14403TIP3    H164624   5.583   2.223   4.603 -0.2673  1.3711 -1.0967
14403TIP3    H264625   5.557   2.191   4.749  1.4714  0.0702 -1.0420
14404TIP3   OH264626   0.463   4.720  17.008  0.1301  0.0656 -0.5360
14404TIP3    H164627   0.535   4.739  17.068 -0.6580  0.4778  0.3112
14404TIP3    H264628   0.390   4.697  17.066 -0.3881 -0.4702 -1.3826
14405TIP3   OH264629   3.498   3.379  15.187 -0.3207  0.5046 -0.2292
14405TIP3    H164630   3.420   3.411  15.141 -1.2438  0.2727  1.1052
14405TIP3    H264631   3.531   3.309  15.132 -1.2533  0.3851 -0.6657
14406TIP3   OH264632   1.830   5.128   2.431 -0.1523 -0.0699 -0.0264
14406TIP3    H164633   1.772   5.091   2.364 -0.4657  0.9015 -0.3121
14406TIP3    H264634   1.854   5.215   2.397  0.4548  0.0514  0.6796
14407TIP3   OH264635   4.372   4.417  12.931  0.1550  0.0852  0.2096
14407TIP3    H164636   4.308   4.406  12.860 -1.0568  2.2675  0.8782
14407TIP3    H264637   4.322   4.400  13.011  0.4940  1.3086  0.7098
14408TIP3   OH264638   2.299   5.576   0.396  0.0374  0.2858  0.4190
14408TIP3    H164639   2.323   5.609   0.483  0.7084 -1.4753  0.9559
14408TIP3    H264640   2.380   5.537   0.362 -0.1611  1.1637 -1.1203
14409TIP3   OH264641   3.011   1.988  12.933  0.1018  0.3902 -0.4888
14409TIP3    H164642   2.955   2.033  12.996 -1.0251  1.5344 -2.2128
14409TIP3    H264643   2.954   1.922  12.893  0.8231 -0.3791 -0.2751
14410TIP3   OH264644   5.937   2.083   1.601 -0.2671 -0.3139 -0.7657
14410TIP3    H164645   6.024   2.111   1.574 -0.6370  1.4759 -0.1972
14410TIP3    H264646   5.938   1.987   1.590  1.9405 -0.3932 -0.2536
14411TIP3   OH264647   3.736   4.622  13.643 -0.6682 -0.5430 -0.0425
14411TIP3    H164648   3.766   4.602  13.731  1.4996 -0.4836 -0.7139
14411TIP3    H264649   3.753   4.542  13.593  1.7522  0.6133 -1.2289
14412TIP3   OH264650   1.910   6.667   6.223  0.3710 -0.4542  0.9266
14412TIP3    H164651   1.900   6.586   6.174  0.0024 -0.2944  0.7301
14412TIP3    H264652   1.972   6.646   6.293 -0.4515 -1.1635  1.4517
14413TIP3   OH264653   5.477   5.403   5.296 -0.0708 -0.0259 -0.2412
14413TIP3    H164654   5.550   5.364   5.248 -0.1769  1.5708 -1.8202
14413TIP3    H264655   5.518   5.451   5.368  0.5603  1.2653 -1.3966
14414TIP3   OH264656   3.271   3.095  16.790  0.2155 -1.0514  0.9210
14414TIP3    H164657   3.225   3.054  16.716  1.2936 -2.0078  0.7471
14414TIP3    H264658   3.204   3.147  16.834 -0.2951  0.1380 -1.1334
14415TIP3   OH264659   1.469   0.499  14.482  0.0223  0.4684 -0.4177
14415TIP3    H164660   1.377   0.475  14.494  0.4922 -0.7943  0.9335
14415TIP3    H264661   1.513   0.467  14.561  1.4502  2.0492 -0.5195
14416TIP3   OH264662   5.897   3.841  15.555  0.4499 -0.3767 -0.0133
14416TIP3    H164663   5.930   3.931  15.548  0.9146 -0.6561 -2.4035
14416TIP3    H264664   5.970   3.787  15.524 -0.5319 -1.3925 -0.6430
14417TIP3   OH264665   4.973   6.517   4.495 -0.3922  0.4182 -0.8385
14417TIP3    H164666   4.907   6.511   4.426  0.5974  2.0954 -1.9782
14417TIP3    H264667   5.055   6.533   4.450  0.4564  0.5976  0.6822
14418TIP3   OH264668   1.587   6.341   4.041  0.9071 -0.5339 -0.3934
14418TIP3    H164669   1.669   6.328   4.089  0.3948 -0.7822  0.4471
14418TIP3    H264670   1.561   6.253   4.014 -0.5869 -0.9409  1.9603
14419TIP3   OH264671   5.532   5.750   1.587 -0.0358  0.3125 -0.0454
14419TIP3    H164672   5.523   5.799   1.669 -0.4621 -1.5953  1.1252
14419TIP3    H264673   5.451   5.700   1.580  0.4807 -0.4339 -1.0348
14420TIP3   OH264674   3.126   5.732  11.742  0.6044 -0.0160  0.1762
14420TIP3    H164675   3.177   5.741  11.822  0.5923  0.2851  0.1485
14420TIP3    H264676   3.072   5.654  11.757  0.8830 -0.1863  0.3065
14421TIP3   OH264677   0.284   0.428   0.440 -0.1844 -0.2639  0.8546
14421TIP3    H164678   0.363   0.376   0.457  1.2005  1.7293  0.8324
14421TIP3    H264679   0.284   0.494   0.509 -0.2331  1.5265 -0.7791
14422TIP3   OH264680   2.129   0.277  10.884 -0.6449  0.0252  0.4481
14422TIP3    H164681   2.182   0.198  10.895  0.0813  0.4792  0.2707
14422TIP3    H264682   2.154   0.312  10.799  1.8912  2.4906  2.0114
14423TIP3   OH264683   2.428   0.114   3.604 -0.3692  0.1010 -0.0404
14423TIP3    H164684   2.338   0.086   3.619 -1.1135  2.6693  0.7845
14423TIP3    H264685   2.477   0.032   3.591 -3.1878 -1.2987 -3.1043
14424TIP3   OH264686   4.304   2.854  13.906 -0.5891  0.8561 -0.2149
14424TIP3    H164687   4.339   2.887  13.990 -0.2387 -0.0591  0.0073
14424TIP3    H264688   4.287   2.762  13.922  0.5914  0.3886 -1.4937
14425TIP3   OH264689   3.753   0.457  10.461  0.1110  0.2694  0.4327
14425TIP3    H164690   3.680   0.517  10.472 -0.8788 -0.9840  0.9468
14425TIP3    H264691   3.820   0.489  10.521 -0.4187  0.8174  0.7395
14426TIP3   OH264692   4.612   3.970   4.332 -0.3684 -0.1805 -0.4379
14426TIP3    H164693   4.630   4.034   4.263 -0.2155  1.0562  0.7133
14426TIP3    H264694   4.643   3.887   4.296 -0.2644  0.4312 -1.8403
14427TIP3   OH264695   0.216   5.420  16.087 -0.1867 -0.4785 -0.1324
14427TIP3    H164696   0.244   5.377  16.168 -0.8144  0.9168  0.8676
14427TIP3    H264697   0.296   5.423  16.033  0.4350 -0.7501  0.7437
14428TIP3   OH264698   5.842   1.125   0.077  0.1215 -0.5254 -0.3034
14428TIP3    H164699   5.901   1.074   0.133  1.7931  1.3296 -0.2936
14428TIP3    H264700   5.844   1.213   0.114 -0.8552  0.1133 -1.6963
14429TIP3   OH264701   4.173   0.690  12.489 -0.1827  0.3584 -0.3502
14429TIP3    H164702   4.100   0.644  12.532 -0.0704 -0.6347 -1.2008
14429TIP3    H264703   4.252   0.653  12.529 -0.0899 -0.2515 -1.0870
14430TIP3   OH264704   5.177   5.656  11.448  0.2493 -0.3532 -0.0096
14430TIP3    H164705   5.255   5.701  11.416  0.7276 -0.2614  1.2399
14430TIP3    H264706   5.189   5.651  11.542  0.8269 -4.2568 -0.1568
14431TIP3   OH264707   3.977   5.749  13.439  0.2609 -0.3857  0.0293
14431TIP3    H164708   3.893   5.777  13.402  0.2992  2.2881  1.7000
14431TIP3    H264709   3.972   5.771  13.532  3.4052  1.6396 -0.0981
14432TIP3   OH264710   4.030   3.760  15.558 -0.0010  0.0380 -0.5185
14432TIP3    H164711   4.122   3.781  15.571  0.1229 -0.5694 -0.3834
14432TIP3    H264712   4.028   3.712  15.475 -0.1231 -0.3658 -0.2876
14433TIP3   OH264713   0.943   0.119   1.393  0.1125  0.0478 -0.3213
14433TIP3    H164714   0.927   0.108   1.486 -1.7208 -1.0580 -0.7237
14433TIP3    H264715   0.978   0.034   1.365  0.9634  0.4811 -0.5890
14434TIP3   OH264716   2.801   6.620   1.296 -0.0586  0.3285 -0.6768
14434TIP3    H164717   2.766   6.536   1.267  0.1366  0.1970 -0.5361
14434TIP3    H264718   2.724   6.675   1.311 -0.2244 -0.0700 -0.0196
14435TIP3   OH264719   5.756   1.136   3.053  0.5591 -0.2508  0.2115
14435TIP3    H164720   5.746   1.043   3.072  0.3096 -0.1583  0.5432
14435TIP3    H264721   5.802   1.171   3.129  1.2037 -0.2147 -0.1908
14436TIP3   OH264722   1.881   0.633   2.114  0.0465  0.6091 -0.7868
14436TIP3    H164723   1.882   0.566   2.045  1.1258  0.8159 -0.9826
14436TIP3    H264724   1.845   0.587   2.191  0.1899 -0.0216 -1.0892
14437TIP3   OH264725   2.006   3.215  13.249  0.5966 -0.1880  0.3366
14437TIP3    H164726   2.076   3.196  13.187  0.1695 -2.2708  0.4178
14437TIP3    H264727   2.043   3.192  13.334  0.8957  1.8643  0.8113
14438TIP3   OH264728   4.238   5.733   1.468  0.1375 -0.1569  0.3575
14438TIP3    H164729   4.317   5.784   1.454 -0.2142  0.2590 -0.1360
14438TIP3    H264730   4.269   5.643   1.480  0.4721 -0.8315 -4.0364
14439TIP3   OH264731   2.944   4.970  15.820 -0.4780 -0.2555 -0.0433
14439TIP3    H164732   2.974   4.941  15.734 -1.7381  0.0543 -0.5951
14439TIP3    H264733   2.930   4.889  15.869  2.9351 -0.4411  0.8895
14440TIP3   OH264734   0.861   1.524  11.717 -0.4932  0.0473 -0.1800
14440TIP3    H164735   0.823   1.580  11.785 -0.3551  1.9382 -1.5721
14440TIP3    H264736   0.954   1.517  11.740 -0.7326 -0.5908  0.6225
14441TIP3   OH264737   2.133   2.545  12.134  0.0674 -0.6650  0.5843
14441TIP3    H164738   2.072   2.480  12.170 -0.8158 -0.3183 -0.2649
14441TIP3    H264739   2.143   2.610  12.203 -2.3349  0.4838 -0.0675
14442TIP3   OH264740   1.063   0.851   1.181 -0.0632  0.1458 -0.0897
14442TIP3    H164741   1.039   0.934   1.139 -1.4573 -0.7759 -1.2102
14442TIP3    H264742   0.993   0.836   1.244  0.2936 -0.0882  0.2496
14443TIP3   OH264743   2.464   2.143  15.701  0.0165 -0.1870  0.2027
14443TIP3    H164744   2.485   2.147  15.607  0.8200 -0.1682  0.3779
14443TIP3    H264745   2.534   2.091  15.739  0.3885  0.8498  0.9842
14444TIP3   OH264746   4.298   1.356   1.155 -0.1579 -0.6393 -0.1189
14444TIP3    H164747   4.355   1.280   1.141  0.4208 -0.2207 -0.0594
14444TIP3    H264748   4.222   1.339   1.100  0.5317 -0.6618 -1.0882
14445TIP3   OH264749   6.698   4.601   3.356  0.5120  0.0145 -0.1274
14445TIP3    H164750   6.717   4.637   3.443 -0.9680  0.6530 -0.0344
14445TIP3    H264751   6.640   4.665   3.316  0.0663 -0.9449 -1.0576
14446TIP3   OH264752   3.349   5.782  11.943  0.7847  0.2460  0.1882
14446TIP3    H164753   3.362   5.852  11.879 -2.7354  0.5476 -0.3839
14446TIP3    H264754   3.356   5.826  12.028  2.6192  0.4013  0.0072
14447TIP3   OH264755   1.434   2.347  15.854  0.4259 -0.0152 -0.3706
14447TIP3    H164756   1.511   2.307  15.813  0.2502 -0.7636  0.0077
14447TIP3    H264757   1.429   2.434  15.816  1.0441 -0.2183 -0.9383
14448TIP3   OH264758   1.078   5.039   5.216 -0.3915 -0.4183  0.6636
14448TIP3    H164759   1.125   5.049   5.299  1.2166 -1.4062 -0.0793
14448TIP3    H264760   1.133   5.081   5.151 -1.4646  0.0279  0.0071
14449TIP3   OH264761   3.907   2.836  13.782  0.5444 -0.4183 -0.1706
14449TIP3    H164762   3.909   2.745  13.755 -1.1306 -0.7159  0.5653
14449TIP3    H264763   3.880   2.884  13.704 -1.3938 -0.9280  0.1366
14450TIP3   OH264764   3.304   6.151  12.050  0.3664  0.4658 -0.5081
14450TIP3    H164765   3.314   6.060  12.078  2.1208  0.5918 -0.6394
14450TIP3    H264766   3.355   6.201  12.114 -1.2119  1.4706  0.0243
14451TIP3   OH264767   4.134   0.799   4.905  0.1943 -0.2099  0.3466
14451TIP3    H164768   4.185   0.719   4.893 -0.3789 -0.2112 -2.7599
14451TIP3    H264769   4.200   0.868   4.917  0.7116 -0.8961  1.7514
14452TIP3   OH264770   6.480   2.687   5.960 -0.7356  0.0560  0.2862
14452TIP3    H164771   6.505   2.776   5.985  0.4018 -0.4219  0.9430
14452TIP3    H264772   6.391   2.695   5.926 -1.1380  1.2373  1.5617
14453TIP3   OH264773   6.526   6.195  10.620 -0.6983  0.3650 -0.3310
14453TIP3    H164774   6.460   6.157  10.562 -0.5507  1.4595 -1.2431
14453TIP3    H264775   6.476   6.243  10.686 -0.8401  1.2725 -1.0768
14454TIP3   OH264776   3.058   2.260  13.545  0.0367 -0.2154 -0.3060
14454TIP3    H164777   3.114   2.209  13.603  2.0034 -0.3195 -2.1828
14454TIP3    H264778   3.044   2.204  13.469  0.5888  1.2415 -1.5332
14455TIP3   OH264779   3.394   6.543  14.503  0.0223 -0.3537 -0.5910
14455TIP3    H164780   3.301   6.520  14.503 -0.3951  1.1381  0.7432
14455TIP3    H264781   3.439   6.461  14.522 -1.0033 -1.1357 -1.4492
14456TIP3   OH264782   0.758   0.187   2.507 -0.2705  0.4672  0.1190
14456TIP3    H164783   0.791   0.274   2.482 -0.0945  0.3556 -0.0357
14456TIP3    H264784   0.792   0.128   2.440  0.1854  0.1671  0.6081
14457TIP3   OH264785   3.303   2.874   2.543  0.2271 -0.0527 -0.6293
14457TIP3    H164786   3.226   2.929   2.523  1.5931  2.2152 -0.0321
14457TIP3    H264787   3.291   2.848   2.634 -0.3194 -0.5997 -0.8487
14458TIP3   OH264788   3.986   4.396   4.506 -0.3751  0.0798 -0.2235
14458TIP3    H164789   4.020   4.323   4.453  0.6012  0.5238 -0.2271
14458TIP3    H264790   4.062   4.426   4.557 -1.2490 -0.2380  1.3299
14459TIP3   OH264791   0.877   4.121   4.270  0.2068  0.3150 -0.0007
14459TIP3    H164792   0.834   4.131   4.185 -1.0721  1.2317  0.7162
14459TIP3    H264793   0.928   4.041   4.262 -0.1754  0.1976 -1.5188
14460TIP3   OH264794   4.156   4.894   2.067 -0.2525  0.3345 -0.6293
14460TIP3    H164795   4.230   4.893   2.127 -1.4039  2.0891  0.9590
14460TIP3    H264796   4.082   4.866   2.120 -1.1593  1.1135 -1.4324
14461TIP3   OH264797   4.559   4.648  16.568 -0.2054  1.2705 -0.7847
14461TIP3    H164798   4.644   4.609  16.591 -0.2187  0.1799 -2.4484
14461TIP3    H264799   4.524   4.679  16.652 -0.1923 -2.2706  0.6856
14462TIP3   OH264800   4.372   3.174   4.058  0.2858 -0.0673  0.6940
14462TIP3    H164801   4.348   3.259   4.095  2.1732 -0.1453  2.2398
14462TIP3    H264802   4.361   3.112   4.131 -0.0406 -0.9944 -0.1166
14463TIP3   OH264803   5.453   1.881   3.248  0.5491 -0.2486 -0.1558
14463TIP3    H164804   5.387   1.858   3.314  0.2674  1.1235  0.0827
14463TIP3    H264805   5.525   1.919   3.300  1.1366 -0.8934 -0.4920
14464TIP3   OH264806   2.573   1.079   2.142 -0.0240 -0.0617  0.0879
14464TIP3    H164807   2.639   1.092   2.211  0.6331 -0.5899 -0.4301
14464TIP3    H264808   2.612   1.014   2.083 -1.3938 -1.1188  0.2807
14465TIP3   OH264809   2.280   4.927  15.230  0.2804 -0.0437 -0.1244
14465TIP3    H164810   2.245   4.874  15.302  0.9840 -1.0969 -0.5293
14465TIP3    H264811   2.289   4.865  15.157  0.6160  0.7589 -0.7801
14466TIP3   OH264812   6.566   4.892   0.046 -0.4258 -0.0883 -0.2040
14466TIP3    H164813   6.653   4.888   0.005 -0.5380  0.0326 -0.4598
14466TIP3    H264814   6.571   4.967   0.104  0.2797 -1.2381  1.3009
14467TIP3   OH264815   0.131   1.312  14.215  0.3473 -0.8611 -0.4364
14467TIP3    H164816   0.175   1.227  14.217  2.0716 -0.0666 -2.0286
14467TIP3    H264817   0.154   1.349  14.130 -2.1446  0.3234 -0.6886
14468TIP3   OH264818   0.739   3.317  11.298  0.3788 -0.1819 -0.2204
14468TIP3    H164819   0.669   3.266  11.258 -1.0326  0.1587  1.6733
14468TIP3    H264820   0.796   3.252  11.339  1.3250 -0.4714 -1.9089
14469TIP3   OH264821   0.530   4.065  12.287  0.3997  0.4188  0.0483
14469TIP3    H164822   0.439   4.040  12.300  0.2629  1.5490  1.4557
14469TIP3    H264823   0.580   4.001  12.337  0.3919 -0.2260 -0.7584
14470TIP3   OH264824   4.248   5.758  14.904  0.3278 -0.0706  0.9105
14470TIP3    H164825   4.193   5.782  14.830 -0.2247 -0.4634  1.1896
14470TIP3    H264826   4.191   5.707  14.961  0.5929  0.6652  1.8565
14471TIP3   OH264827   5.178   0.427  16.493 -0.4537  0.0144 -0.0155
14471TIP3    H164828   5.187   0.464  16.581 -0.7915 -1.0633  0.4883
14471TIP3    H264829   5.096   0.464  16.460 -1.3749 -1.0971  0.9246
14472TIP3   OH264830   3.618   2.287  12.369 -0.6090  0.2148  0.5651
14472TIP3    H164831   3.523   2.277  12.371 -0.5167 -1.4992  3.5797
14472TIP3    H264832   3.634   2.375  12.403 -1.1807 -0.5666  3.1019
14473TIP3   OH264833   5.960   3.731  14.478 -0.5372 -0.1663 -0.5214
14473TIP3    H164834   5.960   3.654  14.535 -0.6336  1.3132  1.5467
14473TIP3    H264835   6.053   3.750  14.464 -0.5048 -1.0158 -1.5965
14474TIP3   OH264836   4.356   5.268  14.427  0.6193  0.1750 -0.3952
14474TIP3    H164837   4.435   5.284  14.376  0.0125 -0.0329 -1.4281
14474TIP3    H264838   4.336   5.352  14.468  1.6914  0.0802  0.3461
14475TIP3   OH264839   1.867   1.630   5.582  0.1574  0.6940 -0.5937
14475TIP3    H164840   1.816   1.566   5.631  0.2984  1.0062 -0.0339
14475TIP3    H264841   1.956   1.594   5.583 -0.1488 -0.1871 -2.1358
14476TIP3   OH264842   2.410   1.784   5.053 -0.0098 -0.1216  0.3580
14476TIP3    H164843   2.504   1.769   5.066 -0.3792 -3.9938 -0.3713
14476TIP3    H264844   2.376   1.700   5.022 -3.6011  1.4068 -0.3246
14477TIP3   OH264845   3.931   3.595   1.573 -0.2937  0.4026  0.0574
14477TIP3    H164846   3.841   3.570   1.591  0.0489 -1.9003 -1.0482
14477TIP3    H264847   3.933   3.614   1.480  0.2352  1.1551  0.2104
14478TIP3   OH264848   4.523   2.926  10.510  0.4932 -0.6202  0.3036
14478TIP3    H164849   4.589   2.920  10.579  0.7014  0.4932  0.2254
14478TIP3    H264850   4.559   2.876  10.437  0.9498 -0.5654  0.4909
14479TIP3   OH264851   6.017   0.964   5.279  0.5933  0.3311  0.1459
14479TIP3    H164852   5.938   0.910   5.290 -0.3472  1.5490 -0.3799
14479TIP3    H264853   6.053   0.971   5.367  1.5713 -2.3107  0.0419
14480TIP3   OH264854   0.075   2.120  12.604  0.1830  0.1077 -0.2000
14480TIP3    H164855   0.008   2.178  12.639 -1.1814 -1.1859 -0.5757
14480TIP3    H264856   0.122   2.088  12.681 -1.2400 -0.8519  0.3168
14481TIP3   OH264857   4.259   6.055   4.602  0.4821  0.4028  0.1787
14481TIP3    H164858   4.172   6.016   4.611  1.2726 -1.2478  1.1956
14481TIP3    H264859   4.319   5.980   4.601  2.1116  1.5778  2.4213
14482TIP3   OH264860   2.147   6.718  14.953 -0.1783  0.2017 -0.3766
14482TIP3    H164861   2.151   6.781  14.881  0.3969  0.8168  0.1826
14482TIP3    H264862   2.120   6.769  15.029 -0.1669 -0.3199 -0.0123
14483TIP3   OH264863   6.351   5.859   4.203  0.0916 -0.2298  0.0248
14483TIP3    H164864   6.316   5.788   4.149 -0.8529  0.0407  0.2565
14483TIP3    H264865   6.399   5.914   4.142  0.2589 -0.6993 -0.2789
14484TIP3   OH264866   0.221   1.517  11.814  0.2673 -0.5207 -0.4601
14484TIP3    H164867   0.167   1.484  11.742 -1.6479  0.8224  0.2709
14484TIP3    H264868   0.234   1.610  11.792  1.7134 -0.6658 -0.2544
14485TIP3   OH264869   0.218   1.863  15.054 -0.0318 -0.3381  0.1867
14485TIP3    H164870   0.196   1.938  15.110  0.1393 -0.0358 -0.1443
14485TIP3    H264871   0.286   1.817  15.103  0.6139  0.3118 -0.0792
14486TIP3   OH264872   3.534   5.181  15.572  0.7338  0.5637 -0.4176
14486TIP3    H164873   3.479   5.152  15.645  0.8831 -1.0687 -0.9253
14486TIP3    H264874   3.511   5.273  15.560 -0.1127  0.5528  0.9533
14487TIP3   OH264875   1.182   4.235   4.229 -0.1955 -0.3454  0.0926
14487TIP3    H164876   1.147   4.267   4.146  2.7064  0.8434 -0.7971
14487TIP3    H264877   1.165   4.306   4.291  2.6237  1.4209 -0.9409
14488TIP3   OH264878   5.517   5.778  14.206  0.0740  0.3216  0.0259
14488TIP3    H164879   5.506   5.753  14.115 -0.2074 -0.0678  0.1653
14488TIP3    H264880   5.435   5.822  14.230 -0.1143 -0.1629  0.2793
14489TIP3   OH264881   5.152   4.453   3.717 -0.2064  0.4939  0.2075
14489TIP3    H164882   5.239   4.492   3.714  1.0679 -2.0930  0.8467
14489TIP3    H264883   5.131   4.446   3.810  0.0653 -1.2024  0.1718
14490TIP3   OH264884   0.073   0.850   0.001 -0.2916  0.5635 -0.1355
14490TIP3    H164885   0.012   0.816  -0.064 -0.2056  0.1725 -0.0117
14490TIP3    H264886   0.082   0.780   0.065  0.2712  0.6256 -0.1401
14491TIP3   OH264887   2.628   6.614   0.959  0.1513 -0.2623 -0.8500
14491TIP3    H164888   2.695   6.547   0.945 -0.2162 -0.6557 -0.7377
14491TIP3    H264889   2.609   6.609   1.053  0.3626  0.2331 -0.7754
14492TIP3   OH264890   4.095   2.498   3.687  0.7139 -0.0747  0.2827
14492TIP3    H164891   4.094   2.418   3.635  0.0543 -0.6259  1.1199
14492TIP3    H264892   4.101   2.569   3.623  1.0533 -0.7827 -0.4767
14493TIP3   OH264893   4.137   2.588  12.263 -0.9967  0.7196 -0.2589
14493TIP3    H164894   4.214   2.577  12.209 -1.4829 -1.4897 -0.5932
14493TIP3    H264895   4.171   2.593  12.353 -0.4453  0.1991 -0.4362
14494TIP3   OH264896   0.255   6.789   2.695  0.3478  0.3537  0.4250
14494TIP3    H164897   0.317   6.733   2.743 -0.9981  0.1212  1.9806
14494TIP3    H264898   0.310   6.837   2.633  1.8198 -1.2070  0.4308
14495TIP3   OH264899   2.914   4.115  13.521  0.0980 -0.2404  0.0139
14495TIP3    H164900   2.858   4.043  13.492 -0.6101  0.3764 -0.1952
14495TIP3    H264901   2.935   4.162  13.441 -1.4632  1.1888  0.3862
14496TIP3   OH264902   6.289   5.334   1.746  0.2386 -1.1110 -0.0955
14496TIP3    H164903   6.318   5.338   1.838 -1.7229  0.7363  0.5349
14496TIP3    H264904   6.315   5.418   1.709 -0.5381 -1.1184 -0.6949
14497TIP3   OH264905   5.099   0.778   2.074 -0.4780  0.1839 -0.2418
14497TIP3    H164906   5.117   0.851   2.015  2.1882  0.4399  0.7866
14497TIP3    H264907   5.041   0.815   2.141 -0.3090  0.9465 -0.5133
14498TIP3   OH264908   2.567   1.704  13.358 -0.3320 -0.2549 -0.1990
14498TIP3    H164909   2.574   1.729  13.450  0.3283 -1.0726 -0.0072
14498TIP3    H264910   2.658   1.691  13.331 -0.5396 -0.2416 -0.9011
14499TIP3   OH264911   0.648   5.781   2.712  0.1398  0.1147 -0.1557
14499TIP3    H164912   0.633   5.876   2.717 -0.0784  0.1758 -1.6079
14499TIP3    H264913   0.737   5.769   2.745 -0.2438  0.6634  1.1706
14500TIP3   OH264914   5.492   6.421  16.136  0.2607  0.2337 -0.1081
14500TIP3    H164915   5.410   6.461  16.108 -0.3399 -1.5729 -1.0445
14500TIP3    H264916   5.479   6.399  16.228 -0.2760  0.0504 -0.2258
14501TIP3   OH264917   5.586   5.815  13.310 -0.0563  0.3798 -0.3264
14501TIP3    H164918   5.648   5.882  13.280 -1.1945  1.1429 -1.0758
14501TIP3    H264919   5.577   5.756  13.235 -1.5345  1.2687 -0.8872
14502TIP3   OH264920   1.216   2.251   2.731  0.0400  0.1216 -0.3191
14502TIP3    H164921   1.162   2.199   2.791 -0.6586  1.1300 -0.0426
14502TIP3    H264922   1.286   2.285   2.787 -0.7649  1.2852  0.0117
14503TIP3   OH264923   1.250   3.562   5.123  0.1467  0.4334 -0.3629
14503TIP3    H164924   1.279   3.504   5.053 -0.4539  0.7112 -0.8574
14503TIP3    H264925   1.252   3.508   5.202 -0.5479 -0.3122 -0.8391
14504TIP3   OH264926   1.052   1.287   1.290 -0.0269 -0.0020  0.1915
14504TIP3    H164927   1.082   1.374   1.263  0.6525 -0.2425  0.1560
14504TIP3    H264928   1.132   1.233   1.290 -0.5832 -0.8600 -0.6889
14505TIP3   OH264929   5.277   0.828   5.805 -0.4900  0.0027 -0.1434
14505TIP3    H164930   5.186   0.856   5.806 -0.8076 -0.9030 -1.2937
14505TIP3    H264931   5.305   0.834   5.896 -1.1125  2.0901 -0.0453
14506TIP3   OH264932   3.288   2.149   6.580 -0.1797  0.0422  0.1437
14506TIP3    H164933   3.261   2.073   6.631 -0.9429 -0.7965 -1.4549
14506TIP3    H264934   3.238   2.143   6.499  1.2019  1.1799 -0.8354
14507TIP3   OH264935   6.002   3.650   4.205 -0.4967  0.0986  0.1877
14507TIP3    H164936   6.042   3.729   4.170  0.6742 -0.2637  0.6602
14507TIP3    H264937   6.024   3.581   4.143 -1.5525  0.1279 -0.2472
14508TIP3   OH264938   2.646   0.378  11.994 -0.3492 -0.3069  0.4675
14508TIP3    H164939   2.650   0.471  12.017 -2.6317 -0.2079  0.6912
14508TIP3    H264940   2.725   0.363  11.942  0.0444  1.7746  0.3683
14509TIP3   OH264941   2.501   3.061  15.266  0.4975 -0.6817 -0.4531
14509TIP3    H164942   2.549   3.047  15.184  1.0697 -0.7772 -0.1043
14509TIP3    H264943   2.546   3.134  15.308 -2.9129  3.0517 -2.6055
14510TIP3   OH264944   5.552   4.437   5.998 -0.3705 -0.3216 -0.4107
14510TIP3    H164945   5.460   4.443   5.972 -0.6042 -0.0723  0.4298
14510TIP3    H264946   5.557   4.357   6.050  0.1179 -0.8986 -1.3329
14511TIP3   OH264947   3.511   5.847   0.658  0.0622  0.6723 -0.5192
14511TIP3    H164948   3.483   5.798   0.735  1.4696  0.1705 -0.2940
14511TIP3    H264949   3.509   5.784   0.587  0.8990  0.5242 -0.4287
14512TIP3   OH264950   1.651   3.896  10.948 -0.4518  0.4416 -0.3743
14512TIP3    H164951   1.716   3.845  10.996 -0.7046  1.0876  0.6870
14512TIP3    H264952   1.683   3.986  10.953 -1.1221  0.6863 -0.3479
14513TIP3   OH264953   3.050   3.984  11.184 -0.0064  0.4593 -1.1819
14513TIP3    H164954   2.979   4.006  11.124  0.0916  0.0284 -1.4572
14513TIP3    H264955   3.130   3.994  11.131  0.0081 -1.2689 -1.5425
14514TIP3   OH264956   6.139   3.133  12.159 -0.3798 -0.2785 -0.2428
14514TIP3    H164957   6.096   3.051  12.182  1.2609 -1.1430 -0.0779
14514TIP3    H264958   6.179   3.163  12.241 -0.7920  0.5982 -0.3477
14515TIP3   OH264959   6.680   4.100   5.014 -0.4814 -0.8079  0.3429
14515TIP3    H164960   6.747   4.050   4.967 -0.9203  0.1655 -1.4039
14515TIP3    H264961   6.602   4.046   5.008 -0.3595 -1.0126  0.5867
14516TIP3   OH264962   6.693   4.928   3.807  0.5087 -0.0664 -0.2320
14516TIP3    H164963   6.654   4.928   3.895 -1.1384 -0.3833 -0.9270
14516TIP3    H264964   6.787   4.929   3.823  0.2741 -1.1904  1.5499
14517TIP3   OH264965   2.386   6.463  12.333  0.5286  0.1428  0.0603
14517TIP3    H164966   2.428   6.379  12.312  1.3669  0.3512  0.8520
14517TIP3    H264967   2.298   6.439  12.360  0.6111 -0.4432 -0.1547
14518TIP3   OH264968   1.853   4.317   3.146 -0.3338 -0.0381 -0.0412
14518TIP3    H164969   1.772   4.313   3.095  0.3429  0.3739 -1.1552
14518TIP3    H264970   1.890   4.229   3.139 -1.2114 -0.5815  1.4144
14519TIP3   OH264971   1.727   1.815  16.732  0.2446  0.2837 -0.1351
14519TIP3    H164972   1.722   1.908  16.712  0.7125  0.2385 -0.4878
14519TIP3    H264973   1.640   1.781  16.711  0.3533  0.4727 -0.9358
14520TIP3   OH264974   5.751   6.789  10.811  0.5672  0.3253  0.1484
14520TIP3    H164975   5.748   6.815  10.719  0.6212 -2.6075 -0.7810
14520TIP3    H264976   5.829   6.833  10.845  2.0804 -0.5778 -1.9490
14521TIP3   OH264977   4.188   0.534   4.854  0.5452 -0.3259  0.7413
14521TIP3    H164978   4.179   0.438   4.848 -0.6431 -0.1959  0.0722
14521TIP3    H264979   4.189   0.563   4.762 -0.5765  0.4175  0.9546
14522TIP3   OH264980   5.630   4.374   1.308 -0.8069 -0.0579 -0.2797
14522TIP3    H164981   5.698   4.318   1.272  1.1593  1.3644  0.9893
14522TIP3    H264982   5.640   4.457   1.262 -0.4331  0.7402  1.1852
14523TIP3   OH264983   1.635   5.899   3.220 -0.9457  0.3868  0.2717
14523TIP3    H164984   1.723   5.929   3.196 -0.2027 -0.9329  1.2236
14523TIP3    H264985   1.650   5.821   3.273 -2.7407 -0.4119 -0.3308
14524TIP3   OH264986   4.773   4.536   2.375  0.2740 -0.4472 -0.2680
14524TIP3    H164987   4.687   4.551   2.414 -0.0818 -0.8831 -0.8660
14524TIP3    H264988   4.824   4.495   2.445  0.5087  1.2345  0.6104
14525TIP3   OH264989   0.831   5.848   3.421 -0.5380  0.0911  0.6218
14525TIP3    H164990   0.860   5.770   3.373 -0.5773 -0.8611  2.0934
14525TIP3    H264991   0.767   5.889   3.363 -0.1742 -0.7070 -0.3763
14526TIP3   OH264992   0.299   6.567  15.879 -0.2538  0.1705  0.1120
14526TIP3    H164993   0.249   6.566  15.797  0.4499 -1.0175 -0.3204
14526TIP3    H264994   0.317   6.660  15.895  1.1663  0.3294 -2.0465
14527TIP3   OH264995   1.216   5.837  13.888 -0.2459  0.2461 -0.2327
14527TIP3    H164996   1.131   5.862  13.925 -0.1211 -1.5939  1.4501
14527TIP3    H264997   1.203   5.747  13.857  1.3297 -0.4542  1.0045
14528TIP3   OH264998   0.883   4.487   5.428  0.0345 -0.1797 -0.2778
14528TIP3    H164999   0.824   4.563   5.424  0.2184 -0.0952 -1.5257
14528TIP3    H265000   0.923   4.493   5.515  1.4125  2.1816 -1.0182
14529TIP3   OH265001   0.741   2.179  12.669 -0.2948 -0.6673  0.1814
14529TIP3    H165002   0.661   2.131  12.646  0.1431 -0.6664 -1.5277
14529TIP3    H265003   0.713   2.270  12.679 -0.9427 -1.0519  2.3474
14530TIP3   OH265004   1.422   2.971  14.281 -0.1676  0.0269 -1.3707
14530TIP3    H165005   1.470   3.028  14.341 -1.4864 -0.0086 -0.2217
14530TIP3    H265006   1.455   2.883  14.300  0.8525  0.2279 -2.1423
14531TIP3   OH265007   6.642   5.429  11.213 -0.3916  0.4262  0.5198
14531TIP3    H165008   6.653   5.375  11.135  0.5748 -0.0748  0.9881
14531TIP3    H265009   6.550   5.454  11.212 -0.4938  0.0646 -0.5400
14532TIP3   OH265010   3.146   2.279   3.052  0.3834 -0.0806 -0.3187
14532TIP3    H165011   3.206   2.206   3.034  1.4004  1.1997 -2.5507
14532TIP3    H265012   3.059   2.244   3.032  0.8415 -0.7466 -1.2347
14533TIP3   OH265013   5.084   0.400   0.574 -0.3084 -0.1155 -0.1469
14533TIP3    H165014   4.999   0.379   0.537 -1.2657  0.2793  1.6912
14533TIP3    H265015   5.124   0.459   0.510 -3.4536  3.6663  0.9273
14534TIP3   OH265016   4.818   4.197  15.387  0.0230  0.5696  0.4298
14534TIP3    H165017   4.835   4.252  15.464  0.5451 -1.2465  1.6631
14534TIP3    H265018   4.828   4.107  15.418 -1.8344 -0.3173 -1.2685
14535TIP3   OH265019   5.777   3.298   4.939  0.2366  0.6172 -0.1331
14535TIP3    H165020   5.710   3.238   4.972  0.7829  0.6205  1.0548
14535TIP3    H265021   5.732   3.349   4.871 -0.1096 -1.4192 -1.5118
14536TIP3   OH265022   4.498   2.084   1.880 -0.8123 -0.3330  0.4853
14536TIP3    H165023   4.486   2.175   1.851 -1.3274 -0.5088  0.1366
14536TIP3    H265024   4.410   2.052   1.896 -0.7253 -1.1156 -0.4759
14537TIP3   OH265025   0.847   6.156   2.255 -0.7273 -0.0760 -0.2812
14537TIP3    H165026   0.822   6.207   2.178 -1.3197  0.6608  0.3861
14537TIP3    H265027   0.773   6.097   2.269 -1.0745  0.4957  0.3214
14538TIP3   OH265028   0.775   1.858  13.351  0.0792  0.1766  0.4433
14538TIP3    H165029   0.818   1.854  13.266 -1.0446 -0.1026 -0.1348
14538TIP3    H265030   0.764   1.766  13.376 -0.7283  0.2246  0.2876
14539TIP3   OH265031   1.637   3.767  16.497  0.0555 -0.0462  0.4736
14539TIP3    H165032   1.701   3.700  16.519  0.5416  0.8613  2.0369
14539TIP3    H265033   1.566   3.720  16.454 -0.7097 -2.0518  3.5710
14540TIP3   OH265034   3.930   2.424   0.405 -0.8995  0.3792  0.6647
14540TIP3    H165035   3.963   2.351   0.352 -0.0711  0.1700  1.4555
14540TIP3    H265036   3.845   2.444   0.366 -0.6044 -0.2003 -0.3333
14541TIP3   OH265037   1.518   5.117  11.284 -0.3671  0.2629 -0.1002
14541TIP3    H165038   1.607   5.147  11.304 -1.5062  2.8608  1.6332
14541TIP3    H265039   1.479   5.189  11.233 -1.9564 -0.0969  0.5452
14542TIP3   OH265040   1.548   3.922  16.051  0.4036  0.1957 -0.3198
14542TIP3    H165041   1.625   3.962  16.009  1.3445 -1.2981 -0.0786
14542TIP3    H265042   1.563   3.936  16.145  0.3540 -0.0636 -0.2756
14543TIP3   OH265043   1.690   5.214   0.230 -0.1722  0.3342 -0.3557
14543TIP3    H165044   1.695   5.310   0.221 -2.0306  0.4897 -0.0827
14543TIP3    H265045   1.780   5.187   0.244  0.1840  2.2761  1.6864
14544TIP3   OH265046   3.302   4.877   1.054 -0.0592  1.0143  0.1626
14544TIP3    H165047   3.248   4.830   0.991 -0.2252  1.1015  0.2387
14544TIP3    H265048   3.261   4.859   1.139  0.3162  0.6827  0.2757
14545TIP3   OH265049   0.677   0.679   4.970 -0.2390  0.3911  0.3265
14545TIP3    H165050   0.706   0.622   5.041  1.3519  1.3283  0.4811
14545TIP3    H265051   0.733   0.757   4.977 -2.1972  1.9064  0.0031
14546TIP3   OH265052   4.226   3.011  15.994 -0.0239 -0.5587  0.1865
14546TIP3    H165053   4.309   3.043  16.029  0.6263 -0.5888 -1.2283
14546TIP3    H265054   4.182   3.090  15.960  1.0320 -0.8927 -2.1950
14547TIP3   OH265055   2.910   2.221  12.007 -0.0402  0.1033  0.0112
14547TIP3    H165056   2.968   2.177  11.945 -2.3880 -2.3683 -0.6492
14547TIP3    H265057   2.916   2.169  12.087 -1.5135 -0.4364 -0.1849
14548TIP3   OH265058   3.187   3.801  15.511 -0.0701  0.4234 -0.3907
14548TIP3    H165059   3.142   3.835  15.434 -0.2062  1.8248  0.2681
14548TIP3    H265060   3.220   3.879  15.555  0.9545 -0.4266  0.3950
14549TIP3   OH265061   5.981   6.130   1.125 -0.3137 -0.5534 -0.2425
14549TIP3    H165062   5.929   6.182   1.064 -0.2980  0.2153  0.3737
14549TIP3    H265063   5.916   6.081   1.176 -0.3170 -1.3566 -0.9973
14550TIP3   OH265064   4.024   6.827  11.968  0.0184 -0.6196  0.3043
14550TIP3    H165065   3.965   6.901  11.958 -0.4233 -0.7934  1.5295
14550TIP3    H265066   4.050   6.806  11.878  1.0186  1.6818 -0.0125
14551TIP3   OH265067   1.925   5.122   4.618  0.1568 -0.1358  0.1513
14551TIP3    H165068   2.001   5.132   4.675 -1.2039  0.5854  1.9492
14551TIP3    H265069   1.906   5.028   4.619  0.7355 -0.2556  0.0580
14552TIP3   OH265070   1.468   2.820  11.663 -0.1017  0.3427 -0.3437
14552TIP3    H165071   1.391   2.835  11.608 -0.6849 -0.3858  0.2481
14552TIP3    H265072   1.513   2.746  11.622 -0.7970 -0.5146  0.4055
14553TIP3   OH265073   0.422   4.693   6.095  0.2249 -0.0733 -0.1911
14553TIP3    H165074   0.395   4.610   6.134 -2.1745 -0.1846 -1.8397
14553TIP3    H265075   0.512   4.677   6.066 -0.4352 -2.4672 -1.2484
14554TIP3   OH265076   3.866   3.899   0.480  0.4993 -0.8017 -0.2842
14554TIP3    H165077   3.851   3.980   0.432  1.1265 -1.1902 -1.1749
14554TIP3    H265078   3.879   3.833   0.412 -0.9420 -1.8505  0.4073
14555TIP3   OH265079   4.127   0.328  15.399 -0.1421 -0.0026 -0.4957
14555TIP3    H165080   4.205   0.282  15.433  0.1427 -0.4636 -1.7157
14555TIP3    H265081   4.111   0.288  15.314 -0.7589  1.2061 -0.9699
14556TIP3   OH265082   1.411   5.403  13.305  0.3910  0.1951  0.3165
14556TIP3    H165083   1.373   5.480  13.348  0.9150  0.3401  0.5284
14556TIP3    H265084   1.436   5.435  13.218 -2.5611 -0.6000 -0.9403
14557TIP3   OH265085   3.449   3.441  12.070  0.4335 -0.0377  0.4634
14557TIP3    H165086   3.507   3.437  11.994  0.5325  0.0596  0.5341
14557TIP3    H265087   3.367   3.403  12.038  0.4512  0.0695  0.2866
14558TIP3   OH265088   4.357   1.788   2.212  0.1606 -0.0158 -0.3200
14558TIP3    H165089   4.262   1.779   2.201  0.0952 -0.5438  0.5263
14558TIP3    H265090   4.374   1.881   2.203 -0.4095  0.0553 -0.7187
14559TIP3   OH265091   1.331   6.444  14.415  0.3198 -0.0041 -0.3600
14559TIP3    H165092   1.328   6.375  14.482  0.6632 -0.1859 -0.5276
14559TIP3    H265093   1.424   6.457  14.399  0.4063  2.1716  1.3811
14560TIP3   OH265094   4.031   2.371  13.850 -0.3213  0.5017  0.2273
14560TIP3    H165095   4.013   2.281  13.822  0.3162  0.7588 -1.0936
14560TIP3    H265096   4.092   2.404  13.784 -1.0524  2.1224  0.3240
14561TIP3   OH265097   5.937   6.831  11.078 -0.3432  0.0651  0.7189
14561TIP3    H165098   5.903   6.742  11.066  0.6763 -0.3715  0.9371
14561TIP3    H265099   5.928   6.847  11.172  1.3917 -0.6498  1.0501
14562TIP3   OH265100   4.658   6.678   5.709 -0.2923  0.0854 -0.4431
14562TIP3    H165101   4.607   6.748   5.748 -2.0225 -1.0872 -0.4941
14562TIP3    H265102   4.718   6.651   5.779 -1.0682  0.2272  0.3040
14563TIP3   OH265103   2.287   3.678   2.214 -0.0334  0.2873 -0.2765
14563TIP3    H165104   2.370   3.638   2.240  0.4051  1.4545  0.2048
14563TIP3    H265105   2.220   3.631   2.265  0.7064  1.8016  2.3059
14564TIP3   OH265106   5.385   1.611   2.176 -0.3197 -0.0664 -0.1191
14564TIP3    H165107   5.416   1.569   2.096  1.1902  2.4039 -0.9415
14564TIP3    H265108   5.421   1.557   2.247 -0.5523 -1.5333 -1.0629
14565TIP3   OH265109   3.584   0.200   4.193  0.6066 -0.2304 -0.5393
14565TIP3    H165110   3.677   0.185   4.207  0.6101  0.6421  0.4947
14565TIP3    H265111   3.579   0.291   4.162  0.1991 -0.6971 -1.9170
14566TIP3   OH265112   4.303   0.526  15.082 -0.3740 -0.3369 -0.0612
14566TIP3    H165113   4.238   0.485  15.025 -0.6788  2.1393 -1.6503
14566TIP3    H265114   4.385   0.519  15.034  0.3282 -2.1673  1.2898
14567TIP3   OH265115   6.607   1.005  16.352 -0.3896  0.2532  0.2759
14567TIP3    H165116   6.530   0.994  16.297  0.6879  0.7373 -1.4015
14567TIP3    H265117   6.592   0.947  16.427 -1.2567 -1.5560 -1.2359
14568TIP3   OH265118   4.982   5.876   1.889  0.1969  0.4778  0.1001
14568TIP3    H165119   5.031   5.834   1.960 -0.0574 -0.1486 -0.0880
14568TIP3    H265120   4.920   5.809   1.860  1.3900  0.1440 -1.8132
14569TIP3   OH265121   0.985   0.420  16.992 -0.0769 -0.2536  0.5605
14569TIP3    H165122   1.025   0.433  17.078  0.2854 -1.9274  0.6879
14569TIP3    H265123   0.892   0.410  17.010  0.2301 -2.7398  1.0706
14570TIP3   OH265124   5.169   2.945   0.361 -0.1666  1.0894 -0.3087
14570TIP3    H165125   5.188   2.858   0.327  0.9815  0.3894  1.9076
14570TIP3    H265126   5.074   2.954   0.352 -0.7214 -1.5228  1.7014
14571TIP3   OH265127   2.868   2.970  12.560 -0.5880  0.4715 -0.6820
14571TIP3    H165128   2.937   2.952  12.624 -0.1014 -0.4795 -1.4432
14571TIP3    H265129   2.910   3.027  12.496 -0.0318 -1.1903 -1.8826
14572TIP3   OH265130   1.744   4.063   5.041 -0.1900  0.3946 -0.7058
14572TIP3    H165131   1.721   4.117   5.117  0.0960 -1.3452  0.6862
14572TIP3    H265132   1.674   3.997   5.038 -1.2619  1.5333 -3.1676
14573TIP3   OH265133   3.847   4.489   4.278  0.5541  0.3485 -0.1148
14573TIP3    H165134   3.917   4.505   4.214 -0.2622  0.2882 -1.0498
14573TIP3    H265135   3.892   4.459   4.356  1.5085 -0.6761 -1.0324
14574TIP3   OH265136   3.930   1.640  16.415 -0.2411  0.1726  0.0947
14574TIP3    H165137   3.992   1.576  16.381 -2.1240 -0.5679 -2.2315
14574TIP3    H265138   3.872   1.659  16.341 -1.1404  2.8834  1.3531
14575TIP3   OH265139   1.958   0.616   2.556  0.1838  0.0729  0.0514
14575TIP3    H165140   1.946   0.642   2.648  0.3108  1.2340 -0.2373
14575TIP3    H265141   1.985   0.697   2.512  3.2109 -1.0757 -0.4467
14576TIP3   OH265142   0.339   4.968   4.408 -0.0961 -0.3036 -0.1456
14576TIP3    H165143   0.275   4.957   4.338 -1.7277 -0.7210  1.3193
14576TIP3    H265144   0.345   4.881   4.448  1.5929 -0.3204 -0.3867
14577TIP3   OH265145   1.728   5.499  15.769  0.3201 -0.1805 -0.0510
14577TIP3    H165146   1.669   5.565  15.734  0.0662 -0.4995 -0.2359
14577TIP3    H265147   1.762   5.453  15.692 -0.4502 -1.0643  0.1135
14578TIP3   OH265148   4.121   4.504   3.842 -0.0110  0.2470 -0.1532
14578TIP3    H165149   4.091   4.416   3.863 -0.7598  0.5202 -0.0331
14578TIP3    H265150   4.207   4.512   3.884  0.0404 -0.4077 -0.1376
14579TIP3   OH265151   1.898   0.859  10.586 -0.6196  0.0896  0.0163
14579TIP3    H165152   1.909   0.943  10.539  0.0371  0.9940  1.7070
14579TIP3    H265153   1.818   0.870  10.637 -0.1236 -0.0023  0.8353
14580TIP3   OH265154   0.018   4.421   5.192 -0.1117  0.5732  0.2570
14580TIP3    H165155   0.082   4.369   5.240  2.0633  0.7734 -2.1770
14580TIP3    H265156  -0.015   4.484   5.255  0.5235 -0.8661  2.1194
14581TIP3   OH265157   1.261   0.384   3.319 -0.2032 -0.5204 -0.5490
14581TIP3    H165158   1.177   0.353   3.284 -1.6389  1.1896  1.1769
14581TIP3    H265159   1.270   0.472   3.283  0.3363 -0.3034  0.1245
14582TIP3   OH265160   6.206   6.289   0.180 -0.2642 -0.5194 -0.4739
14582TIP3    H165161   6.236   6.335   0.258 -1.1285 -4.9998  2.8800
14582TIP3    H265162   6.286   6.261   0.135  0.2667  0.4337 -0.1393
14583TIP3   OH265163   3.327   3.823   4.721  0.0425 -0.5964 -0.6572
14583TIP3    H165164   3.310   3.916   4.735 -1.2631 -1.0287  0.9596
14583TIP3    H265165   3.364   3.818   4.633 -2.4353  1.1844 -1.9254
14584TIP3   OH265166   5.377   5.998   2.724 -0.5858 -0.1803  0.0122
14584TIP3    H165167   5.460   5.983   2.679 -0.5873 -0.3658  0.0685
14584TIP3    H265168   5.320   6.036   2.658 -0.5912 -0.4601 -0.1439
14585TIP3   OH265169   5.524   1.858   2.200  0.6823  0.5354  0.3478
14585TIP3    H165170   5.505   1.939   2.248  0.8338 -0.2938  1.8537
14585TIP3    H265171   5.445   1.805   2.210  1.8987 -1.0119  2.6482
14586TIP3   OH265172   1.379   2.842   5.695 -0.4057 -0.0139 -0.0367
14586TIP3    H165173   1.339   2.927   5.677  1.8015  0.6714 -2.3314
14586TIP3    H265174   1.366   2.792   5.614 -0.0614 -1.1962  0.6128
14587TIP3   OH265175   6.504   4.604  14.113 -0.2682 -0.0681  0.1243
14587TIP3    H165176   6.422   4.578  14.156 -1.2080  2.1972 -0.1526
14587TIP3    H265177   6.515   4.539  14.044 -0.2513 -2.0921  1.9249
14588TIP3   OH265178   3.773   5.450  13.115  0.1734  0.1010 -0.2061
14588TIP3    H165179   3.785   5.358  13.093  0.5534 -0.0557  0.6227
14588TIP3    H265180   3.832   5.497  13.056  0.8301 -0.2734  0.1455
14589TIP3   OH265181   0.729   1.905  13.950 -0.3614 -0.3631  0.2484
14589TIP3    H165182   0.697   1.984  13.906 -2.0380  0.5227  2.8139
14589TIP3    H265183   0.821   1.924  13.970 -0.9307  1.3519  1.5091
14590TIP3   OH265184   0.433   3.958  11.776 -0.0981  0.4409  0.0149
14590TIP3    H165185   0.440   4.052  11.789 -2.6540  0.5720  0.9422
14590TIP3    H265186   0.500   3.938  11.712  2.9068  2.2908  2.2869
14591TIP3   OH265187   4.230   1.221  10.645 -0.1407  0.0865 -0.2101
14591TIP3    H165188   4.291   1.220  10.719 -0.8373  0.2127  0.3709
14591TIP3    H265189   4.255   1.299  10.594 -0.3612  0.6220  0.4900
14592TIP3   OH265190   0.159   3.114  12.879  0.0628 -0.0919  0.5952
14592TIP3    H165191   0.243   3.100  12.922  0.3294  1.7278  0.7348
14592TIP3    H265192   0.108   3.167  12.940 -1.3607 -1.4848  0.6833
14593TIP3   OH265193   5.169   3.673   2.149 -0.9726 -0.0922 -0.1128
14593TIP3    H165194   5.194   3.581   2.158  0.0992  0.2637  0.7317
14593TIP3    H265195   5.247   3.716   2.115 -1.1438  0.6768  0.4383
14594TIP3   OH265196   0.844   4.857   0.901  0.6068  0.1261 -0.1199
14594TIP3    H165197   0.933   4.834   0.929  0.6751  0.3448 -0.1593
14594TIP3    H265198   0.835   4.949   0.924 -0.4561 -0.4594  2.0703
14595TIP3   OH265199   1.843   5.919   4.978 -0.1967  0.5578 -0.0150
14595TIP3    H165200   1.796   6.000   4.997 -3.0649 -0.8293 -0.6745
14595TIP3    H265201   1.853   5.876   5.063 -2.4285 -0.2468 -0.1057
14596TIP3   OH265202   3.639   3.935  11.066 -0.5794 -0.1575 -0.7328
14596TIP3    H165203   3.670   3.986  10.992  1.0126  1.3815  0.9007
14596TIP3    H265204   3.544   3.951  11.069 -0.1456  2.7245 -0.3357
14597TIP3   OH265205   3.202   0.259   1.740  0.0589  0.0670 -0.5294
14597TIP3    H165206   3.275   0.318   1.724 -0.7195  1.0120 -0.7084
14597TIP3    H265207   3.240   0.186   1.789  1.0994  0.5633 -0.5742
14598TIP3   OH265208   2.533   5.951  14.085  0.3527  0.0349 -0.4701
14598TIP3    H165209   2.483   6.024  14.122 -0.2103  0.0543 -1.2304
14598TIP3    H265210   2.614   5.990  14.054  0.1497  0.3097 -0.6661
14599TIP3   OH265211   3.055   3.023   0.123 -0.0947  0.2585 -0.4795
14599TIP3    H165212   2.992   3.037   0.193  1.3864 -0.0177  0.9822
14599TIP3    H265213   3.031   2.938   0.086 -0.6065  0.1821  0.0194
14600TIP3   OH265214   5.680   1.555   1.246 -0.6553  0.1492 -0.7112
14600TIP3    H165215   5.626   1.532   1.322  0.0108  0.1989 -0.2130
14600TIP3    H265216   5.620   1.602   1.187 -0.9080  1.1602  0.3081
14601TIP3   OH265217   1.349   1.892   4.629 -0.2189  0.4159  0.0346
14601TIP3    H165218   1.438   1.911   4.599 -0.5519  0.8231 -0.7206
14601TIP3    H265219   1.298   1.883   4.548 -0.5667 -1.3558  0.4133
14602TIP3   OH265220   3.758   0.942  12.891 -0.5924  0.2912  0.3312
14602TIP3    H165221   3.663   0.943  12.881 -0.4874  1.2332 -0.9310
14602TIP3    H265222   3.787   1.023  12.847  1.0172 -1.4590 -2.0695
14603TIP3   OH265223   3.535   4.354  13.895  0.1571  0.3122 -0.0691
14603TIP3    H165224   3.497   4.392  13.974 -1.1542  1.8274 -1.3733
14603TIP3    H265225   3.496   4.404  13.823  2.7024  0.2382 -1.6121
14604TIP3   OH265226   0.497   2.309  11.121 -0.0954 -0.3170  0.5093
14604TIP3    H165227   0.523   2.224  11.156  0.4815  0.1623  1.2627
14604TIP3    H265228   0.503   2.299  11.026 -1.2863 -1.5147  0.5269
14605TIP3   OH265229   1.907   5.453  13.570 -0.9428 -0.0654  0.0857
14605TIP3    H165230   1.873   5.489  13.488 -0.1383  1.3039  0.3212
14605TIP3    H265231   1.980   5.398  13.544 -0.2548  0.9038 -0.1084
14606TIP3   OH265232   4.430   0.096   5.329 -0.0397  0.3197  0.0221
14606TIP3    H165233   4.525   0.106   5.333  0.1609  0.1506 -2.6859
14606TIP3    H265234   4.398   0.142   5.407  2.3107 -1.7434  2.4159
14607TIP3   OH265235   2.693   3.431  11.895 -0.4816  0.4222 -0.6766
14607TIP3    H165236   2.765   3.492  11.880 -1.0180  1.4020  0.4915
14607TIP3    H265237   2.628   3.454  11.829 -1.0968  1.8526  0.3631
14608TIP3   OH265238   1.732   0.077  16.114  0.4312  0.5607  0.1834
14608TIP3    H165239   1.739  -0.013  16.082 -3.0997  0.2132 -0.0019
14608TIP3    H265240   1.723   0.068  16.209 -2.3087  0.4072 -0.0189
14609TIP3   OH265241   2.362   6.215   6.082 -0.3513 -0.5141  0.3072
14609TIP3    H165242   2.287   6.174   6.038  0.1536 -0.0336 -1.0495
14609TIP3    H265243   2.434   6.153   6.069  0.7635  1.2083 -2.9093
14610TIP3   OH265244   4.966   6.507   6.105  0.3628  0.2752  0.2648
14610TIP3    H165245   4.978   6.413   6.116 -0.4626  0.2893  1.5802
14610TIP3    H265246   4.999   6.545   6.186  0.2258  1.0714 -0.0469
14611TIP3   OH265247   5.307   3.861  13.010  0.0515 -0.0911 -0.4149
14611TIP3    H165248   5.292   3.955  13.007 -0.4083 -0.0908  1.0209
14611TIP3    H265249   5.272   3.834  13.095 -0.7141 -1.7134 -1.2004
14612TIP3   OH265250   6.434   4.038  15.448 -0.3717 -0.0278  0.3155
14612TIP3    H165251   6.441   4.005  15.358 -1.3626  1.1852 -0.2301
14612TIP3    H265252   6.521   4.073  15.467  0.0539 -0.9470  0.1050
14613TIP3   OH265253   6.519   4.723  13.010 -0.1217 -0.1453  0.4257
14613TIP3    H165254   6.445   4.722  13.071 -0.5304 -0.9886 -0.0598
14613TIP3    H265255   6.532   4.630  12.988  0.7202  0.0525  0.0772
14614TIP3   OH265256   5.348   6.428   2.254 -0.1895 -0.2307 -0.2635
14614TIP3    H165257   5.302   6.495   2.304  0.4721  0.0430 -0.0048
14614TIP3    H265258   5.315   6.437   2.165 -0.1133  0.4358 -0.2286
14615TIP3   OH265259   5.578   0.564  11.406 -0.0973 -0.0293  0.3285
14615TIP3    H165260   5.610   0.474  11.392  1.9286  0.4555  1.5795
14615TIP3    H265261   5.628   0.596  11.481 -1.0626  2.0354  0.1369
14616TIP3   OH265262   1.821   0.471   1.249 -0.3189 -0.6419  0.1293
14616TIP3    H165263   1.905   0.435   1.219 -0.0712 -0.3804  0.5014
14616TIP3    H265264   1.758   0.442   1.183 -0.4724 -3.3079  1.3073
14617TIP3   OH265265   0.439   2.216   2.013 -0.4672 -0.6424 -0.4671
14617TIP3    H165266   0.407   2.135   2.053  0.7357 -0.9911 -0.1778
14617TIP3    H265267   0.400   2.216   1.926 -0.5542 -1.4907 -0.4393
14618TIP3   OH265268   1.649   2.297  12.335 -0.0123  0.0737 -0.0648
14618TIP3    H165269   1.712   2.298  12.263 -0.2569 -0.6752 -0.3023
14618TIP3    H265270   1.695   2.339  12.408  0.1062  1.1771 -0.7556
14619TIP3   OH265271   5.763   0.907   1.718  0.3461 -0.2496 -0.1013
14619TIP3    H165272   5.719   0.988   1.691 -0.5355 -0.8112 -0.3788
14619TIP3    H265273   5.746   0.846   1.647 -4.3935 -2.6784  2.5911
14620TIP3   OH265274   1.582   2.185   4.689 -0.6033 -0.2805 -0.0216
14620TIP3    H165275   1.503   2.237   4.707 -0.6404 -0.0535 -0.8228
14620TIP3    H265276   1.655   2.243   4.710 -0.6242 -0.7710  1.5430
14621TIP3   OH265277   3.911   2.668  14.084 -0.3813  0.0900  0.8393
14621TIP3    H165278   3.951   2.739  14.135 -0.5446  0.9659 -0.2207
14621TIP3    H265279   3.863   2.712  14.014  0.1082 -1.0888 -0.2827
14622TIP3   OH265280   6.450   5.007   2.995 -0.0109  0.4388 -1.0253
14622TIP3    H165281   6.406   5.089   3.015 -1.1897 -0.3052 -0.4009
14622TIP3    H265282   6.397   4.968   2.924  1.6635  1.0864 -2.7101
14623TIP3   OH265283   6.627   1.085  12.319 -0.2138  0.0882 -0.4125
14623TIP3    H165284   6.586   1.159  12.275 -0.1647 -0.7955 -2.0102
14623TIP3    H265285   6.719   1.088  12.293 -0.5447 -1.4939 -1.9272
14624TIP3   OH265286   3.087   1.749  13.135 -0.4310  0.6474 -0.1306
14624TIP3    H165287   3.043   1.664  13.130 -2.6410  1.7354 -0.5807
14624TIP3    H265288   3.073   1.788  13.049  0.9819  1.3043 -0.0941
14625TIP3   OH265289   6.803   1.354   0.701 -0.0828  0.1123  0.5904
14625TIP3    H165290   6.756   1.349   0.784 -0.0250 -0.6451  0.5824
14625TIP3    H265291   6.896   1.349   0.725 -0.0872 -0.7835  0.4355
14626TIP3   OH265292   1.281   3.323  10.433 -0.2427  0.3630  0.0841
14626TIP3    H165293   1.322   3.237  10.439 -1.2161 -0.0550  0.9244
14626TIP3    H265294   1.280   3.343  10.340 -0.3199 -0.6839 -0.1441
14627TIP3   OH265295   5.157   6.668  15.040 -0.3539 -0.1323 -0.3111
14627TIP3    H165296   5.139   6.761  15.052  1.5175  0.3342 -0.8593
14627TIP3    H265297   5.077   6.633  15.002 -0.8140  1.4087 -0.8270
14628TIP3   OH265298   3.548   2.310  16.406  0.1473 -0.5886  0.3793
14628TIP3    H165299   3.513   2.221  16.410  0.6417 -1.1384 -3.7098
14628TIP3    H265300   3.470   2.365  16.402 -0.2301 -1.1803 -0.9062
14629TIP3   OH265301   1.974   4.462  14.456 -0.2213 -0.4973  0.2982
14629TIP3    H165302   2.022   4.529  14.504 -1.0842 -0.1753  0.7340
14629TIP3    H265303   2.007   4.379  14.491 -0.4943 -0.2716  1.1164
14630TIP3   OH265304   6.303   4.882   5.936 -0.0650 -0.0616 -0.5657
14630TIP3    H165305   6.310   4.809   5.875  1.3610  0.2758 -0.8365
14630TIP3    H265306   6.271   4.842   6.017  1.3253 -1.1234 -0.5073
14631TIP3   OH265307   5.931   5.601   5.060  0.5339 -0.2456  0.3874
14631TIP3    H165308   5.875   5.676   5.038  0.4164 -0.7859 -1.3708
14631TIP3    H265309   5.883   5.554   5.129 -1.2673 -0.7027 -1.0752
14632TIP3   OH265310   2.993   5.601  15.841  0.0227 -0.3813 -0.0979
14632TIP3    H165311   2.990   5.693  15.867 -1.9720 -0.3245 -0.3312
14632TIP3    H265312   3.062   5.596  15.775  0.3804  0.8683  0.1615
14633TIP3   OH265313   4.267   4.316  11.440 -0.1046 -0.2538  0.0879
14633TIP3    H165314   4.273   4.288  11.348 -0.1767 -0.7861  0.2454
14633TIP3    H265315   4.325   4.392  11.445 -2.3750  1.7236 -1.1386
14634TIP3   OH265316   6.190   3.491  16.262 -0.0022  0.1875  0.0237
14634TIP3    H165317   6.096   3.502  16.274 -0.1275  0.8250 -1.3059
14634TIP3    H265318   6.198   3.413  16.206  0.3006 -0.2225  0.6290
14635TIP3   OH265319   1.908   5.840   1.561  0.0339 -0.4518  0.0026
14635TIP3    H165320   1.905   5.789   1.480 -0.8349  1.9469 -1.5816
14635TIP3    H265321   2.001   5.862   1.571  0.1187 -0.5685 -0.4731
14636TIP3   OH265322   6.050   2.689   4.354  0.4054  0.6780 -0.7251
14636TIP3    H165323   5.961   2.717   4.333  1.2284  3.2756 -1.1956
14636TIP3    H265324   6.078   2.639   4.277 -1.0552 -1.4029  0.0191
14637TIP3   OH265325   5.141   3.384  14.216 -0.6937 -0.0985 -0.3780
14637TIP3    H165326   5.177   3.342  14.294 -0.1015 -0.3493 -0.7761
14637TIP3    H265327   5.094   3.460  14.249 -0.3267 -0.1236  0.2103
14638TIP3   OH265328   5.021   3.903   0.453  0.6902 -0.2281 -0.1469
14638TIP3    H165329   4.966   3.878   0.379 -1.5853  1.2310  0.9461
14638TIP3    H265330   4.970   3.879   0.531  1.4152  1.4822  0.9293
14639TIP3   OH265331   6.138   2.397  15.913 -0.0122  0.0567 -0.1049
14639TIP3    H165332   6.213   2.454  15.931  0.6446 -1.1251  1.1383
14639TIP3    H265333   6.095   2.386  15.998 -0.7337 -0.4526 -0.5248
14640TIP3   OH265334   5.340   5.132  13.591  0.1704  0.1141 -0.3843
14640TIP3    H165335   5.303   5.198  13.650 -0.2681 -0.6249  0.1896
14640TIP3    H265336   5.434   5.139  13.603  0.1359  0.7683 -0.4746
14641TIP3   OH265337   3.149   5.003  15.381  0.2852  0.4557  0.2531
14641TIP3    H165338   3.197   5.084  15.365 -0.8924  0.9967 -0.6626
14641TIP3    H265339   3.217   4.936  15.385  1.3780  1.5715  1.9012
14642TIP3   OH265340   2.875   3.305  13.714  0.0103  0.1213  0.3338
14642TIP3    H165341   2.786   3.285  13.743 -0.0468  1.8336  1.5207
14642TIP3    H265342   2.866   3.383  13.660  0.6783 -0.3491 -0.4697
14643TIP3   OH265343   3.902   4.485   2.075 -0.4044  0.1909  0.3621
14643TIP3    H165344   3.831   4.517   2.020 -1.3577 -2.2320  0.0554
14643TIP3    H265345   3.982   4.516   2.032 -1.2002  2.1517  0.1871
14644TIP3   OH265346   0.978   5.092   0.195  0.0629 -0.5722 -0.4161
14644TIP3    H165347   0.929   5.167   0.160  0.6563 -0.4920 -1.0987
14644TIP3    H265348   1.036   5.130   0.261 -0.3792 -0.5861 -0.0151
14645TIP3   OH265349   0.347   3.391  10.176  0.3340 -0.6344 -0.2887
14645TIP3    H165350   0.412   3.363  10.113 -1.3414 -1.6312 -1.6584
14645TIP3    H265351   0.383   3.366  10.261  3.4331  2.2324 -0.5104
14646TIP3   OH265352   5.225   1.938   4.230  0.5596  0.4452  0.3024
14646TIP3    H165353   5.178   1.863   4.192  0.3615 -0.2356  1.8027
14646TIP3    H265354   5.240   1.997   4.156 -2.4802  0.6064 -0.3395
14647TIP3   OH265355   0.090   0.667   4.027  0.1661 -0.0180 -0.4112
14647TIP3    H165356   0.103   0.740   4.087 -0.8556 -1.3216  1.4714
14647TIP3    H265357   0.173   0.618   4.031 -0.2983 -0.7465  0.9083
14648TIP3   OH265358   4.920   2.297  11.850  0.3176 -0.0327 -0.0681
14648TIP3    H165359   4.908   2.303  11.756 -0.5058 -1.9394 -0.1217
14648TIP3    H265360   4.887   2.380  11.884 -1.4412 -0.1811 -1.2895
14649TIP3   OH265361   5.673   1.148  12.851 -0.1931  0.4541  0.2736
14649TIP3    H165362   5.633   1.235  12.849 -0.4112  0.4283  1.8596
14649TIP3    H265363   5.757   1.160  12.807  0.1870  1.7239  1.2518
14650TIP3   OH265364   0.703   3.727   5.532  0.3032  0.1290 -0.0789
14650TIP3    H165365   0.745   3.647   5.501 -0.5181 -0.4362  0.2256
14650TIP3    H265366   0.753   3.798   5.492  0.9075 -0.5401 -0.5280
14651TIP3   OH265367   3.409   0.365  12.158  0.3162 -0.2028  0.2497
14651TIP3    H165368   3.458   0.291  12.194 -0.7945 -0.1891  1.8565
14651TIP3    H265369   3.465   0.441  12.173  0.1078 -0.2800  1.4680
14652TIP3   OH265370   2.316   0.077  12.448 -0.1956 -0.1211 -0.3262
14652TIP3    H165371   2.222   0.063  12.433  0.2763 -1.4457 -2.5431
14652TIP3    H265372   2.354  -0.011  12.444  1.0567  0.2932  1.5204
14653TIP3   OH265373   5.653   2.635  15.069 -0.0962  0.7872  0.6314
14653TIP3    H165374   5.648   2.688  14.989 -3.1323  2.3775  1.7270
14653TIP3    H265375   5.574   2.581  15.067 -0.1611  0.7570  2.4571
14654TIP3   OH265376   5.830   5.893   2.267  1.1980  0.3367  0.1534
14654TIP3    H165377   5.777   5.815   2.253  0.3332  1.3106 -2.7409
14654TIP3    H265378   5.921   5.862   2.263  0.8713 -0.6806  0.3077
14655TIP3   OH265379   4.070   2.690   3.493 -0.2682  0.5539 -0.0361
14655TIP3    H165380   4.119   2.643   3.425 -0.3305 -0.1579  0.4012
14655TIP3    H265381   4.100   2.781   3.486 -1.5401  0.8775 -2.1590
14656TIP3   OH265382   1.942   5.476   5.961  0.2523  0.3150 -0.3923
14656TIP3    H165383   1.884   5.484   6.036  2.4665  0.6899  1.3554
14656TIP3    H265384   2.011   5.416   5.989  0.3594 -0.7794 -2.6843
14657TIP3   OH265385   2.830   2.063   5.304  0.2211  0.2982  0.2913
14657TIP3    H165386   2.800   2.102   5.386  2.1810  2.2132  0.1785
14657TIP3    H265387   2.913   2.021   5.326 -0.0253 -0.5843 -0.3988
14658TIP3   OH265388   6.715   3.417  11.257  0.5944 -0.4776 -0.1535
14658TIP3    H165389   6.745   3.386  11.342 -0.2454 -1.1823 -0.0916
14658TIP3    H265390   6.626   3.382  11.249  0.1630  0.6800 -0.7539
14659TIP3   OH265391   1.718   0.968  10.349  0.4696  0.2808  0.4212
14659TIP3    H165392   1.709   0.970  10.254 -1.5500 -0.6673  0.5574
14659TIP3    H265393   1.808   0.998  10.365  0.6934  0.9074 -1.7389
14660TIP3   OH265394   5.555   3.090   1.081 -0.1351  0.2788 -0.1622
14660TIP3    H165395   5.521   3.078   1.169  1.1171  1.0465  0.4490
14660TIP3    H265396   5.650   3.095   1.092  0.0596  0.1410 -1.5842
14661TIP3   OH265397   5.138   6.815  11.614 -0.4889  0.3441 -0.1290
14661TIP3    H165398   5.121   6.832  11.707  0.3377  0.7364 -0.0418
14661TIP3    H265399   5.130   6.720  11.605 -0.1208  0.2557  0.4379
14662TIP3   OH265400   2.282   0.426   3.296 -0.2360  0.1053 -0.1045
14662TIP3    H165401   2.269   0.514   3.330  0.9428  0.2735 -0.0440
14662TIP3    H265402   2.231   0.423   3.214 -1.3194  0.4045  0.5432
14663TIP3   OH265403   4.821   2.283   4.422 -0.0563 -0.0935  0.7334
14663TIP3    H165404   4.794   2.285   4.330 -0.2632 -0.4610  0.7830
14663TIP3    H265405   4.888   2.350   4.429 -1.9365  1.8844  0.9065
14664TIP3   OH265406   4.411   2.787   2.171  0.0331 -0.0315  0.1258
14664TIP3    H165407   4.353   2.714   2.153 -0.2102 -0.2702  1.6827
14664TIP3    H265408   4.476   2.751   2.232  1.0287  0.5692 -0.5534
14665TIP3   OH265409   2.900   1.115   5.017 -0.1478 -0.4004  0.2716
14665TIP3    H165410   2.914   1.021   5.027 -0.5575 -0.4076  0.8019
14665TIP3    H265411   2.806   1.127   5.030 -0.3294 -0.0814 -1.1523
14666TIP3   OH265412   1.717   0.352   5.091  0.2601 -0.4403 -0.4896
14666TIP3    H165413   1.713   0.316   5.180  0.4353 -1.7364 -0.9845
14666TIP3    H265414   1.646   0.308   5.044  1.3842 -1.2368 -1.4974
14667TIP3   OH265415   0.097   3.781   2.344 -0.0477 -0.1445 -0.4744
14667TIP3    H165416   0.191   3.786   2.329 -0.3708  0.2344 -2.7219
14667TIP3    H265417   0.075   3.865   2.385  0.6616 -0.5695  0.8692
14668TIP3   OH265418   2.933   0.671  16.790 -0.2062  0.4325  0.3012
14668TIP3    H165419   2.959   0.651  16.880 -0.7730 -0.3125  0.3101
14668TIP3    H265420   3.016   0.691  16.745 -0.0147  1.7610  1.1992
14669TIP3   OH265421   4.720   1.694  11.977  0.3644  0.0768  0.3156
14669TIP3    H165422   4.760   1.733  11.900  0.7671 -0.8971  0.0261
14669TIP3    H265423   4.641   1.746  11.992 -1.1091 -1.2832 -2.2576
14670TIP3   OH265424   2.644   2.602   2.635  0.1502 -0.6573  0.2812
14670TIP3    H165425   2.673   2.621   2.724  2.1461  0.2112 -0.4998
14670TIP3    H265426   2.571   2.663   2.619 -0.2417 -0.8471  1.3119
14671TIP3   OH265427   2.729   2.821   3.222 -0.1825  0.0091  0.1775
14671TIP3    H165428   2.664   2.763   3.183  0.0961  1.0469 -1.9667
14671TIP3    H265429   2.795   2.762   3.258 -0.1077 -1.0571 -1.5896
14672TIP3   OH265430   1.377   5.136  13.258  0.3711  0.2312 -0.0671
14672TIP3    H165431   1.292   5.118  13.297 -0.1692 -0.4610 -1.5118
14672TIP3    H265432   1.388   5.231  13.266 -0.5470  0.3245  0.0963
14673TIP3   OH265433   3.031   3.520   5.783 -0.0234  0.2732  0.5983
14673TIP3    H165434   3.072   3.583   5.724 -0.1811 -1.0573 -0.9925
14673TIP3    H265435   3.002   3.573   5.857 -0.0170  2.0564 -0.6050
14674TIP3   OH265436   0.908   0.311   0.664  0.2095 -0.1266  0.0962
14674TIP3    H165437   0.813   0.320   0.656  0.3970  1.7290 -0.3874
14674TIP3    H265438   0.943   0.394   0.633  2.1894 -1.8581 -2.8276
14675TIP3   OH265439   3.979   1.235   5.401  0.1630 -0.2682  0.3768
14675TIP3    H165440   4.053   1.177   5.418  0.2810  0.4100  2.4445
14675TIP3    H265441   3.902   1.182   5.421  0.2361 -0.0472  1.3027
14676TIP3   OH265442   2.049   6.684   3.337 -0.2421  0.1420 -0.2204
14676TIP3    H165443   1.993   6.610   3.360  1.4889 -1.3589 -0.6281
14676TIP3    H265444   2.092   6.708   3.418 -1.6916  1.5578  0.1809
14677TIP3   OH265445   0.982   6.553  10.981 -0.1044  0.8982 -0.1631
14677TIP3    H165446   0.888   6.536  10.971  0.0867  0.5600 -1.5181
14677TIP3    H265447   1.002   6.619  10.915  0.5947  1.0563  0.1970
14678TIP3   OH265448   3.413   1.249   2.385 -0.0855 -0.6251  0.3164
14678TIP3    H165449   3.352   1.233   2.313 -0.6113  0.6483  0.4468
14678TIP3    H265450   3.460   1.166   2.396 -1.6838 -1.6034  0.1106
14679TIP3   OH265451   5.596   6.381   3.604 -0.2825 -0.4446 -0.2199
14679TIP3    H165452   5.611   6.471   3.577 -0.7701  0.8833  3.2998
14679TIP3    H265453   5.683   6.344   3.615 -0.0192  0.2704  0.1591
14680TIP3   OH265454   2.045   5.560   4.381 -0.0098  0.1163  0.4824
14680TIP3    H165455   2.125   5.507   4.380 -0.4226 -0.6001  2.3962
14680TIP3    H265456   2.065   5.635   4.324  1.8606 -0.2735  0.5734
14681TIP3   OH265457   5.274   0.101  15.056 -0.0106 -0.1697 -0.0134
14681TIP3    H165458   5.246   0.120  15.146  0.5032 -1.1257  0.3644
14681TIP3    H265459   5.369   0.113  15.058 -0.0506  0.2843 -0.5654
14682TIP3   OH265460   3.185   1.661  11.907 -0.2233  0.2483  0.4763
14682TIP3    H165461   3.157   1.724  11.973 -0.8920 -0.3310  0.7584
14682TIP3    H265462   3.153   1.577  11.939  1.1004 -0.3213  0.3709
14683TIP3   OH265463   5.333   2.991  13.216  0.6421 -0.1210  0.0046
14683TIP3    H165464   5.285   3.069  13.242  1.2378  0.0589  0.5784
14683TIP3    H265465   5.320   2.929  13.288  1.7799  0.1554  0.4599
14684TIP3   OH265466   3.192   5.185  13.850  0.1631 -0.6481  0.3931
14684TIP3    H165467   3.208   5.197  13.943 -0.2388  0.5824  0.3138
14684TIP3    H265468   3.123   5.247  13.829 -0.6310 -1.7773 -0.4797
14685TIP3   OH265469   4.481   1.448  12.924 -0.2600 -0.3336  0.4532
14685TIP3    H165470   4.564   1.417  12.889 -0.0784  1.8611 -1.2718
14685TIP3    H265471   4.482   1.542  12.909 -2.6960 -0.1177  1.1954
14686TIP3   OH265472   0.865   6.614  14.893  0.2320 -0.5215 -0.2060
14686TIP3    H165473   0.917   6.605  14.812  0.1375  1.5316 -0.5450
14686TIP3    H265474   0.920   6.668  14.950 -0.9301  0.5337 -0.0524
14687TIP3   OH265475   2.253   5.241   3.659 -0.1282  0.3531 -0.7409
14687TIP3    H165476   2.176   5.296   3.677 -0.0830  0.2217 -0.1046
14687TIP3    H265477   2.219   5.152   3.663  0.2015  0.2621  0.3433
14688TIP3   OH265478   6.148   2.571   2.153 -0.3823  0.4769 -0.4592
14688TIP3    H165479   6.133   2.655   2.195 -0.3760  0.3545 -0.2090
14688TIP3    H265480   6.151   2.508   2.225  2.3991  0.6134 -0.3682
14689TIP3   OH265481   5.098   3.577   6.135  0.1305 -0.3004 -0.0525
14689TIP3    H165482   5.154   3.502   6.156  1.2677  0.2612 -0.9148
14689TIP3    H265483   5.157   3.652   6.141 -0.2102  0.1897 -2.1595
14690TIP3   OH265484   0.276   2.757   3.702  0.4759 -0.4207 -0.0633
14690TIP3    H165485   0.274   2.823   3.772  1.7031 -0.3540 -0.0639
14690TIP3    H265486   0.279   2.807   3.621 -0.8849 -0.4996 -0.1930
14691TIP3   OH265487   2.650   1.516   2.508  0.1310  0.1208  0.0996
14691TIP3    H165488   2.692   1.466   2.438  0.7412 -0.7712  1.0769
14691TIP3    H265489   2.720   1.535   2.570 -0.6039 -0.0698  1.0188
14692TIP3   OH265490   5.602   6.002  11.291 -0.3102  0.5128  0.6222
14692TIP3    H165491   5.567   6.008  11.202 -2.0962  2.1766  1.3838
14692TIP3    H265492   5.593   5.909  11.314 -1.0264  0.2979 -0.4529
14693TIP3   OH265493   0.614   4.922   2.377  0.5088 -0.1117 -0.4302
14693TIP3    H165494   0.571   4.915   2.292 -0.0769  0.3159 -0.1768
14693TIP3    H265495   0.633   4.832   2.403  1.2408 -0.2118 -1.2829
14694TIP3   OH265496   1.805   3.018   5.100  0.2088  0.4268  0.2862
14694TIP3    H165497   1.773   3.095   5.147  3.4976  1.4694  1.0996
14694TIP3    H265498   1.787   3.035   5.008  1.4862  2.5835  0.3763
14695TIP3   OH265499   4.069   1.689   2.766  0.2872  0.0567 -0.4618
14695TIP3    H165500   4.111   1.605   2.786  1.1748  1.0666  2.4411
14695TIP3    H265501   4.134   1.736   2.714  0.9269 -0.0780  0.1933
14696TIP3   OH265502   3.473   2.808  11.926  0.1353  0.1798  0.3077
14696TIP3    H165503   3.487   2.892  11.883 -1.3474 -0.7020 -2.1077
14696TIP3    H265504   3.385   2.814  11.963  0.9821  0.5296  2.4330
14697TIP3   OH265505   0.144   4.857   3.847 -0.0772 -0.1715  0.0066
14697TIP3    H165506   0.199   4.865   3.769 -2.3096  0.2021 -1.6520
14697TIP3    H265507   0.184   4.786   3.898  1.2051 -0.7560 -1.7195
14698TIP3   OH265508   3.029   0.186  14.641 -0.3815  0.3244 -0.6319
14698TIP3    H165509   3.012   0.266  14.691 -0.0320  0.7382 -1.1618
14698TIP3    H265510   3.123   0.173  14.646 -0.7136 -1.9577  2.2760
14699TIP3   OH265511   1.244   5.049   1.723  0.3197  0.2092 -0.2130
14699TIP3    H165512   1.328   5.071   1.764 -1.0765  0.7634  2.5887
14699TIP3    H265513   1.253   4.957   1.698  1.3209 -0.1402  1.3021
14700TIP3   OH265514   5.473   0.225   0.824  0.5214  0.5262  0.0432
14700TIP3    H165515   5.434   0.298   0.871 -1.2239 -0.3496  0.0240
14700TIP3    H265516   5.532   0.266   0.761  1.6998  1.7898  1.8569
14701TIP3   OH265517   3.386   0.069   3.506  0.2417 -0.5174  0.3869
14701TIP3    H165518   3.464   0.097   3.555 -0.8860  1.1478  1.3386
14701TIP3    H265519   3.316   0.124   3.540 -1.1093 -1.0738 -1.3707
14702TIP3   OH265520   3.393   5.543   1.185 -0.4273 -0.3629  0.4319
14702TIP3    H165521   3.373   5.451   1.174 -0.0839 -0.4894  0.8160
14702TIP3    H265522   3.485   5.544   1.213  0.5032  0.2426 -2.3586
14703TIP3   OH265523   5.806   6.690   1.325 -0.1689 -0.3521 -0.6427
14703TIP3    H165524   5.723   6.644   1.337  0.4352 -1.3632 -0.2378
14703TIP3    H265525   5.838   6.707   1.414  0.2431 -0.3109 -0.7926
14704TIP3   OH265526   2.372   4.292  12.262 -0.4915 -0.4275 -0.5795
14704TIP3    H165527   2.378   4.321  12.353 -0.0606  0.0756 -0.7671
14704TIP3    H265528   2.326   4.208  12.267  0.1492 -0.7431  0.1717
14705TIP3   OH265529   1.269   6.709   2.643  0.3903 -0.2646  0.4183
14705TIP3    H165530   1.293   6.780   2.702 -0.8297  0.5542 -0.0265
14705TIP3    H265531   1.335   6.641   2.658  1.7843  1.0871  0.6274
14706TIP3   OH265532   6.101   6.492  11.550  0.4652  0.1095 -0.1312
14706TIP3    H165533   6.101   6.508  11.455 -0.8270 -0.1383 -0.1989
14706TIP3    H265534   6.129   6.575  11.588 -1.0759  0.9197 -0.6655
14707TIP3   OH265535   5.977   1.809  16.443 -0.6603 -0.7426 -0.2364
14707TIP3    H165536   6.028   1.886  16.469  0.2657 -0.8077 -1.7538
14707TIP3    H265537   5.980   1.752  16.520 -0.1051  0.0954  0.3889
14708TIP3   OH265538   3.987   5.845  10.346 -0.0444 -0.0099  0.4203
14708TIP3    H165539   3.916   5.843  10.282 -1.2220  0.7563  1.6533
14708TIP3    H265540   3.995   5.937  10.371  1.4315 -0.0737  0.2808
14709TIP3   OH265541   1.511   1.700   0.964 -0.1297  0.0080  0.3114
14709TIP3    H165542   1.430   1.655   0.987 -1.0488  1.5673  0.2716
14709TIP3    H265543   1.502   1.721   0.871  0.6112 -0.3472  0.1460
14710TIP3   OH265544   1.075   3.334  15.822 -0.1815 -0.2726  0.0333
14710TIP3    H165545   0.981   3.352  15.816  0.3253  2.9880  0.2115
14710TIP3    H265546   1.112   3.374  15.743  1.2435  0.1978  0.9016
14711TIP3   OH265547   3.997   2.018  12.339  0.7539 -0.1647  0.0097
14711TIP3    H165548   4.074   1.978  12.299  0.0647 -1.7944  0.2269
14711TIP3    H265549   4.022   2.031  12.431  1.5223  1.4156 -0.3908
14712TIP3   OH265550   6.656   2.399   1.565  0.4303  0.1025  0.2069
14712TIP3    H165551   6.621   2.445   1.642  0.4654 -1.5174  1.2443
14712TIP3    H265552   6.682   2.468   1.505 -0.0098  1.4162  1.4789
14713TIP3   OH265553   1.932   2.940  15.839 -0.0291  0.0494 -0.0949
14713TIP3    H165554   1.914   2.953  15.745 -1.4026 -0.5853  0.0436
14713TIP3    H265555   1.947   2.846  15.847  0.3885  0.1453  0.2880
14714TIP3   OH265556   3.328   1.234   0.446  0.4591  0.2844  0.0327
14714TIP3    H165557   3.346   1.186   0.366  0.9854  0.9827 -0.2772
14714TIP3    H265558   3.364   1.321   0.431 -1.4878  1.1475  0.1475
14715TIP3   OH265559   6.444   4.553   3.571 -0.0269 -0.1774  0.2731
14715TIP3    H165560   6.525   4.546   3.622 -0.1683 -0.2145  0.4928
14715TIP3    H265561   6.448   4.641   3.532 -0.0051 -0.0778  0.4970
14716TIP3   OH265562   6.543   2.786   4.183 -0.0590  0.2249  0.7245
14716TIP3    H165563   6.462   2.813   4.227 -1.3557  2.9032 -2.7783
14716TIP3    H265564   6.609   2.848   4.215 -0.7876  1.6011 -0.3022
14717TIP3   OH265565   5.846   1.187  11.226  0.0910 -0.1042  0.4073
14717TIP3    H165566   5.897   1.249  11.278  1.6519 -1.2876  0.3874
14717TIP3    H265567   5.889   1.102  11.242 -0.4803 -0.7823 -1.4239
14718TIP3   OH265568   2.855   2.761  13.172  0.2284 -0.4863  0.0744
14718TIP3    H165569   2.817   2.835  13.219  1.2290  0.0303  0.0991
14718TIP3    H265570   2.798   2.748  13.097 -0.7714 -0.6191  0.8449
14719TIP3   OH265571   2.663   5.709  15.386  0.2778  0.4274  0.0228
14719TIP3    H165572   2.637   5.774  15.320 -2.1027 -1.5720 -1.1675
14719TIP3    H265573   2.705   5.639  15.336  0.3926 -0.1523  0.9136
14720TIP3   OH265574   3.387   0.598  14.341  0.1893  0.2365  0.2600
14720TIP3    H165575   3.378   0.663  14.411 -0.4100 -0.8088  1.1782
14720TIP3    H265576   3.316   0.617  14.281  1.1045  1.5651 -0.4433
14721TIP3   OH265577   5.264   5.470  11.259 -0.0660 -0.0307 -0.9271
14721TIP3    H165578   5.210   5.498  11.333  1.4515  0.9404 -0.1547
14721TIP3    H265579   5.208   5.409  11.211 -1.1434 -0.6124  0.9551
14722TIP3   OH265580   6.009   2.678   3.078 -0.2551  0.3012  0.2214
14722TIP3    H165581   6.086   2.625   3.098 -1.7406 -1.7000  0.9361
14722TIP3    H265582   5.998   2.736   3.153  1.2356  1.5265 -0.4527
14723TIP3   OH265583   6.366   5.557  14.496 -0.6039 -0.7681 -0.6894
14723TIP3    H165584   6.332   5.479  14.541 -0.5184 -1.3295 -1.5619
14723TIP3    H265585   6.441   5.524  14.446  1.1666  0.3864  1.0294
14724TIP3   OH265586   0.368   6.338  10.598  0.2544 -0.2229 -0.0263
14724TIP3    H165587   0.319   6.421  10.594  0.1813 -0.1678  1.4272
14724TIP3    H265588   0.323   6.287  10.665  0.7664 -1.1391 -0.3669
14725TIP3   OH265589   6.464   1.409  16.027  0.2039 -0.2050  0.3290
14725TIP3    H165590   6.546   1.361  16.020 -0.1367 -0.8866  0.8916
14725TIP3    H265591   6.396   1.341  16.028 -0.3095  0.3043  0.7496
14726TIP3   OH265592   1.559   3.660  12.888 -0.1645 -0.2550  0.7306
14726TIP3    H165593   1.572   3.581  12.941 -0.8282 -1.1017 -0.3360
14726TIP3    H265594   1.474   3.693  12.916 -0.9953 -1.2744 -0.4624
14727TIP3   OH265595   4.031   4.718   5.666 -0.3711 -0.3413  0.0082
14727TIP3    H165596   4.071   4.792   5.621  1.1606 -0.6150  0.8616
14727TIP3    H265597   4.020   4.747   5.756 -0.3561 -0.9326  0.2063
14728TIP3   OH265598   3.949   5.935   2.559  0.6224  0.3034  0.1459
14728TIP3    H165599   3.990   5.873   2.619 -0.1639 -0.0087  0.3874
14728TIP3    H265600   3.859   5.902   2.549 -0.0852  1.8533  0.9362
14729TIP3   OH265601   3.388   3.204  15.700  0.3368  0.3258 -0.0232
14729TIP3    H165602   3.312   3.150  15.678  0.3614  0.2080  0.1745
14729TIP3    H265603   3.357   3.294  15.690  0.0390  0.2853  0.4767
14730TIP3   OH265604   5.039   4.139   0.189 -0.1668  0.6327 -0.3015
14730TIP3    H165605   5.099   4.147   0.263 -1.9504 -0.5136  1.3522
14730TIP3    H265606   5.041   4.225   0.147  0.5324  1.4796  1.3786
14731TIP3   OH265607   4.997   6.495   5.111 -0.8285  0.6426  0.0768
14731TIP3    H165608   4.960   6.440   5.180 -1.8352  0.1850 -0.7874
14731TIP3    H265609   4.929   6.497   5.043  0.2439  0.8166 -1.0358
14732TIP3   OH265610   5.691   5.272   1.137  0.3783 -0.1992  0.2421
14732TIP3    H165611   5.750   5.206   1.100  0.5134 -0.1758  0.4157
14732TIP3    H265612   5.725   5.288   1.225  0.9191  0.8118 -0.1374
14733TIP3   OH265613   3.769   5.967   0.111 -0.2200  0.1040  0.4474
14733TIP3    H165614   3.848   5.913   0.106 -0.8273 -0.8878  1.2629
14733TIP3    H265615   3.778   6.014   0.194 -0.5001 -0.0476  0.5649
14734TIP3   OH265616   1.991   4.658  13.922  0.0402 -0.2849  0.5502
14734TIP3    H165617   1.915   4.702  13.959 -0.4893  0.1688 -1.0132
14734TIP3    H265618   1.970   4.565  13.927 -0.7571 -0.1519 -0.1084
14735TIP3   OH265619   6.568   1.200  15.110 -0.3346 -0.0146  0.1844
14735TIP3    H165620   6.501   1.263  15.083  1.5186  0.7215 -3.1504
14735TIP3    H265621   6.616   1.179  15.030  3.3849 -0.5881  2.3366
14736TIP3   OH265622   4.819   5.546  14.172  0.0231 -0.3437 -0.1795
14736TIP3    H165623   4.782   5.458  14.175 -0.3378 -0.1808  1.8270
14736TIP3    H265624   4.815   5.571  14.080  0.3774 -2.5051 -0.8332
14737TIP3   OH265625   1.053   2.826  11.003  0.3915 -0.6484 -0.2352
14737TIP3    H165626   0.991   2.790  10.941 -0.2853 -1.4247  0.8611
14737TIP3    H265627   1.045   2.771  11.081 -0.4905  1.6393  1.4177
14738TIP3   OH265628   4.828   6.242  12.325  0.5476  0.0566 -0.5051
14738TIP3    H165629   4.886   6.167  12.338  0.2275 -0.6152 -2.6189
14738TIP3    H265630   4.812   6.275  12.413  2.8925 -0.6677  0.2653
14739TIP3   OH265631   2.766   1.155  12.007  0.2456  0.3161 -0.3844
14739TIP3    H165632   2.757   1.104  12.088 -0.3057  1.7711  0.5020
14739TIP3    H265633   2.818   1.099  11.950  1.2575 -0.4631  1.2262
14740TIP3   OH265634   1.675   6.412  10.902  0.0929 -0.2348  0.4982
14740TIP3    H165635   1.740   6.370  10.845 -0.0166 -0.6841  0.7000
14740TIP3    H265636   1.715   6.410  10.989 -0.0313 -0.1721  0.5568
14741TIP3   OH265637   6.693   1.472  11.197 -0.0245  0.0766 -0.5242
14741TIP3    H165638   6.687   1.386  11.239  1.2043 -0.7318 -1.9329
14741TIP3    H265639   6.607   1.511  11.212 -0.8311 -1.6552 -0.3931
14742TIP3   OH265640   0.452   3.308   3.681  0.2052  0.0373 -0.2279
14742TIP3    H165641   0.363   3.327   3.712  0.3784 -2.0725  1.8570
14742TIP3    H265642   0.441   3.291   3.587 -1.4538  0.5703 -0.1624
14743TIP3   OH265643   2.546   3.016  12.256 -0.0553  0.4169  0.2211
14743TIP3    H165644   2.498   3.085  12.210  0.5448  2.1651  2.0676
14743TIP3    H265645   2.482   2.946  12.267 -0.1256 -0.3417 -3.5219
14744TIP3   OH265646   4.474   5.779   4.618 -0.3023  1.1729 -0.2528
14744TIP3    H165647   4.486   5.785   4.713  2.1699  2.5175 -0.5719
14744TIP3    H265648   4.519   5.699   4.593  0.3684  1.6059 -0.4506
14745TIP3   OH265649   4.853   6.739  14.681 -0.1632 -0.3275 -0.4953
14745TIP3    H165650   4.758   6.746  14.682 -0.2377 -1.1331 -1.0837
14745TIP3    H265651   4.884   6.828  14.663 -0.7389  0.2425  1.1257
14746TIP3   OH265652   1.139   5.916  12.771 -0.1523 -0.1261  0.4444
14746TIP3    H165653   1.230   5.915  12.742 -0.3365  2.2135 -0.4622
14746TIP3    H265654   1.098   5.845  12.723  1.6147 -2.9009  2.7224
14747TIP3   OH265655   1.086   4.346  14.459  0.5816 -0.3516  0.0678
14747TIP3    H165656   1.098   4.311  14.370  0.1952 -1.6464  0.5078
14747TIP3    H265657   1.049   4.433  14.445 -0.4397 -0.9262 -1.0346
14748TIP3   OH265658   1.369   3.858   2.824  0.3148 -0.0328 -0.3340
14748TIP3    H165659   1.343   3.936   2.873  1.3328  0.7113 -0.9347
14748TIP3    H265660   1.329   3.870   2.737 -0.2937 -0.6466 -0.1490
14749TIP3   OH265661   6.354   5.193   1.133 -0.5262  0.1844 -0.6690
14749TIP3    H165662   6.324   5.102   1.135 -1.1800  0.3889 -0.9815
14749TIP3    H265663   6.447   5.188   1.156 -0.4410 -0.6064 -1.1538
14750TIP3   OH265664   2.115   5.345  11.087  0.0474 -0.3223  0.1324
14750TIP3    H165665   2.087   5.358  11.178 -2.6243  0.8312 -0.7562
14750TIP3    H265666   2.118   5.433  11.050 -0.4838 -0.8785 -1.3066
14751TIP3   OH265667   1.564   0.051  15.104  0.1286 -0.6436 -0.5659
14751TIP3    H165668   1.564   0.013  15.192  1.4999 -1.9536 -1.0899
14751TIP3    H265669   1.501   0.000  15.054  0.4343 -0.8836 -0.7146
14752TIP3   OH265670   5.857   4.241  11.105  0.4110  0.2649  0.0982
14752TIP3    H165671   5.929   4.301  11.124  1.3421  0.1150 -2.5079
14752TIP3    H265672   5.900   4.158  11.084 -0.3424  0.5032 -2.7606
14753TIP3   OH265673   3.926   6.242   1.126  0.7155  0.1284 -0.1774
14753TIP3    H165674   3.893   6.152   1.131 -0.1084  0.4351  0.0566
14753TIP3    H265675   3.855   6.292   1.086  0.4367  0.9981  1.2935
14754TIP3   OH265676   2.511   2.006  16.900 -0.0968 -0.3696 -0.3314
14754TIP3    H165677   2.573   2.054  16.955  2.1162 -0.6177 -2.4470
14754TIP3    H265678   2.499   2.062  16.823 -1.4809 -0.9386 -0.5495
14755TIP3   OH265679   3.158   2.085   6.351  0.5608  0.2310 -0.0128
14755TIP3    H165680   3.081   2.043   6.314 -0.1842 -0.2149  1.9045
14755TIP3    H265681   3.229   2.023   6.334 -0.1206 -0.8500  0.8828
14756TIP3   OH265682   2.063   0.974  10.049 -0.1373  0.7656 -0.6118
14756TIP3    H165683   2.006   1.027   9.993  0.7110  2.5968  0.1874
14756TIP3    H265684   2.003   0.923  10.103 -0.9700 -0.1743 -2.3431
14757TIP3   OH265685   5.674   1.817  10.716 -0.1169 -0.2582  0.4723
14757TIP3    H165686   5.739   1.850  10.779  0.7822 -1.9671  0.5012
14757TIP3    H265687   5.601   1.787  10.771  0.3051 -0.9689  0.6535
14758TIP3   OH265688   2.090   0.733  12.062 -0.3691  0.7265  0.2076
14758TIP3    H165689   2.154   0.737  11.990 -2.2912 -0.2528 -1.6737
14758TIP3    H265690   2.070   0.825  12.081  0.0476  1.0085 -0.6515
14759TIP3   OH265691   2.251   1.475  17.021 -0.7500  0.6391  0.1522
14759TIP3    H165692   2.173   1.461  16.967 -1.5093  0.0619  1.3413
14759TIP3    H265693   2.238   1.417  17.096  1.0313  0.2176  0.1861
14760TIP3   OH265694   2.950   6.008  12.391 -0.7514  0.5695 -0.0907
14760TIP3    H165695   2.863   5.970  12.384 -0.0025 -1.0547 -1.2443
14760TIP3    H265696   2.959   6.061  12.312 -0.3490 -0.0942 -0.5060
14761TIP3   OH265697   4.801   5.543  16.192  0.3239 -0.0076  0.4221
14761TIP3    H165698   4.816   5.465  16.138 -2.6848 -0.5820  0.2365
14761TIP3    H265699   4.775   5.611  16.130 -0.7090  0.0419  0.8823
14762TIP3   OH265700   0.474   5.954  16.561 -0.1465 -0.0750 -0.1207
14762TIP3    H165701   0.391   5.930  16.602  0.1868 -2.3918 -0.6850
14762TIP3    H265702   0.487   6.046  16.585 -3.6276  0.8791 -1.2867
14763TIP3   OH265703   5.758   2.022  13.382 -0.4542  0.8494 -0.3733
14763TIP3    H165704   5.830   2.084  13.396  1.6576 -1.5647  0.1224
14763TIP3    H265705   5.749   2.017  13.287  0.7773  0.4060 -0.4804
14764TIP3   OH265706   0.457   6.148  16.831  0.5257  0.2313  0.0888
14764TIP3    H165707   0.438   6.056  16.847  0.3130  0.4385  1.1493
14764TIP3    H265708   0.395   6.195  16.887  0.6772  1.0117 -0.3925
14765TIP3   OH265709   4.507   1.374   4.375 -0.3236 -0.2456  0.2980
14765TIP3    H165710   4.514   1.417   4.289 -0.2317 -0.6692  0.0912
14765TIP3    H265711   4.422   1.330   4.373  0.4371 -1.7586 -0.2823
14766TIP3   OH265712   5.791   2.006   1.877  0.3268  0.0633  0.0259
14766TIP3    H165713   5.803   2.018   1.782 -0.9175  0.5796 -0.0882
14766TIP3    H265714   5.798   1.912   1.890  0.0643 -0.0640 -0.6631
14767TIP3   OH265715   2.136   2.774  10.434  0.0810 -0.2531 -0.6038
14767TIP3    H165716   2.201   2.725  10.383  0.5082 -1.8225  1.3187
14767TIP3    H265717   2.051   2.740  10.403  0.3490 -1.6204  0.0695
14768TIP3   OH265718   0.196   0.906   3.293  0.1215  0.5852 -0.4907
14768TIP3    H165719   0.104   0.932   3.286 -0.4475 -1.0233  0.3589
14768TIP3    H265720   0.225   0.896   3.202 -1.6828 -2.3586 -0.9048
14769TIP3   OH265721   5.540   5.613  11.071 -0.9601  0.4082  0.0306
14769TIP3    H165722   5.470   5.676  11.087 -1.1839 -0.0618  0.9267
14769TIP3    H265723   5.532   5.591  10.978 -4.0773 -2.0694  0.7120
14770TIP3   OH265724   3.363   4.392  11.406 -0.2594  0.2559 -0.1543
14770TIP3    H165725   3.385   4.477  11.369 -3.3847  1.0873 -0.3780
14770TIP3    H265726   3.351   4.335  11.331 -1.4701  0.5643 -0.2211
14771TIP3   OH265727   5.920   2.643   1.572  0.3192  0.0232 -0.0265
14771TIP3    H165728   5.993   2.688   1.530  2.0335 -1.3759  1.2796
14771TIP3    H265729   5.921   2.555   1.533  0.1427 -0.3971  0.8952
14772TIP3   OH265730   2.717   4.678  11.993  1.4213 -0.3564 -0.3003
14772TIP3    H165731   2.701   4.765  11.957  1.1751 -0.0481  0.5231
14772TIP3    H265732   2.630   4.644  12.014  1.5894 -0.1290  0.8783
14773TIP3   OH265733   2.758   2.061  11.753  0.7181 -0.4747  0.4257
14773TIP3    H165734   2.692   2.055  11.684  0.4245 -0.8899  0.7418
14773TIP3    H265735   2.822   2.124  11.719  0.2039 -0.1291  0.0817
14774TIP3   OH265736   5.740   3.758   3.433 -0.1771 -0.2206  0.0982
14774TIP3    H165737   5.812   3.728   3.378 -0.2261 -2.3838  1.0956
14774TIP3    H265738   5.664   3.760   3.375  0.2516 -0.0867 -0.4664
14775TIP3   OH265739   2.109   6.410  12.324 -0.0347  0.3802 -0.1841
14775TIP3    H165740   2.029   6.365  12.350 -1.1442  2.0523 -0.5067
14775TIP3    H265741   2.089   6.503  12.338  1.3648  0.9290 -1.5196
14776TIP3   OH265742   4.817   6.195  16.905  0.2623  0.0334 -0.1340
14776TIP3    H165743   4.899   6.239  16.925  0.6323 -0.9343  0.5861
14776TIP3    H265744   4.750   6.264  16.909  0.8021  0.5104  1.0665
14777TIP3   OH265745   3.564   1.397  16.948 -0.2024  0.6564  0.3161
14777TIP3    H165746   3.553   1.312  16.990  1.3689  0.1384 -0.2544
14777TIP3    H265747   3.513   1.391  16.867 -1.8340  1.0545  1.2642
14778TIP3   OH265748   5.249   0.901   5.151 -0.4567 -0.3693  0.0219
14778TIP3    H165749   5.270   0.809   5.137  0.2181 -0.1280 -0.6016
14778TIP3    H265750   5.199   0.902   5.232 -1.9345 -1.4731 -0.8276
14779TIP3   OH265751   4.161   5.642  10.858 -0.0287 -0.4859 -0.3314
14779TIP3    H165752   4.249   5.662  10.827  0.3669  2.3875  2.1888
14779TIP3    H265753   4.102   5.678  10.791  0.7483  0.9434 -0.2699
14780TIP3   OH265754   1.009   6.009   2.412 -0.1314 -0.3216 -0.0057
14780TIP3    H165755   0.959   6.073   2.362  0.5236  1.6126  1.6973
14780TIP3    H265756   1.101   6.031   2.394  0.1365 -1.7901 -0.5789
14781TIP3   OH265757   2.904   2.245  12.417 -0.0593  0.6192  0.4123
14781TIP3    H165758   2.817   2.272  12.448 -0.4923  0.8525 -0.9386
14781TIP3    H265759   2.952   2.327  12.407 -0.9268  0.8808 -2.3743
14782TIP3   OH265760   2.332   2.870  12.416  0.6544 -0.1587 -0.0281
14782TIP3    H165761   2.267   2.802  12.431  0.8019 -0.5257 -0.9758
14782TIP3    H265762   2.300   2.946  12.466  0.9306 -1.1554  1.7527
14783TIP3   OH265763   3.449   5.514   4.505  0.1348 -0.1886 -0.0769
14783TIP3    H165764   3.542   5.527   4.518  0.3633  0.3857 -2.0083
14783TIP3    H265765   3.443   5.437   4.448 -0.5592 -0.1022 -0.1355
14784TIP3   OH265766   1.319   0.897   4.667 -0.1333  0.4456 -0.0464
14784TIP3    H165767   1.264   0.946   4.606 -0.4340  1.1614  0.7870
14784TIP3    H265768   1.259   0.867   4.735  0.1477 -0.6042 -0.2350
14785TIP3   OH265769   0.483   4.983   2.130  0.4291 -0.2166  0.1031
14785TIP3    H165770   0.434   4.939   2.060  1.8573  0.3587 -1.3213
14785TIP3    H265771   0.473   5.076   2.110  1.2734 -0.0673  0.3492
14786TIP3   OH265772   2.619   1.110   6.188  0.0500 -0.1249 -0.1386
14786TIP3    H165773   2.595   1.047   6.256  1.2235  0.7478  1.1384
14786TIP3    H265774   2.659   1.056   6.119  1.5961 -0.7876  1.1938
14787TIP3   OH265775   5.530   4.896  14.402 -0.3955 -0.6123  0.8065
14787TIP3    H165776   5.445   4.900  14.446  0.6412  0.6989  2.8765
14787TIP3    H265777   5.594   4.902  14.473  1.4597 -1.6230 -0.6737
14788TIP3   OH265778   1.121   5.730   1.452  0.0490  0.3038  0.2851
14788TIP3    H165779   1.211   5.723   1.483 -0.1213 -0.8429  0.5787
14788TIP3    H265780   1.127   5.725   1.357  0.2466 -0.6411  0.3351
14789TIP3   OH265781   1.469   3.541   4.756 -0.1844  0.0405  0.1564
14789TIP3    H165782   1.382   3.520   4.721 -1.1096  1.3539  1.5411
14789TIP3    H265783   1.479   3.635   4.743  1.8024 -0.3292 -1.5211
14790TIP3   OH265784   2.338   1.793   3.723 -0.2094  0.5935  0.0414
14790TIP3    H165785   2.363   1.810   3.632 -0.6680  2.0925  0.1805
14790TIP3    H265786   2.361   1.873   3.770 -1.6999  0.5645  0.8900
14791TIP3   OH265787   6.743   6.737  11.205  0.5950  0.8425  0.1265
14791TIP3    H165788   6.713   6.684  11.279 -2.7426  1.3447 -0.7355
14791TIP3    H265789   6.771   6.673  11.140  3.8393  0.3922  1.7377
14792TIP3   OH265790   5.592   1.516   3.016  0.3357  0.0325  0.0191
14792TIP3    H165791   5.597   1.449   2.948 -0.2828  0.8038 -0.8039
14792TIP3    H265792   5.631   1.475   3.093  1.3293 -0.7518 -0.8775
14793TIP3   OH265793   2.873   5.936  14.126  0.3789  0.8253  0.3449
14793TIP3    H165794   2.954   5.952  14.077 -0.1366  3.1852  0.1340
14793TIP3    H265795   2.843   6.024  14.152 -1.1093 -0.1214  2.0657
14794TIP3   OH265796   2.961   5.611   2.682 -0.1345 -0.1787 -0.3601
14794TIP3    H165797   2.946   5.662   2.761  0.4268  0.3543 -0.5893
14794TIP3    H265798   3.030   5.658   2.635 -2.1582  0.9193 -2.4100
14795TIP3   OH265799   5.655   6.371   1.748 -0.2743 -0.0434  0.3184
14795TIP3    H165800   5.645   6.466   1.752  0.8172  0.1749 -1.2693
14795TIP3    H265801   5.571   6.339   1.714  0.0020  0.5567 -0.9901
14796TIP3   OH265802   4.662   3.662   4.370 -0.1196 -0.0076 -0.3032
14796TIP3    H165803   4.572   3.645   4.400 -0.3158  1.4621  0.0271
14796TIP3    H265804   4.705   3.702   4.446  0.8275 -0.6768 -0.4682
14797TIP3   OH265805   2.899   5.426   1.866  0.7231 -0.3349  0.2914
14797TIP3    H165806   2.942   5.390   1.944 -0.2323 -0.7147  0.6676
14797TIP3    H265807   2.911   5.359   1.799  1.1457 -0.2140  0.2421
14798TIP3   OH265808   0.816   2.114  13.123 -0.0659  0.3503  0.3785
14798TIP3    H165809   0.883   2.132  13.189  0.7367 -1.4714  0.1229
14798TIP3    H265810   0.856   2.049  13.065 -1.7946 -0.2287 -0.2255
14799TIP3   OH265811   5.264   5.808   3.594 -0.2336  0.5293 -0.3908
14799TIP3    H165812   5.329   5.846   3.653 -0.7258  0.1764  0.4035
14799TIP3    H265813   5.252   5.719   3.626 -0.0623  0.1261 -1.4174
14800TIP3   OH265814   3.454   4.640  11.369  0.5247 -0.0306  0.4754
14800TIP3    H165815   3.416   4.694  11.300  1.2526 -0.4011 -0.2342
14800TIP3    H265816   3.498   4.702  11.427 -1.3279  0.4275  1.4421
14801TIP3   OH265817   2.149   3.528   0.563  0.1366 -0.1735 -0.2082
14801TIP3    H165818   2.188   3.530   0.650  0.1967 -0.4042 -0.2307
14801TIP3    H265819   2.193   3.455   0.518  0.7049  0.4599 -0.7073
14802TIP3   OH265820   0.255   2.002   2.101 -0.0461  0.1401 -0.1344
14802TIP3    H165821   0.196   1.998   2.026  2.1210 -0.2558 -1.8972
14802TIP3    H265822   0.197   2.016   2.176 -2.6591 -3.0908 -1.3313
14803TIP3   OH265823   1.656   3.956   3.500 -0.2470  0.1426  0.0571
14803TIP3    H165824   1.666   4.038   3.453  0.6987 -0.5027 -0.9114
14803TIP3    H265825   1.611   3.897   3.439  0.6995 -0.6019  0.0513
14804TIP3   OH265826   1.419   5.295   0.182 -0.5017  0.0287  0.1550
14804TIP3    H165827   1.497   5.251   0.216 -0.9680  0.5743  2.1074
14804TIP3    H265828   1.392   5.242   0.107  1.2356 -0.6597 -0.0392
14805TIP3   OH265829   3.779   1.400  12.828 -0.0158  0.0009 -0.4333
14805TIP3    H165830   3.709   1.463  12.812 -0.6195  0.3656  2.9096
14805TIP3    H265831   3.847   1.450  12.873  0.2292 -1.3089  0.7502
14806TIP3   OH265832   5.947   5.544  14.238  0.1443 -0.1233 -0.4203
14806TIP3    H165833   6.008   5.536  14.164  0.0218 -1.2504 -0.4083
14806TIP3    H265834   5.972   5.473  14.297 -0.5434  0.0326  0.0642
14807TIP3   OH265835   6.541   2.009   3.122 -0.1046 -0.0124  0.1616
14807TIP3    H165836   6.518   1.968   3.038  0.8468 -1.6404  0.6481
14807TIP3    H265837   6.547   1.936   3.183 -0.5097  1.1216  1.6104
14808TIP3   OH265838   3.240   4.142   1.289 -0.0789  0.1339 -0.6047
14808TIP3    H165839   3.295   4.192   1.350 -1.2208 -1.8021  2.2509
14808TIP3    H265840   3.182   4.208   1.250  2.0075  1.7361 -1.2088
14809TIP3   OH265841   0.930   2.988   4.742  0.0246  0.2605  0.1780
14809TIP3    H165842   1.010   2.954   4.782  0.9835  2.1782  0.0204
14809TIP3    H265843   0.930   3.081   4.764 -1.8457  0.4317 -0.3805
14810TIP3   OH265844   6.794   0.213   1.039 -0.4959 -0.6255 -0.0319
14810TIP3    H165845   6.710   0.201   1.083  0.0024  0.8501  1.4181
14810TIP3    H265846   6.859   0.210   1.109  0.4779  0.2549 -0.8543
14811TIP3   OH265847   2.714   0.691  16.279 -0.2114  0.3962 -0.4684
14811TIP3    H165848   2.653   0.741  16.333 -1.5242 -2.1029  0.5255
14811TIP3    H265849   2.796   0.691  16.329 -0.7276  0.0880  0.4013
14812TIP3   OH265850   5.866   2.618  15.226  0.1383  0.1709  0.1184
14812TIP3    H165851   5.900   2.539  15.185 -1.5389 -0.1773 -0.7198
14812TIP3    H265852   5.786   2.638  15.176 -0.0079  1.8305  0.9385
14813TIP3   OH265853   6.690   5.305   0.599  0.1157  0.0715  0.1597
14813TIP3    H165854   6.763   5.359   0.631 -0.7839  1.5683 -0.2012
14813TIP3    H265855   6.614   5.362   0.605 -0.6789 -0.7555 -1.4015
14814TIP3   OH265856   4.328   1.199  11.708 -0.1164  0.7195 -0.5424
14814TIP3    H165857   4.361   1.186  11.619  0.4233  0.7366 -0.3426
14814TIP3    H265858   4.364   1.126  11.758 -1.2274  0.1376 -0.5513
14815TIP3   OH265859   3.939   4.862  12.027 -0.4776  0.7331  0.1031
14815TIP3    H165860   3.993   4.784  12.037 -1.1764  0.2064 -0.1266
14815TIP3    H265861   3.872   4.854  12.095  0.5243  2.0810  1.3114
14816TIP3   OH265862   3.993   6.479   5.812 -0.7711  0.1849  0.1099
14816TIP3    H165863   3.965   6.475   5.721 -0.2940 -1.0251 -0.0104
14816TIP3    H265864   3.934   6.419   5.858 -0.1268 -0.2989  0.3284
14817TIP3   OH265865   0.248   3.947  10.308 -0.8505 -0.3843 -0.3765
14817TIP3    H165866   0.315   3.880  10.291 -0.5362 -0.1418 -0.1112
14817TIP3    H265867   0.261   3.971  10.400 -0.0347  1.0292 -0.8190
14818TIP3   OH265868   2.286   4.365  16.329  0.4109  0.2996 -0.0678
14818TIP3    H165869   2.261   4.446  16.284 -2.0338 -0.0485  0.4812
14818TIP3    H265870   2.266   4.382  16.421  0.7870 -0.5962  0.1864
14819TIP3   OH265871   6.342   3.739  15.937  0.6710 -0.3484  0.4731
14819TIP3    H165872   6.388   3.767  15.858 -1.5032 -0.3930 -0.8904
14819TIP3    H265873   6.274   3.679  15.905 -0.5122 -0.0703  2.3287
14820TIP3   OH265874   0.413   2.241   5.249 -0.2137 -0.0613  0.0212
14820TIP3    H165875   0.462   2.172   5.204  1.7749  1.1293  0.2298
14820TIP3    H265876   0.477   2.282   5.306 -1.1476  2.3555 -0.5370
14821TIP3   OH265877   5.597   1.912   0.491 -0.5415  0.4167  0.3041
14821TIP3    H165878   5.548   1.850   0.436  0.9962  0.3853 -1.0829
14821TIP3    H265879   5.596   1.872   0.578 -0.0391 -1.3035 -0.4451
14822TIP3   OH265880   3.708   2.982   4.217 -0.1787 -0.7608 -0.0243
14822TIP3    H165881   3.679   2.967   4.307  0.1330 -3.1771 -0.2523
14822TIP3    H265882   3.800   3.005   4.225 -0.6274  1.0550  0.3479
14823TIP3   OH265883   4.993   1.665  12.810 -0.5416 -0.0572 -1.2888
14823TIP3    H165884   5.040   1.618  12.879 -0.2191 -2.7589 -3.1937
14823TIP3    H265885   4.901   1.655  12.834 -0.4797  3.8829  1.5897
14824TIP3   OH265886   5.860   2.369  11.476  0.7209 -0.2318 -0.1485
14824TIP3    H165887   5.827   2.279  11.474 -0.6845  0.1077  2.5208
14824TIP3    H265888   5.792   2.420  11.434  1.4420 -0.3605 -1.5117
14825TIP3   OH265889   1.408   1.391  14.488 -0.5832  0.4951  0.1808
14825TIP3    H165890   1.406   1.295  14.485 -0.5056  0.4768  0.5745
14825TIP3    H265891   1.461   1.411  14.565  0.7862  0.8651 -0.8380
14826TIP3   OH265892   3.503   1.769   1.276  0.3950 -0.0628  0.6425
14826TIP3    H165893   3.540   1.688   1.314  1.4852  0.2141  0.2050
14826TIP3    H265894   3.411   1.767   1.301  0.8308 -0.4510  2.3582
14827TIP3   OH265895   0.078   5.413   4.179  0.2030 -0.7207 -0.2708
14827TIP3    H165896   0.025   5.423   4.259  0.6702  0.2030 -0.0664
14827TIP3    H265897   0.018   5.375   4.116 -0.6563  0.0671  0.0389
14828TIP3   OH265898   6.714   1.886   1.798 -0.0648 -0.7460  0.6538
14828TIP3    H165899   6.630   1.931   1.798  0.2268 -0.1860  0.9229
14828TIP3    H265900   6.770   1.940   1.853  1.4133  0.6758 -2.0406
14829TIP3   OH265901   1.231   2.078   1.248  0.9923  0.1883 -0.5889
14829TIP3    H165902   1.259   1.989   1.270 -0.2751  0.0069  0.3637
14829TIP3    H265903   1.188   2.069   1.163  1.3036 -0.0066 -0.7309
14830TIP3   OH265904   6.729   1.006   3.304  0.1981 -0.1336  0.5178
14830TIP3    H165905   6.739   1.038   3.393  0.3951  0.2529  0.3594
14830TIP3    H265906   6.640   0.970   3.300  1.4143 -3.7815  2.0184
14831TIP3   OH265907   2.324   1.058   2.268 -0.4427  0.5214  0.4684
14831TIP3    H165908   2.408   1.074   2.226  0.0003 -3.9239 -0.7669
14831TIP3    H265909   2.260   1.093   2.206  0.3903 -1.8653 -1.9184
14832TIP3   OH265910   4.592   2.738  11.788  0.5189  0.2664 -0.2050
14832TIP3    H165911   4.627   2.694  11.866 -0.6759  1.1015  0.8410
14832TIP3    H265912   4.670   2.759  11.736  1.3398 -0.3946  0.7117
14833TIP3   OH265913   6.260   3.378  13.780 -0.7082 -0.4402 -0.4491
14833TIP3    H165914   6.334   3.432  13.752 -0.0402 -1.3882 -0.5689
14833TIP3    H265915   6.220   3.427  13.851  0.6311 -0.3514  0.2778
14834TIP3   OH265916   5.363   4.844   4.530  0.0250 -0.4131 -0.0747
14834TIP3    H165917   5.454   4.849   4.559 -0.3737 -2.0580  1.6315
14834TIP3    H265918   5.332   4.935   4.533  1.3523  0.0554  0.1412
14835TIP3   OH265919   2.221   3.997   6.013 -0.2252  0.5040 -0.4747
14835TIP3    H165920   2.241   3.949   6.093  0.2372  0.0415 -0.8667
14835TIP3    H265921   2.148   3.948   5.973  0.4916 -0.1068 -1.0653
14836TIP3   OH265922   3.726   1.701  11.278  0.3700  0.5135  0.0391
14836TIP3    H165923   3.719   1.708  11.183  1.4319 -2.2013 -0.3394
14836TIP3    H265924   3.681   1.778  11.311  0.2140  1.7027 -2.6569
14837TIP3   OH265925   1.853   0.437   4.864  0.0090 -0.2504  0.1007
14837TIP3    H165926   1.846   0.526   4.898 -0.4098 -1.0583  2.3649
14837TIP3    H265927   1.811   0.383   4.931 -0.3755 -2.0964 -1.5303
14838TIP3   OH265928   3.828   5.878  12.615  0.3005 -0.3512  0.0889
14838TIP3    H165929   3.820   5.964  12.655  0.7575 -0.6824  0.9113
14838TIP3    H265930   3.796   5.817  12.681 -1.7893 -0.7067 -1.1703
14839TIP3   OH265931   1.717   4.574  15.095  0.7855 -0.3573 -0.0809
14839TIP3    H165932   1.635   4.552  15.050  0.2761 -1.7476  1.4111
14839TIP3    H265933   1.750   4.652  15.050  0.0266 -1.3159 -2.4527
14840TIP3   OH265934   4.936   5.057  13.572  0.7193  0.3331  0.3073
14840TIP3    H165935   4.967   5.000  13.501  0.7492 -1.0212  1.3723
14840TIP3    H265936   4.847   5.027  13.589  1.4359 -0.8317  2.2692
14841TIP3   OH265937   2.389   1.189   3.211 -0.2181  0.2578  0.2598
14841TIP3    H165938   2.477   1.153   3.200 -0.5915 -0.5215 -0.2772
14841TIP3    H265939   2.377   1.195   3.306  0.6645  1.0259  0.3290
14842TIP3   OH265940   0.597   6.467  14.916 -0.5706 -0.2665  0.0680
14842TIP3    H165941   0.689   6.494  14.921 -0.3175 -1.1666  0.4150
14842TIP3    H265942   0.559   6.497  14.998 -0.6268  0.2134 -0.1266
14843TIP3   OH265943   2.344   0.446  15.837  0.0091  0.4955  0.2925
14843TIP3    H165944   2.384   0.389  15.902  0.5065  1.0908  0.5170
14843TIP3    H265945   2.256   0.464  15.871 -0.2338 -0.3011  0.1105
14844TIP3   OH265946   3.165   4.217  11.849 -0.4312  0.1603  0.0848
14844TIP3    H165947   3.193   4.296  11.894  1.0468 -0.8712  1.0618
14844TIP3    H265948   3.108   4.249  11.778 -0.5383  2.0067  0.9386
14845TIP3   OH265949   5.773   5.633   2.709  0.4247  0.4444  0.2922
14845TIP3    H165950   5.819   5.621   2.792  1.4226 -0.7267 -0.3868
14845TIP3    H265951   5.750   5.544   2.682 -0.5261  0.8694 -0.3526
14846TIP3   OH265952   6.006   3.685  11.823 -0.6911  0.1814 -0.4690
14846TIP3    H165953   5.922   3.693  11.868 -0.3417 -0.1234  0.2530
14846TIP3    H265954   6.069   3.727  11.882 -0.5689  1.8892 -1.7501
14847TIP3   OH265955   6.528   3.345   4.075 -0.3257  0.0447 -0.5331
14847TIP3    H165956   6.454   3.335   4.135 -0.4896 -1.5928 -0.9469
14847TIP3    H265957   6.598   3.382   4.128  0.3804 -3.6726  1.4835
14848TIP3   OH265958   6.290   6.303   3.645  0.4756  0.5161 -0.3823
14848TIP3    H165959   6.361   6.257   3.690  1.1201  1.5109 -0.3593
14848TIP3    H265960   6.211   6.254   3.669  0.9497  0.3282  0.8675
14849TIP3   OH265961   0.321   3.712  15.787  0.1556 -0.0978  0.0024
14849TIP3    H165962   0.243   3.657  15.799  0.5374 -0.3973  1.2697
14849TIP3    H265963   0.380   3.659  15.733 -0.4383  0.0589 -0.8156
14850TIP3   OH265964   2.261   1.899   3.472  0.4341  0.0453 -0.1817
14850TIP3    H165965   2.305   1.833   3.419  0.6460  0.1713 -0.1608
14850TIP3    H265966   2.264   1.978   3.419 -1.9092 -0.5081 -1.2705
14851TIP3   OH265967   2.590   1.378   4.271 -0.0112 -0.2982 -0.0411
14851TIP3    H165968   2.681   1.352   4.260 -0.2766 -0.6261 -1.7251
14851TIP3    H265969   2.585   1.411   4.361  1.7706 -0.2006  0.0558
14852TIP3   OH265970   2.326   5.728   2.332 -0.1977 -0.0748 -0.3130
14852TIP3    H165971   2.399   5.779   2.296  1.1713 -1.4981  0.3515
14852TIP3    H265972   2.356   5.701   2.418 -2.0681  0.4014  0.5382
14853TIP3   OH265973   5.510   0.788  14.254  0.0385 -0.3077 -0.3452
14853TIP3    H165974   5.429   0.830  14.282 -2.2450 -1.2479 -4.7211
14853TIP3    H265975   5.563   0.783  14.334 -3.4665  1.8353  2.4174
14854TIP3   OH265976   4.083   2.995  14.779 -0.0577  0.3952  0.1900
14854TIP3    H165977   4.021   2.930  14.811 -1.6528  0.7753 -1.9352
14854TIP3    H265978   4.098   2.972  14.687  0.3950  2.2246 -0.2443
14855TIP3   OH265979   1.022   1.595  10.473 -0.0084 -0.3664 -0.2040
14855TIP3    H165980   0.948   1.650  10.449  0.8047  1.5530  1.3847
14855TIP3    H265981   1.099   1.649  10.456  0.9353 -1.6941 -0.2754
14856TIP3   OH265982   1.371   1.080  15.684  0.1110 -0.5545  0.5442
14856TIP3    H165983   1.310   1.010  15.710  1.0661 -1.3755  0.6362
14856TIP3    H265984   1.386   1.064  15.591  1.8322 -1.7004  0.9702
14857TIP3   OH265985   6.035   4.202   2.392  0.3640  0.2741 -0.8548
14857TIP3    H165986   6.044   4.134   2.459  0.0729  1.0878  0.0312
14857TIP3    H265987   5.948   4.187   2.355  0.1657  0.3590 -0.4315
14858TIP3   OH265988   1.615   2.563  14.425 -0.5935 -0.3751 -0.4648
14858TIP3    H165989   1.632   2.531  14.336  1.1667 -1.2764  0.1628
14858TIP3    H265990   1.520   2.556  14.435 -0.8061 -0.3982 -2.2112
14859TIP3   OH265991   0.698   0.170   1.925 -0.0429  0.0332  0.3751
14859TIP3    H165992   0.696   0.107   1.997 -1.9243  0.7943  1.0364
14859TIP3    H265993   0.609   0.205   1.920  0.5856  1.5970 -0.9062
14860TIP3   OH265994   1.811   4.097  10.198 -0.2600  0.2924  0.0927
14860TIP3    H165995   1.865   4.160  10.246  0.2055  0.5251 -0.6960
14860TIP3    H265996   1.776   4.038  10.264  2.8925 -1.3533  0.4628
14861TIP3   OH265997   4.481   4.877  12.878  0.3475 -0.5767  0.1452
14861TIP3    H165998   4.454   4.830  12.957  1.4053  1.5206  1.8969
14861TIP3    H265999   4.566   4.840  12.856 -0.7063 -2.3681 -1.1383
14862TIP3   OH266000   4.071   0.253  15.695 -0.5515  0.1838 -0.1854
14862TIP3    H166001   4.063   0.158  15.696 -0.8240  0.1973  1.0005
14862TIP3    H266002   4.084   0.276  15.603  1.5191 -1.1623 -0.2960
14863TIP3   OH266003   4.899   6.762  15.988 -0.0612  0.2653 -0.5125
14863TIP3    H166004   4.981   6.810  15.979  0.5007 -0.5161  0.2156
14863TIP3    H266005   4.841   6.800  15.923  1.3263 -0.0938 -2.0334
14864TIP3   OH266006   3.059   4.940  11.235  0.0442  0.6543 -0.5751
14864TIP3    H166007   3.002   4.875  11.193 -1.1085  0.8670  0.6041
14864TIP3    H266008   3.029   5.024  11.200 -0.4034  0.7717  0.0877
14865TIP3   OH266009   0.257   0.543   0.011  0.0167 -0.2819  0.3891
14865TIP3    H166010   0.194   0.541   0.084 -1.1387 -0.4362 -0.5790
14865TIP3    H266011   0.321   0.610   0.037 -1.0363  0.5260  1.0205
14866TIP3   OH266012   1.942   3.173   1.016 -0.8075 -0.5044  0.2159
14866TIP3    H166013   2.024   3.197   1.059 -0.5509 -2.7982  1.1568
14866TIP3    H266014   1.894   3.124   1.082 -2.2898 -0.4866 -0.8071
14867TIP3   OH266015   1.039   5.362   1.343  0.3758 -0.7304  0.2389
14867TIP3    H166016   1.049   5.284   1.397  0.4152 -0.6049  0.4112
14867TIP3    H266017   1.128   5.395   1.330  0.2563  0.0163  1.2353
14868TIP3   OH266018   5.717   2.967  17.001 -0.3137 -0.3767  0.0645
14868TIP3    H166019   5.737   3.058  17.023 -1.1163  0.1040 -1.1314
14868TIP3    H266020   5.794   2.918  17.032 -0.7803  0.3741  2.6919
14869TIP3   OH266021   3.421   2.372   3.372  0.3516  0.2513 -0.2448
14869TIP3    H166022   3.483   2.391   3.443  1.9532  3.0033 -2.1971
14869TIP3    H266023   3.457   2.296   3.328  1.2232  0.5753 -0.1114
14870TIP3   OH266024   3.360   1.725  14.500 -0.1285 -0.0294 -0.1540
14870TIP3    H166025   3.313   1.642  14.507 -1.6359  0.8065  0.1455
14870TIP3    H266026   3.450   1.704  14.524 -0.2358 -1.7788 -1.1197
14871TIP3   OH266027   4.149   1.512  16.786  0.0871  0.2078 -0.3881
14871TIP3    H166028   4.063   1.504  16.746 -2.1923  2.1929  3.5075
14871TIP3    H266029   4.193   1.580  16.736 -1.8075  1.2471 -0.7375
14872TIP3   OH266030   2.954   1.503  11.268 -0.1387  0.2568 -0.3005
14872TIP3    H166031   2.966   1.524  11.175  0.3689  0.6588 -0.1476
14872TIP3    H266032   3.039   1.468  11.295  0.9445  3.4959  0.9085
14873TIP3   OH266033   4.198   2.486  16.907 -0.0563  0.5548 -0.1124
14873TIP3    H166034   4.275   2.442  16.942 -0.2267  0.2504 -0.1125
14873TIP3    H266035   4.136   2.487  16.980  0.3949  1.9062  0.2669
14874TIP3   OH266036   1.879   6.705  12.684 -0.5058  0.4856  0.2278
14874TIP3    H166037   1.971   6.689  12.666 -0.2249 -1.2539  2.6333
14874TIP3    H266038   1.832   6.654  12.619  0.1900  1.3776 -1.0097
14875TIP3   OH266039   1.861   3.639  11.372  1.1911  0.2406  0.1227
14875TIP3    H166040   1.872   3.544  11.373  0.7280  0.1878  0.0579
14875TIP3    H266041   1.864   3.665  11.464  0.6132  0.0837  0.1874
14876TIP3   OH266042   0.844   1.445   5.615 -0.3018 -0.1233 -0.4540
14876TIP3    H166043   0.921   1.446   5.671  0.5885 -0.3194 -1.6450
14876TIP3    H266044   0.793   1.369   5.645  0.9926 -1.2388 -0.9714
14877TIP3   OH266045   5.464   5.955  14.954 -0.5505 -0.0951 -0.7090
14877TIP3    H166046   5.520   5.991  14.885 -0.1285 -2.1131 -1.4652
14877TIP3    H266047   5.440   5.868  14.924 -0.7106 -0.8889  1.5153
14878TIP3   OH266048   3.662   0.555  12.031  0.7759 -0.0981 -0.2626
14878TIP3    H166049   3.755   0.545  12.053  1.6879  1.3958 -2.9663
14878TIP3    H266050   3.634   0.631  12.082  1.1484 -0.2924  0.2475
14879TIP3   OH266051   2.448   4.993  11.078 -0.6746 -0.0873 -0.3287
14879TIP3    H166052   2.506   5.061  11.112  0.2402  0.6148 -3.1022
14879TIP3    H266053   2.503   4.914  11.076 -0.2113  0.2462 -1.6023
14880TIP3   OH266054   4.989   5.742  14.231  0.4170  0.1235 -0.1007
14880TIP3    H166055   4.973   5.786  14.148  0.6519  0.8367  0.2277
14880TIP3    H266056   4.933   5.664  14.229 -1.6260  1.5289  0.2220
14881TIP3   OH266057   0.304   4.526   0.719  0.5362 -0.5840  0.0583
14881TIP3    H166058   0.208   4.517   0.716  0.4536  0.3806 -0.3314
14881TIP3    H266059   0.336   4.448   0.674 -0.0673 -0.9022  0.1607
14882TIP3   OH266060   1.829   0.641  16.061  0.2437 -0.2865 -0.2900
14882TIP3    H166061   1.782   0.569  16.019 -0.2220  0.0306 -0.3214
14882TIP3    H266062   1.794   0.644  16.150 -1.3499  1.2671 -0.8956
14883TIP3   OH266063   1.468   2.900   5.007  0.2496 -0.0907  0.3837
14883TIP3    H166064   1.530   2.964   4.972  0.3184 -0.3305  0.0692
14883TIP3    H266065   1.468   2.829   4.944 -0.8475  0.2028  0.0437
14884TIP3   OH266066   2.204   1.750   2.536 -0.1781 -0.2800 -0.5815
14884TIP3    H166067   2.120   1.777   2.501  0.5397  1.5447 -1.0403
14884TIP3    H266068   2.232   1.823   2.591  1.1455 -0.7906 -0.5160
14885TIP3   OH266069   3.368   2.560  12.144  0.2613  0.5764  0.0087
14885TIP3    H166070   3.361   2.470  12.175  0.5860  0.6518  0.3066
14885TIP3    H266071   3.425   2.603  12.208  2.9690  0.1368 -1.9253
14886TIP3   OH266072   6.077   1.024  13.023 -1.0250 -0.6259  0.0209
14886TIP3    H166073   5.982   1.038  13.033 -0.8414  2.0536 -1.2255
14886TIP3    H266074   6.117   1.089  13.081  0.0843 -1.5049  0.2707
14887TIP3   OH266075   5.280   5.571  13.275  0.1569 -0.1174  0.3245
14887TIP3    H166076   5.320   5.655  13.252  1.1802 -0.1697  1.7743
14887TIP3    H266077   5.316   5.550  13.361 -0.0326 -2.0649 -0.0166
14888TIP3   OH266078   2.327   2.530  11.678 -0.5300 -0.0502 -0.6998
14888TIP3    H166079   2.289   2.614  11.702 -0.9639 -0.1474 -1.0319
14888TIP3    H266080   2.384   2.508  11.751 -1.9511 -0.4216  0.3368
14889TIP3   OH266081   5.076   3.624  16.101  0.6221  0.2806  0.3804
14889TIP3    H166082   5.079   3.664  16.188  0.6292  1.2597 -0.0551
14889TIP3    H266083   5.067   3.698  16.041 -1.7563 -0.4777 -0.3185
14890TIP3   OH266084   4.407   4.175  14.899  0.3020 -0.0772 -0.1222
14890TIP3    H166085   4.370   4.248  14.849 -0.0158 -0.4598 -0.4548
14890TIP3    H266086   4.482   4.146  14.848  0.6780  0.2831  0.2238
14891TIP3   OH266087   4.730   0.094  12.375  0.2212  0.3888  0.7017
14891TIP3    H166088   4.641   0.073  12.346  0.4210 -3.2652  2.2096
14891TIP3    H266089   4.717   0.149  12.453 -0.5832  1.6503 -0.2799
14892TIP3   OH266090   4.290   5.946   5.115 -0.3567 -0.2711 -0.3305
14892TIP3    H166091   4.229   6.020   5.109  0.1770  0.1545 -0.5547
14892TIP3    H266092   4.311   5.939   5.208  0.8843  0.9273 -0.5005
14893TIP3   OH266093   0.838   3.919   0.435  0.0653  0.4432  0.2395
14893TIP3    H166094   0.842   3.823   0.438  0.8950  0.4440 -0.3756
14893TIP3    H266095   0.884   3.947   0.514 -1.7872  0.3440  1.4040
14894TIP3   OH266096   4.982   5.945   3.285  0.6347 -0.8264  0.0521
14894TIP3    H166097   4.959   5.861   3.324  0.7346 -1.6448 -1.5766
14894TIP3    H266098   5.074   5.935   3.259  1.6505  0.8855  2.5371
14895TIP3   OH266099   4.697   4.929   6.125  0.1473  0.5883 -0.1807
14895TIP3    H166100   4.763   4.902   6.189 -1.6105 -1.5860  0.8302
14895TIP3    H266101   4.664   5.012   6.160 -0.4414 -0.3224  1.5211
14896TIP3   OH266102   2.678   1.107   3.293 -0.3991 -0.2105  0.3116
14896TIP3    H166103   2.705   1.197   3.275  1.8064 -1.1208 -1.5082
14896TIP3    H266104   2.744   1.074   3.354 -0.3946 -0.9619 -0.0853
14897TIP3   OH266105   0.830   4.845  14.367  0.1475 -0.0493 -0.1194
14897TIP3    H166106   0.828   4.753  14.340 -1.4781 -0.4222  1.0789
14897TIP3    H266107   0.861   4.842  14.458 -0.9917  0.4650  0.2964
14898TIP3   OH266108   6.001   1.494  16.087  0.3301  0.6083  0.3113
14898TIP3    H166109   5.918   1.466  16.126  0.6854  1.4264  1.7625
14898TIP3    H266110   6.058   1.418  16.093  0.3727  0.7070  1.4618
14899TIP3   OH266111   2.809   1.366   1.275 -0.0723  0.4248  0.2982
14899TIP3    H166112   2.841   1.384   1.363 -2.5969  0.4033  1.3200
14899TIP3    H266113   2.813   1.450   1.230  0.3395  0.6479  0.7394
14900TIP3   OH266114   2.654   1.997   3.093 -0.7603  0.5003 -0.1106
14900TIP3    H166115   2.623   1.930   3.032 -0.5047  1.2513 -1.1108
14900TIP3    H266116   2.591   1.995   3.165 -2.2123  0.8452 -1.2984
14901TIP3   OH266117   0.995   5.414   2.283 -0.3840 -0.9121 -0.0350
14901TIP3    H166118   0.986   5.319   2.285  0.6437 -1.0122  0.1834
14901TIP3    H266119   1.015   5.434   2.191 -1.6626 -0.7908 -0.3032
14902TIP3   OH266120   0.112   5.953  15.219 -0.3710 -0.8304 -0.1604
14902TIP3    H166121   0.095   5.976  15.128 -2.0457  0.3997  0.4028
14902TIP3    H266122   0.066   5.870  15.232 -0.8331 -0.5862 -0.2278
14903TIP3   OH266123   6.061   0.025   1.875  0.1296 -0.4231  1.5642
14903TIP3    H166124   6.007   0.054   1.802  0.5672  0.4248  1.5602
14903TIP3    H266125   6.040   0.085   1.946  0.8867 -0.2271  1.6342
14904TIP3   OH266126   1.811   4.453  15.701 -0.3425 -0.1147 -0.6415
14904TIP3    H166127   1.771   4.534  15.732  0.1752  0.6850 -1.9732
14904TIP3    H266128   1.905   4.466  15.710 -0.2325 -0.3585 -1.3102
14905TIP3   OH266129   3.377   2.244   0.262 -0.7492 -0.1566 -0.7572
14905TIP3    H166130   3.397   2.201   0.179  0.1763  0.8259 -1.0617
14905TIP3    H266131   3.377   2.337   0.241 -2.1580  0.0433  0.0064
14906TIP3   OH266132   4.694   6.426  16.971 -0.1773  0.1130 -0.1420
14906TIP3    H166133   4.756   6.477  16.920 -0.7746  1.1381  0.1178
14906TIP3    H266134   4.638   6.492  17.013 -1.4351 -0.7781 -0.3720
14907TIP3   OH266135   2.778   2.281   2.273 -0.6125  0.1466  0.1529
14907TIP3    H166136   2.751   2.336   2.346  0.2670  0.0080  0.5942
14907TIP3    H266137   2.817   2.343   2.210  0.9465 -0.0102  0.9189
14908TIP3   OH266138   4.765   3.959   1.572  0.6204 -0.0483  0.1216
14908TIP3    H166139   4.677   3.987   1.549 -0.2708  1.1195  4.1423
14908TIP3    H266140   4.769   3.867   1.547 -1.1975  0.2345 -1.4019
14909TIP3   OH266141   0.306   2.223  14.788 -0.3914  0.7500 -0.2343
14909TIP3    H166142   0.350   2.154  14.838 -0.6739 -0.2716 -1.3657
14909TIP3    H266143   0.248   2.177  14.727 -1.1715  2.0051 -0.4968
14910TIP3   OH266144   0.474   5.688   3.499 -0.7115 -0.3508  0.4976
14910TIP3    H166145   0.428   5.770   3.484 -1.8174 -1.0411 -0.0171
14910TIP3    H266146   0.472   5.643   3.415 -2.0423 -1.8303  1.2702
14911TIP3   OH266147   1.614   0.104  15.649 -0.1947 -0.3798 -0.3214
14911TIP3    H166148   1.624   0.058  15.566 -0.8903  0.2692 -0.7716
14911TIP3    H266149   1.673   0.057  15.709 -1.4008 -2.3366 -0.5647
14912TIP3   OH266150   0.248   3.561   1.327 -0.4998  0.8484 -0.5399
14912TIP3    H166151   0.176   3.542   1.267 -0.2347  1.1382 -0.9473
14912TIP3    H266152   0.213   3.630   1.384 -1.7785 -1.3018  1.4961
14913TIP3   OH266153   5.363   2.432  12.365  0.4532 -0.3267  0.6372
14913TIP3    H166154   5.311   2.480  12.300 -0.9306  1.5345  2.9461
14913TIP3    H266155   5.359   2.341  12.336 -0.1005  0.3802 -1.8243
14914TIP3   OH266156   2.932   6.092   3.227 -0.0025  0.9439 -0.6259
14914TIP3    H166157   2.987   6.041   3.167  0.8923  0.2122  0.7605
14914TIP3    H266158   2.981   6.174   3.240 -0.6732  1.5216 -1.6263
14915TIP3   OH266159   2.673   0.434  12.680 -0.6690  0.5793  0.0356
14915TIP3    H166160   2.629   0.421  12.596 -0.1489  0.4633 -0.2180
14915TIP3    H266161   2.609   0.402  12.745 -0.8295  0.0997 -0.3519
14916TIP3   OH266162   3.248   5.445  11.542  0.6506  0.4072 -0.4167
14916TIP3    H166163   3.262   5.351  11.535  1.2677  0.5937 -1.8805
14916TIP3    H266164   3.161   5.459  11.504  0.9412  0.5398 -1.0317
14917TIP3   OH266165   0.322   5.233   0.161 -0.2709 -0.0149  0.2369
14917TIP3    H166166   0.304   5.141   0.140  1.1056 -0.0395 -0.9938
14917TIP3    H266167   0.314   5.237   0.256  0.0857 -1.5252  0.3638
14918TIP3   OH266168   1.591   4.452   0.003  0.6518 -0.2751 -0.2310
14918TIP3    H166169   1.507   4.464  -0.041  0.0615  0.0107  0.9390
14918TIP3    H266170   1.634   4.537  -0.005 -0.0795  0.2334  0.9903
14919TIP3   OH266171   0.744   1.058   3.597  0.4993 -0.0215 -0.4797
14919TIP3    H166172   0.815   1.013   3.643  0.1783 -0.7872 -0.7146
14919TIP3    H266173   0.776   1.069   3.508  0.4824 -0.0201 -0.4856
14920TIP3   OH266174   4.900   3.645   1.110 -0.6150  0.3329  0.0478
14920TIP3    H166175   4.944   3.573   1.155 -0.6354 -0.1236 -0.6546
14920TIP3    H266176   4.865   3.700   1.181 -1.0429 -0.6194  0.5903
14921TIP3   OH266177   5.054   6.562  16.378  0.3413  0.2037 -0.1962
14921TIP3    H166178   4.969   6.571  16.422  0.5312  1.1177 -0.0036
14921TIP3    H266179   5.119   6.578  16.447  0.6542  0.7736 -0.6207
14922TIP3   OH266180   4.530   4.845   3.533 -0.7252 -0.9316  0.3926
14922TIP3    H166181   4.541   4.785   3.607  1.5923  0.6820  1.4985
14922TIP3    H266182   4.541   4.932   3.571  2.3141 -0.0739 -2.0202
14923TIP3   OH266183   3.493   3.074  11.987  0.3731  0.0591  0.2571
14923TIP3    H166184   3.408   3.104  11.954 -0.1571  0.7812  2.1680
14923TIP3    H266185   3.481   3.065  12.081  1.8090 -1.9808  0.3133
14924TIP3   OH266186   5.014   4.910   3.901  0.3283 -0.2755 -0.4753
14924TIP3    H166187   5.086   4.849   3.883  0.8091  0.2358 -0.2977
14924TIP3    H266188   4.956   4.862   3.959  0.7691 -0.5246 -0.2349
14925TIP3   OH266189   0.968   0.953  16.992  0.2298 -0.3057  0.3481
14925TIP3    H166190   0.923   0.881  16.948 -0.4184  0.7867 -0.8675
14925TIP3    H266191   1.047   0.914  17.030 -1.8229 -2.3682  2.8540
14926TIP3   OH266192   5.569   6.283  14.067  0.2431  0.1403  0.4976
14926TIP3    H166193   5.663   6.302  14.064  0.3346 -0.2353  0.8496
14926TIP3    H266194   5.562   6.191  14.044 -0.0390  0.1605  0.4948
14927TIP3   OH266195   0.887   2.219  16.465  0.3523 -0.0484  0.1021
14927TIP3    H166196   0.862   2.297  16.416 -2.1463 -0.8285 -0.0148
14927TIP3    H266197   0.980   2.232  16.486  0.8662  1.4140 -2.6868
14928TIP3   OH266198   5.803   0.636  13.214 -0.1729  0.1712 -0.5588
14928TIP3    H166199   5.771   0.719  13.246 -0.6910 -0.3874  0.4035
14928TIP3    H266200   5.792   0.575  13.287  2.9182 -0.1211 -0.1653
14929TIP3   OH266201   5.275   6.765  11.087  0.2398 -0.1469 -0.4364
14929TIP3    H166202   5.254   6.686  11.037 -0.4663 -0.0636 -0.2820
14929TIP3    H266203   5.363   6.748  11.122 -0.3363 -1.3226  0.5021
14930TIP3   OH266204   4.705   0.743  10.654 -0.1047  0.0815  0.3100
14930TIP3    H166205   4.788   0.697  10.649 -0.5894 -0.6818 -1.7088
14930TIP3    H266206   4.721   0.827  10.612 -0.8388 -0.9718 -2.2930
14931TIP3   OH266207   0.746   5.386   0.361 -0.3813 -0.2114 -0.0362
14931TIP3    H166208   0.695   5.430   0.429 -3.3226  0.4830 -2.5165
14931TIP3    H266209   0.726   5.293   0.373  0.5232 -0.2956  1.0484
14932TIP3   OH266210   6.608   4.309   3.055  0.0811  0.2184 -0.0932
14932TIP3    H166211   6.524   4.322   3.099  0.1929  2.1643 -0.3541
14932TIP3    H266212   6.658   4.387   3.076  1.4815 -0.4686 -0.7502
14933TIP3   OH266213   0.995   3.565  13.271 -1.0023  0.5802 -0.2970
14933TIP3    H166214   0.931   3.500  13.300  0.6093 -0.7835  0.4089
14933TIP3    H266215   0.958   3.601  13.191 -1.4282 -2.1693 -1.4478
14934TIP3   OH266216   2.687   3.261   3.526  0.1849  0.3676 -0.5990
14934TIP3    H166217   2.747   3.201   3.482  1.1135  1.7305 -1.2927
14934TIP3    H266218   2.633   3.298   3.456 -0.7910 -0.0966 -0.1049
14935TIP3   OH266219   4.818   5.939   5.217 -0.2069 -0.1373 -0.3749
14935TIP3    H166220   4.859   5.858   5.244  1.6078  1.1560  0.9849
14935TIP3    H266221   4.727   5.932   5.247  0.4264 -0.8726  1.4574
14936TIP3   OH266222   1.369   1.723  13.955 -1.0167  0.2483 -0.0416
14936TIP3    H166223   1.345   1.815  13.967  1.4527  0.7514  1.8656
14936TIP3    H266224   1.462   1.725  13.934 -0.8733 -1.8117  0.1989
14937TIP3   OH266225   2.940   1.710  16.529  0.1395 -0.0060  0.1788
14937TIP3    H166226   2.911   1.735  16.617 -0.4311  1.0318 -0.2827
14937TIP3    H266227   2.879   1.641  16.502 -1.0771  1.1809 -0.2257
14938TIP3   OH266228   2.096   0.136   5.364 -0.3952  0.1036 -0.4649
14938TIP3    H166229   2.004   0.112   5.368 -0.1408 -1.0219 -0.8984
14938TIP3    H266230   2.135   0.096   5.442 -0.1670  0.0641 -0.5970
14939TIP3   OH266231   1.087   4.018   5.188 -0.0222  0.5846  0.1448
14939TIP3    H166232   1.049   3.934   5.164  2.4537 -0.8732  1.0347
14939TIP3    H266233   1.129   4.049   5.108 -2.6085  2.0684 -0.7627
14940TIP3   OH266234   5.801   2.881  16.690 -0.5431  0.1889  0.4067
14940TIP3    H166235   5.799   2.787  16.704 -2.7301  0.3331  1.4267
14940TIP3    H266236   5.822   2.918  16.775 -2.5684  0.6786  0.7469
14941TIP3   OH266237   1.560   1.686  15.120 -0.5290  0.1656 -0.2456
14941TIP3    H166238   1.515   1.628  15.058  1.1239 -1.5418  0.0423
14941TIP3    H266239   1.604   1.751  15.064 -0.2622 -0.4692 -0.8044
14942TIP3   OH266240   0.767   3.810  13.168 -0.0101  0.1288  0.0012
14942TIP3    H166241   0.843   3.792  13.114  0.1091 -0.3861  0.3345
14942TIP3    H266242   0.734   3.724  13.193 -1.9449  0.2591 -1.8328
14943TIP3   OH266243   4.752   1.786   3.580  0.5847 -0.0458  0.7666
14943TIP3    H166244   4.783   1.706   3.622 -2.3017 -1.4437  0.4426
14943TIP3    H266245   4.806   1.794   3.502  1.6367 -1.0738  1.3562
14944TIP3   OH266246   2.927   5.737   2.926 -0.3878  0.2940 -0.2084
14944TIP3    H166247   2.927   5.824   2.886  1.8635  0.9183  0.9958
14944TIP3    H266248   3.016   5.725   2.959 -1.0931 -1.7662  1.1708
14945TIP3   OH266249   4.171   5.242  10.403  0.0050  0.4563 -0.4936
14945TIP3    H166250   4.107   5.301  10.363 -0.8610  0.8583  1.3863
14945TIP3    H266251   4.213   5.295  10.471 -1.1246 -1.1379  1.5582
14946TIP3   OH266252   5.673   5.210   1.997  0.5932 -0.1802  0.4780
14946TIP3    H166253   5.665   5.170   1.911  0.6739 -3.9793  2.0376
14946TIP3    H266254   5.589   5.256   2.010  0.6324  0.5644 -1.5623
14947TIP3   OH266255   5.036   1.817  13.523  0.2908  0.4756  0.3463
14947TIP3    H166256   4.954   1.772  13.541  1.3706 -0.6728  2.9496
14947TIP3    H266257   5.033   1.896  13.576  0.4999  0.9061 -0.2727
14948TIP3   OH266258   4.166   1.048   5.448 -0.2619  0.2110  0.0113
14948TIP3    H166259   4.255   1.078   5.428  0.2985  0.0364  2.0318
14948TIP3    H266260   4.174   1.004   5.532 -2.4320  0.9649  0.6820
14949TIP3   OH266261   2.257   5.177   2.636 -0.1905 -0.7917  0.3415
14949TIP3    H166262   2.285   5.265   2.660 -2.1399  0.3058 -1.1164
14949TIP3    H266263   2.166   5.172   2.664 -0.4422 -1.9521 -0.5793
14950TIP3   OH266264   0.681   1.175   1.129 -0.1473 -0.6449 -0.0733
14950TIP3    H166265   0.690   1.259   1.174 -1.5163 -1.6329  2.2762
14950TIP3    H266266   0.628   1.194   1.052 -1.3541  0.5421  0.9910
14951TIP3   OH266267   4.461   0.537  12.888 -0.6246 -0.3237  0.3923
14951TIP3    H166268   4.448   0.628  12.916 -3.5766 -0.8819  1.1680
14951TIP3    H266269   4.499   0.493  12.964 -2.1468 -0.3687  1.1494
14952TIP3   OH266270   0.050   3.136   3.656 -0.0103 -0.1189 -0.4118
14952TIP3    H166271  -0.032   3.097   3.684 -0.1143  0.4081  0.0378
14952TIP3    H266272   0.078   3.190   3.730  0.2293  0.4964 -0.9368
14953TIP3   OH266273   0.300   5.017   0.534  0.3162 -0.1681 -0.0105
14953TIP3    H166274   0.218   5.013   0.486  0.1135  0.7993  0.2293
14953TIP3    H266275   0.307   4.932   0.578 -0.4689 -0.3194 -0.1723
14954TIP3   OH266276   6.749   0.600   1.863  0.8214 -0.1603 -0.0420
14954TIP3    H166277   6.695   0.522   1.855  1.6227 -0.5653 -2.2762
14954TIP3    H266278   6.819   0.588   1.799  2.3403  1.3248  1.2332
14955TIP3   OH266279   5.874   3.646  13.396 -0.1674  0.1435  0.5283
14955TIP3    H166280   5.836   3.593  13.466  0.7070 -1.0451  0.1359
14955TIP3    H266281   5.813   3.637  13.323  0.6403 -1.5036  0.0023
14956TIP3   OH266282   4.488   0.773   3.509  0.1532 -0.1726 -0.1164
14956TIP3    H166283   4.463   0.708   3.574  0.4052 -0.0757  0.0816
14956TIP3    H266284   4.584   0.769   3.507  0.3462  1.7378  1.5519
14957TIP3   OH266285   1.801   1.763  12.798 -0.2378  0.6996 -0.3195
14957TIP3    H166286   1.776   1.685  12.847 -0.3920 -0.0857 -1.6098
14957TIP3    H266287   1.718   1.799  12.767 -0.4485  2.9286  2.4249
14958TIP3   OH266288   0.978   3.948   2.875  0.2892 -0.3678 -0.3620
14958TIP3    H166289   1.036   3.960   2.950  1.7464  1.3582 -1.6816
14958TIP3    H266290   0.978   3.853   2.861 -1.8909 -1.0678  3.1192
14959TIP3   OH266291   3.977   1.351  15.343  0.1914  0.7724  0.2951
14959TIP3    H166292   4.001   1.400  15.265  1.3266 -2.5887 -1.6669
14959TIP3    H266293   4.057   1.350  15.396 -0.2540  2.0996  1.0564
14960TIP3   OH266294   4.899   0.449  14.501 -0.2742  0.0194 -0.0790
14960TIP3    H166295   4.938   0.503  14.569  0.0988 -0.8529  0.4257
14960TIP3    H266296   4.941   0.478  14.420  0.1731  0.2421  0.2296
14961TIP3   OH266297   0.952   5.535  16.953 -0.1837 -1.2208  0.4400
14961TIP3    H166298   0.910   5.622  16.957  0.2331 -1.0711  2.8018
14961TIP3    H266299   0.923   5.499  16.870  0.1976  1.4605 -0.9762
14962TIP3   OH266300   1.194   1.834  12.961  0.0707  0.4901  0.1565
14962TIP3    H166301   1.187   1.741  12.984 -0.5450  0.2726 -0.8270
14962TIP3    H266302   1.285   1.856  12.978  0.6831 -0.7660 -1.2070
14963TIP3   OH266303   5.941   4.643  14.660  0.1636 -0.0326  0.4148
14963TIP3    H166304   5.918   4.606  14.575  1.9874 -0.7054  0.1734
14963TIP3    H266305   5.885   4.597  14.723  1.1116 -1.9637 -0.0874
14964TIP3   OH266306   0.765   5.004   2.900  0.7765 -0.0550 -0.3803
14964TIP3    H166307   0.748   5.076   2.960 -2.1441 -0.2448 -0.8602
14964TIP3    H266308   0.841   4.959   2.937 -0.5009  0.2072  2.8413
14965TIP3   OH266309   6.375   3.814   1.441 -0.3919  0.0320 -0.0785
14965TIP3    H166310   6.402   3.894   1.486  0.9979 -0.7638  0.5716
14965TIP3    H266311   6.359   3.751   1.511 -0.7009 -0.4902 -0.6124
14966TIP3   OH266312   6.174   1.317  10.340 -0.1145 -0.1286 -0.3299
14966TIP3    H166313   6.128   1.245  10.383 -0.5635  1.0004  1.1768
14966TIP3    H266314   6.113   1.391  10.346 -0.0781  0.1488 -2.7382
14967TIP3   OH266315   3.825   6.135   1.846 -0.2694  0.2420 -0.3666
14967TIP3    H166316   3.872   6.140   1.763  0.2588  0.9754 -0.0336
14967TIP3    H266317   3.734   6.154   1.823  0.0950  1.8400 -0.5937
14968TIP3   OH266318   1.656   0.820  11.448 -0.6404 -0.3655 -0.7271
14968TIP3    H166319   1.612   0.751  11.497 -0.7678 -1.8152 -2.7227
14968TIP3    H266320   1.614   0.817  11.362  0.2033  1.3990 -1.2331
14969TIP3   OH266321   5.205   3.313   1.458  0.1581 -0.4001  0.1772
14969TIP3    H166322   5.294   3.334   1.432  0.4577 -0.6420  0.9909
14969TIP3    H266323   5.210   3.224   1.493  0.3645  0.8815  3.7314
14970TIP3   OH266324   2.313   5.136  11.422 -0.3239  0.2294 -0.6252
14970TIP3    H166325   2.306   5.068  11.489 -0.2510  0.7467 -0.0901
14970TIP3    H266326   2.235   5.125  11.367 -1.0961  0.6824  0.3611
14971TIP3   OH266327   4.469   4.453  15.021  0.3355 -0.0449  0.2843
14971TIP3    H166328   4.514   4.375  15.053 -1.0488 -1.3290 -0.7116
14971TIP3    H266329   4.391   4.460  15.076 -0.0113  0.0779 -0.2116
14972TIP3   OH266330   1.230   2.186  12.344  0.3918  0.5883  0.2981
14972TIP3    H166331   1.283   2.265  12.344  0.6351  0.4485 -0.8350
14972TIP3    H266332   1.211   2.170  12.251 -1.8829  0.8030  0.6532
14973TIP3   OH266333   1.977   1.884  15.167 -0.5008  0.5429 -0.3736
14973TIP3    H166334   1.962   1.927  15.082  0.3756  1.0269 -0.2946
14973TIP3    H266335   1.931   1.939  15.230 -0.3591  0.7159 -0.4196
14974TIP3   OH266336   2.058   3.615   1.682 -0.2278  0.0632 -0.4212
14974TIP3    H166337   2.084   3.694   1.635  0.1274  1.0356  1.3035
14974TIP3    H266338   2.136   3.591   1.732 -0.9562 -0.1877  0.6260
14975TIP3   OH266339   5.451   1.906  12.894  0.2790  0.3603  0.1721
14975TIP3    H166340   5.371   1.946  12.927  0.6856  1.3691 -0.0166
14975TIP3    H266341   5.426   1.816  12.871 -1.3466  1.3105 -2.0048
14976TIP3   OH266342   5.798   0.682  11.601 -0.1908 -0.0284 -0.4225
14976TIP3    H166343   5.866   0.748  11.587  0.1778 -0.3856 -0.3210
14976TIP3    H266344   5.784   0.682  11.695  0.2341 -0.5118 -0.3553
14977TIP3   OH266345   0.607   4.756  10.168  0.3102  0.0113  1.0342
14977TIP3    H166346   0.615   4.712  10.253 -0.1582 -1.9339  0.1448
14977TIP3    H266347   0.697   4.768  10.138  0.4587  0.1910  1.5540
14978TIP3   OH266348   1.613   0.118  12.831 -0.4732 -0.3923  0.3583
14978TIP3    H166349   1.582   0.205  12.807 -0.6552 -0.7003 -0.5543
14978TIP3    H266350   1.607   0.067  12.750  1.1559 -0.8132  0.4640
14979TIP3   OH266351   4.590   1.579   1.772 -0.1700 -0.1642  0.5887
14979TIP3    H166352   4.556   1.663   1.740 -1.3010 -0.7185  0.2841
14979TIP3    H266353   4.580   1.519   1.697 -2.7051 -1.4531  1.8220
14980TIP3   OH266354   2.373   1.229   5.000  1.0315  0.1753  0.0029
14980TIP3    H166355   2.353   1.284   5.076 -0.4903  0.1988 -0.3898
14980TIP3    H266356   2.317   1.263   4.930 -0.1753 -2.0103 -0.1877
14981TIP3   OH266357   6.446   3.606   4.419 -0.0348 -0.5092 -0.4300
14981TIP3    H166358   6.454   3.699   4.437 -0.0421 -0.2660 -1.6365
14981TIP3    H266359   6.513   3.565   4.474  1.6597  0.4291 -1.7201
14982TIP3   OH266360   3.312   3.751   5.754  0.4204  0.1599 -0.2381
14982TIP3    H166361   3.246   3.821   5.752  0.2084 -0.0096  0.4494
14982TIP3    H266362   3.360   3.761   5.672 -1.3462 -0.5804 -1.4136
14983TIP3   OH266363   4.708   2.538   4.470  0.2863 -0.6638  0.4917
14983TIP3    H166364   4.723   2.456   4.517 -0.6096 -0.4820  1.1320
14983TIP3    H266365   4.787   2.551   4.418  0.2407 -2.1770  0.0086
14984TIP3   OH266366   2.098   1.793   5.399  0.0066  0.2151 -0.3218
14984TIP3    H166367   2.174   1.852   5.398  0.9910 -0.5750  4.0479
14984TIP3    H266368   2.048   1.821   5.476 -1.7298 -2.0588 -0.5298
14985TIP3   OH266369   0.012   1.319   4.233 -0.0154  0.0785 -0.3686
14985TIP3    H166370   0.002   1.238   4.185  0.2982  0.3455 -0.8910
14985TIP3    H266371  -0.074   1.335   4.271  0.4530 -1.6023  1.5458
14986TIP3   OH266372   1.375   6.168   3.926 -0.0832  0.1186 -0.0908
14986TIP3    H166373   1.403   6.114   4.000  0.0419  1.6047  0.9848
14986TIP3    H266374   1.282   6.182   3.940 -0.0988  0.2528 -0.3241
14987TIP3   OH266375   0.373   3.698   4.540  0.3283 -0.2143  0.2100
14987TIP3    H166376   0.286   3.720   4.573  0.1381 -2.6274  1.6027
14987TIP3    H266377   0.428   3.773   4.562 -1.1782  0.8804  0.3105
14988TIP3   OH266378   3.762   1.853  16.492 -0.2399  0.1983  0.1519
14988TIP3    H166379   3.840   1.798  16.499 -0.8924 -0.7717 -0.0053
14988TIP3    H266380   3.768   1.893  16.405  0.6199  1.0004  0.5583
14989TIP3   OH266381   0.006   2.236   5.015 -0.4433 -0.5162  0.2577
14989TIP3    H166382  -0.088   2.252   5.006 -0.5580 -0.7737  0.9391
14989TIP3    H266383   0.028   2.267   5.103 -0.1858 -1.8058  0.6714
14990TIP3   OH266384   3.017   3.772  13.505 -0.4082 -0.6269  0.3461
14990TIP3    H166385   3.065   3.848  13.538  0.4595 -0.6627 -0.7717
14990TIP3    H266386   2.927   3.804  13.493  0.2034  0.6254 -1.2680
14991TIP3   OH266387   5.308   1.744   2.453  0.5393 -0.1664  0.0384
14991TIP3    H166388   5.266   1.684   2.514 -1.5862  0.0728 -1.1029
14991TIP3    H266389   5.295   1.704   2.367 -0.0454  1.4035 -0.6453
14992TIP3   OH266390   3.759   1.410   4.466  0.1706 -0.1801 -0.0937
14992TIP3    H166391   3.832   1.394   4.525 -0.2001  2.4762  1.2366
14992TIP3    H266392   3.693   1.452   4.521 -1.9125 -1.3762 -1.5293
14993TIP3   OH266393   4.491   0.133  13.085 -0.4381 -0.1984 -0.1969
14993TIP3    H166394   4.452   0.065  13.030  1.4439  0.1533 -2.1303
14993TIP3    H266395   4.527   0.085  13.160 -0.4339 -1.1416 -0.7782
14994TIP3   OH266396   1.401   5.427  14.398 -0.0885 -0.3370 -0.0208
14994TIP3    H166397   1.406   5.429  14.302 -0.1002 -2.3848 -0.1226
14994TIP3    H266398   1.308   5.414  14.417  0.0178 -0.7780  0.2138
14995TIP3   OH266399   2.998   5.397   5.751 -0.1523 -0.0866 -0.8118
14995TIP3    H166400   3.030   5.317   5.793 -2.2194  0.1710  1.4892
14995TIP3    H266401   3.060   5.413   5.680  1.4415 -2.6308 -0.1417
14996TIP3   OH266402   3.837   5.635  16.951  0.5166 -0.1304  0.6375
14996TIP3    H166403   3.746   5.662  16.963  0.6850  0.6007  0.3000
14996TIP3    H266404   3.889   5.710  16.978  0.9627  0.4345 -1.5696
14997TIP3   OH266405   5.194   6.710   2.026 -0.7710  0.2181  0.2010
14997TIP3    H166406   5.229   6.795   1.997 -1.6142  0.4041 -0.3034
14997TIP3    H266407   5.240   6.692   2.107  1.2035 -0.0004 -0.9030
14998TIP3   OH266408   1.992   2.287  14.973 -0.7655 -0.1524  0.4701
14998TIP3    H166409   1.911   2.321  15.012 -1.2741 -1.2280  0.3908
14998TIP3    H266410   2.057   2.354  14.992 -1.7581  0.9301  0.1960
14999TIP3   OH266411   2.967   1.136   3.156  0.5747  0.5244  0.2996
14999TIP3    H166412   2.893   1.076   3.148 -0.4517  1.5967  1.2627
14999TIP3    H266413   2.947   1.206   3.094  0.6342  0.9567  0.7644
15000TIP3   OH266414   2.936   2.833   2.934  0.2023  0.8213  0.1193
15000TIP3    H166415   2.941   2.913   2.987  0.4715  0.3433  0.8300
15000TIP3    H266416   2.979   2.766   2.987 -1.7815 -0.2745  0.4540
15001TIP3   OH266417   2.935   2.101  14.574  0.0591  0.6677 -0.0714
15001TIP3    H166418   2.926   2.111  14.479 -2.6671  0.8296  0.1227
15001TIP3    H266419   2.879   2.027  14.596 -0.1984  1.2891  1.5162
15002TIP3   OH266420   2.686   2.046   2.748 -0.5285  0.8375 -0.4698
15002TIP3    H166421   2.746   2.119   2.734  1.1381  0.2949  2.9745
15002TIP3    H266422   2.611   2.085   2.793 -0.9590  0.8297 -1.1550
15003TIP3   OH266423   2.903   0.568  11.664  0.3052  0.0201 -0.7793
15003TIP3    H166424   2.877   0.535  11.749  0.2062 -0.3820 -0.9631
15003TIP3    H266425   2.846   0.644  11.649  0.2883  0.0604 -0.5129
15004TIP3   OH266426   4.978   2.239   1.550  0.3530 -0.4745  0.2041
15004TIP3    H166427   4.974   2.259   1.643 -1.2809 -1.0471  0.2978
15004TIP3    H266428   4.949   2.319   1.506 -0.0653 -0.5883  0.2646
15005TIP3   OH266429   2.134   0.775   4.987  0.0511 -0.0968  0.7170
15005TIP3    H166430   2.071   0.818   4.929  1.6990  0.4252 -0.7862
15005TIP3    H266431   2.213   0.829   4.980  0.7269 -0.8070  2.4338
15006TIP3   OH266432   1.401   4.713  13.870  0.2219  0.4579 -0.4983
15006TIP3    H166433   1.386   4.620  13.850 -0.0186  0.8466 -2.3291
15006TIP3    H266434   1.323   4.739  13.918  0.2598 -0.2700 -0.0212
15007TIP3   OH266435   2.600   1.236  15.844  0.4189 -0.4334  0.0851
15007TIP3    H166436   2.637   1.196  15.923  2.2443 -0.4164 -0.6974
15007TIP3    H266437   2.638   1.324  15.842  2.3527 -1.2128 -1.9880
15008TIP3   OH266438   1.758   5.742   5.971  0.7541 -0.0749  0.6348
15008TIP3    H166439   1.686   5.805   5.966 -2.1779 -2.9856  2.4293
15008TIP3    H266440   1.816   5.778   6.039  0.4867  1.7539 -0.0276
15009TIP3   OH266441   4.544   6.242   2.961 -0.0287  0.2326 -0.4267
15009TIP3    H166442   4.454   6.273   2.965  0.5265  2.0060 -0.4203
15009TIP3    H266443   4.537   6.149   2.938 -1.8467  0.2145  0.0546
15010TIP3   OH266444   2.628   3.358  15.810 -0.2825 -1.0211  0.0608
15010TIP3    H166445   2.640   3.438  15.759 -0.8967 -1.1141 -0.2421
15010TIP3    H266446   2.716   3.333  15.838 -0.2986  1.1070  2.2722
15011TIP3   OH266447   4.354   4.019   3.361  0.1907  0.3884  0.0531
15011TIP3    H166448   4.334   4.051   3.273 -1.1763 -0.9483 -0.1701
15011TIP3    H266449   4.368   3.925   3.350 -0.3255  0.1363  1.2909
15012TIP3   OH266450   2.414   3.205  15.758  0.6807 -0.4591  0.4807
15012TIP3    H166451   2.461   3.127  15.786  0.4263 -0.7471  0.1230
15012TIP3    H266452   2.467   3.279  15.789  1.4138 -0.7764 -0.0097
15013TIP3   OH266453   0.662   5.929   2.257 -0.3288  0.1874 -0.4796
15013TIP3    H166454   0.718   5.865   2.301  0.1014  0.3082 -0.8465
15013TIP3    H266455   0.636   5.886   2.176  1.4836  1.1515 -1.6356
15014TIP3   OH266456   1.252   0.522  14.094  0.6362 -0.5981 -0.4557
15014TIP3    H166457   1.202   0.440  14.086 -0.8768  0.3211 -0.7223
15014TIP3    H266458   1.247   0.562  14.008 -0.2234  0.6418  0.1400
15015TIP3   OH266459   3.593   4.704  14.597 -0.0791  0.2017 -0.2369
15015TIP3    H166460   3.664   4.695  14.533  1.2644  0.6580  1.1140
15015TIP3    H266461   3.599   4.795  14.626 -0.0274 -0.2378  1.2166
15016TIP3   OH266462   3.360   0.572   4.411  0.3155 -0.1079 -0.1509
15016TIP3    H166463   3.369   0.508   4.482 -0.8758 -0.1201  0.0109
15016TIP3    H266464   3.311   0.526   4.343 -3.0264  1.3899  1.0557
15017TIP3   OH266465   0.095   0.168   3.404 -0.2030  0.1985  0.2924
15017TIP3    H166466   0.140   0.151   3.321 -1.3892  0.3943 -0.4098
15017TIP3    H266467   0.097   0.263   3.412  1.0109  0.1166  1.1314
15018TIP3   OH266468   2.553   2.976  15.520 -0.2529  0.8688 -0.3830
15018TIP3    H166469   2.460   2.956  15.531 -0.0217 -0.7998 -1.1743
15018TIP3    H266470   2.559   3.016  15.434 -0.5007  3.1021  0.5737
15019TIP3   OH266471   5.589   6.696  16.608  0.8276  0.2427  0.4098
15019TIP3    H166472   5.555   6.786  16.602  2.1029  0.8413  1.5456
15019TIP3    H266473   5.532   6.652  16.670 -0.8503 -0.2939 -1.4131
15020TIP3   OH266474   2.805   1.437  15.920 -0.3931  0.1135  0.8965
15020TIP3    H166475   2.842   1.520  15.890 -1.5478 -0.8552 -4.1571
15020TIP3    H266476   2.841   1.371  15.861 -2.4782 -2.4004  2.2034
15021TIP3   OH266477   1.879   4.040   4.260  0.1021  0.0623 -0.3635
15021TIP3    H166478   1.962   3.993   4.270  0.8157  1.4769  0.8914
15021TIP3    H266479   1.811   3.974   4.273  0.9719 -1.3915 -2.6890
15022TIP3   OH266480   6.691   3.832  16.336  0.5890 -0.3375 -0.7326
15022TIP3    H166481   6.629   3.817  16.265 -1.0227  0.9008  0.3327
15022TIP3    H266482   6.773   3.793  16.305 -0.8596 -2.6576 -1.9147
15023TIP3   OH266483   6.584   2.916  12.597  0.1243  0.3598 -0.2191
15023TIP3    H166484   6.591   2.866  12.679 -0.6563  0.9083  0.1986
15023TIP3    H266485   6.582   2.850  12.528  0.8936 -0.1055  0.2021
15024TIP3   OH266486   4.864   0.941  16.870  0.0630 -0.5707  0.2108
15024TIP3    H166487   4.887   0.879  16.939 -0.1016  1.5793  2.3404
15024TIP3    H266488   4.769   0.937  16.865  0.1103 -1.2192 -0.4434
15025TIP3   OH266489   0.935   1.879  13.628 -0.3951 -0.0260 -0.1983
15025TIP3    H166490   0.885   1.950  13.589 -0.3664 -0.4800 -1.0951
15025TIP3    H266491   0.870   1.811  13.646 -0.2857 -0.1295 -0.1940
15026TIP3   OH266492   1.549   5.448  10.673 -0.7335 -0.0844  0.7684
15026TIP3    H166493   1.603   5.478  10.600  0.5058 -0.9689  1.2779
15026TIP3    H266494   1.468   5.498  10.666 -1.1369 -0.9486 -1.8956
15027TIP3   OH266495   4.241   0.396  16.901 -0.6130 -0.3280  0.2392
15027TIP3    H166496   4.225   0.416  16.808 -2.1866  0.2338  0.5954
15027TIP3    H266497   4.297   0.468  16.931  1.5935 -1.5439 -0.6901
15028TIP3   OH266498   6.017   1.827  15.438 -0.3356  0.3011  0.0710
15028TIP3    H166499   5.981   1.915  15.424 -0.1611  0.6277  1.4813
15028TIP3    H266500   5.987   1.777  15.362 -0.5136  1.5457 -0.7248
15029TIP3   OH266501   0.749   4.766  12.494  0.5623  0.6190  0.2281
15029TIP3    H166502   0.670   4.790  12.447  0.4636  3.1699  1.5400
15029TIP3    H266503   0.720   4.703  12.560  0.0246  0.0013 -0.5798
15030TIP3   OH266504   6.710   2.273  14.765 -0.3063  0.0843  0.5499
15030TIP3    H166505   6.738   2.240  14.680  2.6029  0.2650  1.3148
15030TIP3    H266506   6.630   2.322  14.747  0.3575  0.3580 -2.1069
15031TIP3   OH266507   2.487   0.822  12.302 -0.3882  0.3453  0.5201
15031TIP3    H166508   2.457   0.863  12.220  1.0568 -0.1344 -0.2820
15031TIP3    H266509   2.409   0.819  12.357 -1.9905 -1.3908 -1.6745
15032TIP3   OH266510   1.795   0.500   4.089  0.3870 -0.4600 -0.1618
15032TIP3    H166511   1.807   0.488   3.994 -1.4469  2.3302 -0.8766
15032TIP3    H266512   1.744   0.424   4.116  0.1584 -0.8627 -1.6164
15033TIP3   OH266513   6.660   4.060   4.268 -0.0573 -0.2986 -0.3111
15033TIP3    H166514   6.731   4.123   4.255 -0.3863  0.0911 -0.2485
15033TIP3    H266515   6.686   4.010   4.345  0.0601 -0.0308 -0.1749
15034TIP3   OH266516   3.300   0.767  13.948  0.8286  0.2596 -0.3790
15034TIP3    H166517   3.216   0.732  13.919  1.0619 -0.5095 -0.1612
15034TIP3    H266518   3.313   0.846  13.896 -0.5092  0.9652  0.3110
15035TIP3   OH266519   6.588   0.960  15.234  0.5111 -0.2670  0.0700
15035TIP3    H166520   6.559   1.047  15.207  3.5190  1.1832  1.0346
15035TIP3    H266521   6.547   0.946  15.320 -0.5126 -0.1133 -0.3864
15036TIP3   OH266522   0.729   0.869   1.043  0.0331  0.9885 -0.3035
15036TIP3    H166523   0.778   0.847   0.964 -2.3726 -3.5131 -0.8806
15036TIP3    H266524   0.680   0.948   1.019  0.8920  0.8949 -2.5993
15037TIP3   OH266525   4.452   6.194  10.834  1.0386  0.0906 -0.3356
15037TIP3    H166526   4.465   6.130  10.905  0.0710 -0.5391 -0.7094
15037TIP3    H266527   4.514   6.264  10.854  0.3298  0.2544  1.5171
15038TIP3   OH266528   2.852   3.899   3.679  0.3112  0.2223 -0.5031
15038TIP3    H166529   2.841   3.815   3.635  2.1873  0.3711 -1.3362
15038TIP3    H266530   2.802   3.961   3.626  0.3331 -0.0701 -0.8715
15039TIP3   OH266531   3.932   3.448  14.153  0.2075  0.0808  0.3561
15039TIP3    H166532   3.995   3.520  14.152 -0.1632  0.4230  1.0134
15039TIP3    H266533   3.979   3.374  14.115  0.3285  0.8820 -1.1082
15040TIP3   OH266534   0.279   5.296   3.156  0.2752  0.4991 -0.2736
15040TIP3    H166535   0.349   5.361   3.156  0.4036  0.7683 -5.3206
15040TIP3    H266536   0.204   5.340   3.116 -0.4037 -1.6822 -1.6292
15041TIP3   OH266537   6.240   5.886  11.251  0.3658  0.1005 -0.4857
15041TIP3    H166538   6.182   5.959  11.231  1.0590  0.3099 -1.8132
15041TIP3    H266539   6.266   5.901  11.342 -0.0042  1.1523 -0.5410
15042TIP3   OH266540   3.163   1.569   1.569 -0.4410 -0.2752 -0.9178
15042TIP3    H166541   3.241   1.566   1.624 -0.6478 -0.3947 -0.6315
15042TIP3    H266542   3.187   1.627   1.497 -0.2559  0.0878 -0.5678
15043TIP3   OH266543   3.118   4.084  16.738 -0.0373 -0.1905  0.0531
15043TIP3    H166544   3.140   4.077  16.831 -1.5079 -0.1059  0.4329
15043TIP3    H266545   3.030   4.123  16.737  1.5078  3.6870 -1.4999
15044TIP3   OH266546   2.755   1.617   3.023 -0.0389 -0.2937  0.5343
15044TIP3    H166547   2.728   1.691   2.970  0.3821 -0.6158 -0.1508
15044TIP3    H266548   2.674   1.570   3.042 -0.5986  1.3671  2.6430
15045TIP3   OH266549   6.326   5.224   4.178 -0.4335 -0.1144  0.3703
15045TIP3    H166550   6.332   5.227   4.273  0.8428  0.5161  0.2910
15045TIP3    H266551   6.330   5.131   4.156  2.1675 -0.1729  0.8148
15046TIP3   OH266552   6.728   4.718   1.896 -0.0378  0.0490 -0.0009
15046TIP3    H166553   6.821   4.733   1.911  0.3004 -0.1604 -1.6900
15046TIP3    H266554   6.722   4.625   1.874 -0.6085  0.1156 -0.1384
15047TIP3   OH266555   1.058   5.183   2.768  0.3195 -0.2645 -0.1384
15047TIP3    H166556   0.985   5.238   2.739 -0.1405 -0.6097  0.3320
15047TIP3    H266557   1.061   5.197   2.863 -1.6335 -3.1347  0.4798
15048TIP3   OH266558   4.658   2.020  11.454 -0.0561  0.0872 -0.4862
15048TIP3    H166559   4.702   1.949  11.500  0.6557  0.6498 -0.2915
15048TIP3    H266560   4.724   2.055  11.395 -1.1808 -1.2251 -2.6953
15049TIP3   OH266561   2.752   0.106   5.484  0.0089 -0.0351  0.3957
15049TIP3    H166562   2.710   0.191   5.477  1.9026  0.8396 -1.3664
15049TIP3    H266563   2.687   0.044   5.451 -0.3912  1.1053 -1.0769
15050TIP3   OH266564   1.717   4.426   4.390 -0.2370  0.5404  0.7725
15050TIP3    H166565   1.660   4.357   4.355  0.3754  0.5512 -0.2861
15050TIP3    H266566   1.737   4.481   4.315  2.2981 -0.2498  0.7450
15051TIP3   OH266567   2.289   0.580  16.454  0.6149  0.3910 -0.3095
15051TIP3    H166568   2.299   0.508  16.516  1.3359  0.0752 -0.7714
15051TIP3    H266569   2.290   0.659  16.509 -2.1688  0.0333  0.4149
15052TIP3   OH266570   4.745   1.626  12.895 -0.1664 -0.9520 -0.0315
15052TIP3    H166571   4.754   1.599  12.986 -0.5275  0.1917  0.3507
15052TIP3    H266572   4.660   1.669  12.890  0.1353 -0.4145 -0.7564
15053TIP3   OH266573   2.990   4.252   6.631 -0.3784  0.3440 -0.9959
15053TIP3    H166574   3.064   4.227   6.575  0.7255 -0.8817  0.8971
15053TIP3    H266575   2.919   4.271   6.570  1.0907  0.1825 -2.8381
15054TIP3   OH266576   2.465   1.177   4.420 -0.1297  0.0159 -0.3146
15054TIP3    H166577   2.476   1.085   4.398  0.1152 -0.6948  2.3991
15054TIP3    H266578   2.531   1.222   4.368  0.1509 -1.4008 -1.2457
15055TIP3   OH266579   3.888   6.547  14.068 -0.6824  0.4967  0.1282
15055TIP3    H166580   3.863   6.455  14.059  0.0338  0.0611  2.0929
15055TIP3    H266581   3.807   6.593  14.089 -0.6477 -0.1298  1.7213
15056TIP3   OH266582   4.774   1.538  15.663  0.1363 -0.3598  0.8980
15056TIP3    H166583   4.724   1.616  15.688 -0.8733 -0.6269 -0.2068
15056TIP3    H266584   4.828   1.568  15.589 -0.2026 -0.6858  0.5170
15057TIP3   OH266585   5.305   4.044  16.831  0.2263  0.2590  0.2615
15057TIP3    H166586   5.366   4.091  16.774 -0.1617  1.4834  0.8166
15057TIP3    H266587   5.357   4.024  16.909  0.7268 -1.3228 -0.4377
15058TIP3   OH266588   2.589   2.560   5.646 -0.3098 -0.5683  0.4883
15058TIP3    H166589   2.506   2.594   5.613 -0.2987  0.1874  1.2030
15058TIP3    H266590   2.563   2.502   5.718 -0.2160 -0.0827  0.9225
15059TIP3   OH266591   5.807   4.485  11.282  0.0931 -0.0136 -0.0938
15059TIP3    H166592   5.808   4.413  11.218  0.1987  2.4762 -3.1268
15059TIP3    H266593   5.900   4.505  11.295  0.0760 -0.6076  1.0254
15060TIP3   OH266594   0.677   4.437   0.619 -0.2930  0.5110 -0.1717
15060TIP3    H166595   0.708   4.513   0.668  0.6363  0.7219 -1.0501
15060TIP3    H266596   0.737   4.367   0.642 -1.0270  0.0727  0.4784
15061TIP3   OH266597   2.084   2.084   0.236  0.0592  0.2877  0.1726
15061TIP3    H166598   2.176   2.081   0.265 -0.2160  0.7961  1.1160
15061TIP3    H266599   2.063   1.992   0.217  0.5288  0.0675  0.6873
15062TIP3   OH266600   4.669   3.979  16.366  0.1572 -0.5344 -0.1804
15062TIP3    H166601   4.631   3.963  16.453 -1.8784 -0.8446 -1.0692
15062TIP3    H266602   4.718   3.900  16.346  1.0628 -0.2612  0.8807
15063TIP3   OH266603   5.961   4.473  16.081  0.6312 -0.5004 -0.0495
15063TIP3    H166604   5.992   4.451  15.994  1.3361 -0.3078  0.1506
15063TIP3    H266605   5.986   4.564  16.093 -0.7837 -0.0656 -0.2178
15064TIP3   OH266606   6.550   4.444  15.692 -0.1703  0.1736 -1.0929
15064TIP3    H166607   6.496   4.466  15.768  1.0474  0.5271 -0.3052
15064TIP3    H266608   6.506   4.488  15.618 -1.6759 -0.6317 -0.7341
15065TIP3   OH266609   4.838   0.340   3.030 -0.3070  0.1488 -0.1197
15065TIP3    H166610   4.853   0.255   3.071 -2.3990  0.2030  0.9200
15065TIP3    H266611   4.770   0.380   3.084 -0.4184  1.8642 -1.4583
15066TIP3   OH266612   4.433   2.256  12.995 -0.0829  0.0507 -0.0451
15066TIP3    H166613   4.469   2.199  13.062 -0.1494  0.5986  0.4612
15066TIP3    H266614   4.496   2.251  12.923  0.3097 -0.0489  0.3024
15067TIP3   OH266615   5.210   5.233   2.466  0.4254 -0.4012  0.0107
15067TIP3    H166616   5.282   5.192   2.513  0.5292 -0.5203 -0.2532
15067TIP3    H266617   5.134   5.221   2.524  0.0099 -2.7332 -0.9276
15068TIP3   OH266618   4.291   2.256  16.777  0.0028 -0.4696  0.1095
15068TIP3    H166619   4.348   2.332  16.767  1.0447 -1.2148  0.2667
15068TIP3    H266620   4.302   2.229  16.869  0.8308 -1.7158 -0.3295
15069TIP3   OH266621   6.400   4.897  12.364 -0.1689  0.0553 -0.0176
15069TIP3    H166622   6.345   4.941  12.299  1.9641 -0.4162 -2.2718
15069TIP3    H266623   6.402   4.806  12.336  0.4418 -0.2496  0.9703
15070TIP3   OH266624   4.647   1.310   5.381  0.0542 -0.1994  0.1740
15070TIP3    H166625   4.615   1.278   5.465  1.3061 -0.4379  0.5853
15070TIP3    H266626   4.708   1.243   5.351  0.0413  0.1433 -0.6606
15071TIP3   OH266627   0.602   5.188  13.185 -0.3872  0.0020  0.6301
15071TIP3    H166628   0.541   5.223  13.250  0.8639  1.3460  1.1399
15071TIP3    H266629   0.597   5.093  13.197 -1.2444  0.1501  1.6974
15072TIP3   OH266630   0.399   4.672  11.871 -0.6378  0.4192  0.0290
15072TIP3    H166631   0.331   4.650  11.808 -1.8003 -2.1598  1.9639
15072TIP3    H266632   0.368   4.634  11.953  2.3164  0.7367  1.4260
15073TIP3   OH266633   0.185   0.642   3.360 -0.3247  0.0698  0.5883
15073TIP3    H166634   0.143   0.726   3.340 -0.0728  0.0584 -0.0070
15073TIP3    H266635   0.276   0.654   3.334 -1.1586 -1.9186 -4.3228
15074TIP3   OH266636   4.851   2.846   3.403  0.6606 -0.3884  0.5697
15074TIP3    H166637   4.814   2.762   3.378 -0.4923  0.4792 -0.8574
15074TIP3    H266638   4.919   2.863   3.337  0.5615 -0.0007  0.5614
15075TIP3   OH266639   5.841   0.871   0.472  0.2908 -0.3059 -0.3028
15075TIP3    H166640   5.927   0.885   0.432  0.0163  0.3646 -0.6825
15075TIP3    H266641   5.860   0.863   0.566  0.8792 -1.3215 -0.4962
15076TIP3   OH266642   5.201   4.085   5.358 -0.0961 -0.4598  0.4027
15076TIP3    H166643   5.264   4.102   5.289  0.4149 -0.7993  0.7844
15076TIP3    H266644   5.160   4.002   5.334 -0.8691  0.0738 -0.1837
15077TIP3   OH266645   2.780   0.812  16.015 -0.2596 -0.9389 -0.0462
15077TIP3    H166646   2.760   0.724  16.047  0.6205 -2.4000 -3.1593
15077TIP3    H266647   2.847   0.844  16.076 -1.5320 -1.8022  1.9323
15078TIP3   OH266648   2.530   5.595  16.508  0.0926 -0.1917 -0.9737
15078TIP3    H166649   2.622   5.576  16.525  0.2116  0.1674 -1.1914
15078TIP3    H266650   2.524   5.603  16.413  0.1314  1.1735 -0.8897
15079TIP3   OH266651   4.020   1.009  12.166 -0.2159 -0.0759  0.6708
15079TIP3    H166652   4.037   1.050  12.081 -2.4664 -0.7641 -0.1878
15079TIP3    H266653   4.102   0.963  12.187 -0.0144 -0.9540 -1.7559
15080TIP3   OH266654   6.265   6.533   3.257  0.2311 -0.5191  0.2029
15080TIP3    H166655   6.232   6.564   3.342 -0.2214  0.7002 -0.3903
15080TIP3    H266656   6.212   6.580   3.193  1.1943 -0.7298 -0.7681
15081TIP3   OH266657   5.893   0.042  14.617 -0.3417 -0.2031 -0.5650
15081TIP3    H166658   5.845  -0.036  14.590 -0.0080 -0.6215  0.0128
15081TIP3    H266659   5.879   0.047  14.712  1.1179 -0.6018 -0.3035
15082TIP3   OH266660   3.215   4.407   1.519 -0.2461 -0.0520  0.0439
15082TIP3    H166661   3.306   4.411   1.548 -0.6185  0.4205  1.1968
15082TIP3    H266662   3.182   4.326   1.558 -0.5815  0.2647  0.4145
15083TIP3   OH266663   5.260   5.773  13.889  0.1001  0.0604  0.0253
15083TIP3    H166664   5.288   5.726  13.967  1.4446 -0.0482 -0.4993
15083TIP3    H266665   5.281   5.864  13.906 -1.0818  0.2683  0.4211
15084TIP3   OH266666   6.098   2.896  11.208  0.5830 -0.1195 -0.0707
15084TIP3    H166667   6.136   2.868  11.292 -1.3491 -1.2520  0.4894
15084TIP3    H266668   6.071   2.814  11.166  0.4269  0.5285 -1.2737
15085TIP3   OH266669   2.899   2.157   1.418 -0.1408 -0.0100 -0.1113
15085TIP3    H166670   2.875   2.248   1.401  0.3445 -0.2531 -2.3879
15085TIP3    H266671   2.984   2.162   1.462 -0.5551  0.6318  0.6460
15086TIP3   OH266672   3.895   5.841  14.708 -0.4174  0.6952 -0.3336
15086TIP3    H166673   3.851   5.915  14.666  0.2363  0.2809 -1.8260
15086TIP3    H266674   3.984   5.844  14.673 -0.5910 -1.2469 -1.0821
15087TIP3   OH266675   4.625   6.072   4.052  0.4502 -0.0431  0.2462
15087TIP3    H166676   4.567   6.013   4.003  0.1167  0.8210 -0.4136
15087TIP3    H266677   4.707   6.070   4.003  0.0156  1.0739 -0.5674
15088TIP3   OH266678   4.312   6.261  15.442  0.2153  0.2675 -0.2388
15088TIP3    H166679   4.401   6.228  15.454  0.1343  0.4308  1.0376
15088TIP3    H266680   4.255   6.186  15.460  0.0807  0.5425  0.5625
15089TIP3   OH266681   3.479   0.919  12.206 -0.3752  0.2172 -0.1175
15089TIP3    H166682   3.446   0.887  12.290  0.7217 -0.6280  0.0090
15089TIP3    H266683   3.400   0.934  12.153 -1.0659  0.5477  0.9701
15090TIP3   OH266684   6.212   1.513   2.323 -0.3528 -0.1421  0.0061
15090TIP3    H166685   6.231   1.599   2.284 -0.6388  0.0234  0.2235
15090TIP3    H266686   6.242   1.450   2.258 -1.0730  0.1290 -0.6092
15091TIP3   OH266687   5.399   0.412  11.110 -0.5781  0.2069 -0.1959
15091TIP3    H166688   5.490   0.416  11.081  0.0027 -0.1578  1.4580
15091TIP3    H266689   5.382   0.500  11.143 -0.7617  0.2203 -0.3286
15092TIP3   OH266690   0.917   5.387   2.685  0.1437  0.4146 -0.0972
15092TIP3    H166691   0.974   5.463   2.698  0.4013  0.3282 -0.7039
15092TIP3    H266692   0.835   5.412   2.728  0.4891  0.7108  0.4023
15093TIP3   OH266693   1.824   5.991  14.042  0.0412  0.0423 -0.1545
15093TIP3    H166694   1.818   5.896  14.036 -0.7963  0.1378 -1.1019
15093TIP3    H266695   1.906   6.014  13.999 -0.2840 -0.1841 -0.9148
15094TIP3   OH266696   1.304   0.656   1.076 -0.2812  0.0745 -0.1899
15094TIP3    H166697   1.225   0.709   1.085 -1.1759 -0.9481 -1.4665
15094TIP3    H266698   1.293   0.611   0.991  1.5730 -0.2577 -0.3050
15095TIP3   OH266699   4.791   5.660   3.483 -0.2984 -0.6154 -0.0525
15095TIP3    H166700   4.742   5.723   3.535  1.6719  0.5752  0.4545
15095TIP3    H266701   4.759   5.574   3.512 -0.0284  0.0402  2.3729
15096TIP3   OH266702   6.580   1.945   4.478  0.4126  0.0183  0.5788
15096TIP3    H166703   6.555   1.924   4.388  0.2680 -1.3785  0.9178
15096TIP3    H266704   6.569   1.863   4.525 -1.3609  1.1633  2.3006
15097TIP3   OH266705   3.689   6.781   4.452  0.4557 -0.6846  0.1047
15097TIP3    H166706   3.716   6.858   4.402  0.1096 -1.7397 -1.8164
15097TIP3    H266707   3.594   6.778   4.441  0.5369 -1.7624 -0.4798
15098TIP3   OH266708   5.562   3.330  16.236 -0.0061 -0.4087  0.0368
15098TIP3    H166709   5.572   3.325  16.141 -2.0645 -0.2585 -0.2148
15098TIP3    H266710   5.468   3.323  16.252  0.1787  0.7374  1.9951
15099TIP3   OH266711   1.498   6.367  13.826  0.0682 -0.1525  0.0223
15099TIP3    H166712   1.556   6.325  13.889 -1.0002 -0.8964  0.5360
15099TIP3    H266713   1.472   6.449  13.867  0.1071 -0.2012  0.1422
15100TIP3   OH266714   4.195   1.331  14.674 -0.0562  0.3778  0.0997
15100TIP3    H166715   4.123   1.322  14.612 -0.3826 -0.4876  0.5847
15100TIP3    H266716   4.271   1.352  14.620 -0.5321  0.6451 -0.4818
15101TIP3   OH266717   6.583   1.286   5.046 -0.6086  0.3453 -0.0765
15101TIP3    H166718   6.635   1.222   5.093 -0.7690  1.3386  1.5088
15101TIP3    H266719   6.647   1.345   5.007 -0.4901 -0.2593 -0.8306
15102TIP3   OH266720   3.091   5.609   3.508  0.4260 -0.0286  0.3300
15102TIP3    H166721   3.016   5.668   3.501  0.2428 -0.1748  1.0429
15102TIP3    H266722   3.100   5.592   3.601  1.2390 -0.1543  0.2370
15103TIP3   OH266723   1.799   2.195   1.023 -0.9769 -0.1013  0.0976
15103TIP3    H166724   1.874   2.171   1.077 -1.2833 -0.5679  0.3227
15103TIP3    H266725   1.783   2.118   0.968 -1.1879  0.0586 -0.0663
15104TIP3   OH266726   2.474   0.356  12.876 -0.0151 -0.2104  0.4444
15104TIP3    H166727   2.487   0.351  12.971  0.1653 -1.0107  0.3821
15104TIP3    H266728   2.390   0.401  12.866  0.4270  0.7538  0.9568
15105TIP3   OH266729   6.566   2.235   4.203  0.2443 -0.1265 -0.1360
15105TIP3    H166730   6.544   2.314   4.252 -1.2492 -0.1623 -0.7113
15105TIP3    H266731   6.482   2.200   4.174  1.0101 -0.7429 -1.7376
15106TIP3   OH266732   0.945   4.877  12.724 -0.3543 -0.3981  0.3523
15106TIP3    H166733   0.919   4.801  12.775  0.0645 -1.3650 -0.8282
15106TIP3    H266734   0.980   4.841  12.643  0.2916  1.0353 -0.0453
15107TIP3   OH266735   3.101   1.896  12.020  0.4851  0.6975  0.0336
15107TIP3    H166736   3.013   1.879  12.055  0.6819  0.9735  0.6662
15107TIP3    H266737   3.090   1.974  11.965 -0.0754 -0.4415 -1.5381
15108TIP3   OH266738   5.568   0.471  16.249 -0.4261 -0.3062  0.0921
15108TIP3    H166739   5.485   0.495  16.290 -0.0272  0.5750  0.4090
15108TIP3    H266740   5.635   0.501  16.311  0.1267 -1.0907 -0.1134
15109TIP3   OH266741   5.523   4.710   2.430  0.0349 -0.1606 -0.2893
15109TIP3    H166742   5.508   4.622   2.396 -0.0753 -1.7008  3.2899
15109TIP3    H266743   5.569   4.756   2.360  1.7122 -3.6411 -1.6767
15110TIP3   OH266744   1.715   5.096   2.122 -0.7769  0.6034  0.2545
15110TIP3    H166745   1.659   5.076   2.047  1.9424 -1.3655 -1.4242
15110TIP3    H266746   1.706   5.190   2.134 -0.2343  1.3229 -3.5908
15111TIP3   OH266747   3.036   1.901  16.373 -0.2568 -0.2912  0.0705
15111TIP3    H166748   3.024   1.807  16.378  0.2832 -0.2966  1.8301
15111TIP3    H266749   3.076   1.916  16.287 -4.1377 -1.1629 -2.1120
15112TIP3   OH266750   5.544   6.554  11.868 -0.3527 -0.1047 -0.2117
15112TIP3    H166751   5.465   6.603  11.891  0.1245  1.1186 -1.0638
15112TIP3    H266752   5.553   6.566  11.773  0.8251 -0.2628 -0.1408
15113TIP3   OH266753   5.593   2.612   1.018  0.4467 -0.2580  0.3256
15113TIP3    H166754   5.609   2.577   0.930 -2.4137 -2.6052  0.6073
15113TIP3    H266755   5.620   2.703   1.012  0.5072 -0.3690 -2.9483
15114TIP3   OH266756   6.599   0.422  14.211 -0.0614 -0.0136 -0.3981
15114TIP3    H166757   6.570   0.469  14.289 -0.2429 -0.8232  0.0454
15114TIP3    H266758   6.583   0.330  14.232  0.0019 -0.2558 -1.3456
15115TIP3   OH266759   1.319   5.791   1.003 -0.3035 -0.2252 -0.1821
15115TIP3    H166760   1.316   5.763   1.094 -0.0498  0.6283  0.1017
15115TIP3    H266761   1.380   5.731   0.961 -1.4697 -1.4995 -0.1237
15116TIP3   OH266762   5.888   6.000  13.639  0.3027 -0.2648 -0.0926
15116TIP3    H166763   5.956   5.972  13.579 -0.0908  2.0480 -1.7646
15116TIP3    H266764   5.850   6.078  13.598 -2.6797 -0.8547  1.2594
15117TIP3   OH266765   4.577   1.740  15.665 -0.1437  0.0707  0.4181
15117TIP3    H166766   4.582   1.820  15.716 -0.5108 -0.3493  1.1279
15117TIP3    H266767   4.501   1.694  15.700 -0.3800 -0.2403 -0.4856
15118TIP3   OH266768   5.079   3.223   2.369  0.5025 -0.1170  0.1119
15118TIP3    H166769   5.168   3.206   2.336  0.1773 -1.0026 -0.3445
15118TIP3    H266770   5.026   3.154   2.329 -0.5668  0.9477 -0.3590
15119TIP3   OH266771   0.164   5.222  10.721  0.1197 -0.3524 -0.4527
15119TIP3    H166772   0.112   5.248  10.645  0.1018 -0.2624 -0.4092
15119TIP3    H266773   0.255   5.241  10.696 -0.0328  1.6110  0.3174
15120TIP3   OH266774   6.556   4.434   0.732 -0.6222 -0.0607 -0.3807
15120TIP3    H166775   6.557   4.478   0.647 -1.2588 -0.3614 -0.5437
15120TIP3    H266776   6.479   4.469   0.777  0.4715  1.1572  0.6468
15121TIP3   OH266777   0.413   1.537  10.242 -0.0405 -0.5635 -0.0868
15121TIP3    H166778   0.372   1.607  10.293 -0.2466  0.1337 -1.1662
15121TIP3    H266779   0.474   1.583  10.184 -0.3753 -1.2572 -1.0078
15122TIP3   OH266780   2.160   2.711   4.179  0.5585  0.0567  0.1022
15122TIP3    H166781   2.250   2.737   4.199  0.6367 -0.5187  0.5106
15122TIP3    H266782   2.118   2.792   4.149  0.0873  1.3215  3.6817
15123TIP3   OH266783   3.436   3.314   3.957 -0.1338  0.2939  0.2869
15123TIP3    H166784   3.421   3.240   3.898  1.1927 -0.0319  0.3237
15123TIP3    H266785   3.439   3.275   4.044  0.4791  0.4008  0.3145
15124TIP3   OH266786   3.969   0.759  17.027  0.7618  0.2098 -0.3930
15124TIP3    H166787   3.942   0.849  17.010 -0.8707 -0.1436  0.1589
15124TIP3    H266788   4.006   0.762  17.116 -0.1392  0.1809 -0.0089
15125TIP3   OH266789   5.671   1.696  12.513 -0.1164  0.2714  0.2853
15125TIP3    H166790   5.758   1.735  12.506 -0.3147  1.1110  1.9575
15125TIP3    H266791   5.624   1.727  12.435  1.1458 -0.4103 -0.7639
15126TIP3   OH266792   6.571   4.825  15.970 -0.1861 -0.2024  0.2296
15126TIP3    H166793   6.535   4.783  16.048  2.5460  0.9851  2.2523
15126TIP3    H266794   6.585   4.916  15.994  1.9125 -0.0705 -1.1676
15127TIP3   OH266795   4.556   3.765   0.896 -0.3359 -0.3191 -0.4262
15127TIP3    H166796   4.588   3.851   0.870  1.5510 -0.4893  1.0499
15127TIP3    H266797   4.513   3.780   0.980 -0.3407 -0.7445 -0.3521
15128TIP3   OH266798   4.076   2.729  16.821  0.0487 -0.2185 -0.3742
15128TIP3    H166799   3.997   2.695  16.781 -1.7796 -0.4695  3.0705
15128TIP3    H266800   4.137   2.656  16.821 -0.0702 -0.3522 -2.0802
15129TIP3   OH266801   4.363   2.288   6.088 -0.4777  0.6849 -0.0833
15129TIP3    H166802   4.424   2.342   6.038 -0.5562  2.4844  1.6395
15129TIP3    H266803   4.342   2.216   6.029  0.2465  2.1050 -2.2270
15130TIP3   OH266804   0.503   0.500  16.317  0.5007 -0.3878 -0.0327
15130TIP3    H166805   0.552   0.418  16.304  2.3359  0.5244  0.7562
15130TIP3    H266806   0.553   0.565  16.267 -0.2740  0.4789  0.2969
15131TIP3   OH266807   1.007   5.407   5.710 -0.2219  0.8026  0.3970
15131TIP3    H166808   0.958   5.486   5.687 -0.2651  0.2384 -1.6203
15131TIP3    H266809   1.088   5.414   5.661 -0.3048 -0.4800  0.0556
15132TIP3   OH266810   4.962   2.962   5.172 -0.3150 -0.0733  0.0114
15132TIP3    H166811   4.898   2.992   5.108  0.2495  0.3198 -0.3886
15132TIP3    H266812   5.005   3.043   5.202 -0.1259 -0.3143  0.3886
15133TIP3   OH266813   1.465   5.059   3.134 -0.2571 -0.0603 -0.5296
15133TIP3    H166814   1.535   5.123   3.131  2.6518 -2.9830 -2.2630
15133TIP3    H266815   1.491   4.998   3.204  0.0591 -2.1893 -2.3749
15134TIP3   OH266816   3.920   3.206  16.798 -0.0234 -0.4955  0.0782
15134TIP3    H166817   3.965   3.217  16.882  1.3764  2.1032 -0.9081
15134TIP3    H266818   3.976   3.146  16.749 -0.3392 -1.2651  0.6461
15135TIP3   OH266819   4.503   3.481  12.964  0.2797 -0.1012  0.2892
15135TIP3    H166820   4.557   3.402  12.959 -1.5906 -1.4950  0.9431
15135TIP3    H266821   4.413   3.450  12.949 -0.6490  1.7316  1.6227
15136TIP3   OH266822   6.285   0.401  16.025  0.7795  0.3467 -0.2853
15136TIP3    H166823   6.226   0.413  16.100 -2.2375 -1.4184 -2.1810
15136TIP3    H266824   6.333   0.484  16.020 -0.4934  1.3702  2.2566
15137TIP3   OH266825   5.046   5.028  10.769  0.6026 -0.4821  0.7263
15137TIP3    H166826   4.974   5.090  10.754  1.0866 -0.3310 -1.1896
15137TIP3    H266827   5.123   5.084  10.784  0.4738 -0.6475  2.1673
15138TIP3   OH266828   2.645   4.710   4.511  0.2316  0.0102 -0.3986
15138TIP3    H166829   2.582   4.710   4.439  1.8022 -2.1314 -1.8976
15138TIP3    H266830   2.689   4.794   4.504 -2.0938  1.3856  0.4386
15139TIP3   OH266831   3.434   6.419  13.838  0.6175 -0.1989  0.0118
15139TIP3    H166832   3.488   6.469  13.777 -0.2986  1.0040  0.1458
15139TIP3    H266833   3.400   6.484  13.899 -1.8258 -0.6862 -0.6960
15140TIP3   OH266834   3.062   1.868   1.916  0.2653 -0.1252 -0.3187
15140TIP3    H166835   3.038   1.914   1.996  0.0378  0.3134 -0.6377
15140TIP3    H266836   2.988   1.811   1.897  0.2323 -0.0775 -0.3312
15141TIP3   OH266837   1.794   3.812  15.710 -0.0066  0.5614  0.0064
15141TIP3    H166838   1.888   3.809  15.694 -0.3493  0.6799 -2.5279
15141TIP3    H266839   1.781   3.890  15.764  1.4771 -0.4212  1.8674
15142TIP3   OH266840   6.120   0.273   5.714 -0.3509  0.5391  0.2379
15142TIP3    H166841   6.061   0.260   5.640  0.9503  1.4373 -1.0058
15142TIP3    H266842   6.160   0.188   5.729  0.4038  0.6463 -1.0291
15143TIP3   OH266843   5.727   5.785   3.699  0.2756  0.1003  0.0596
15143TIP3    H166844   5.708   5.718   3.764  2.5564 -0.4227  0.2812
15143TIP3    H266845   5.702   5.868   3.741 -1.4710 -0.4776  0.2316
15144TIP3   OH266846   4.985   2.824  15.448 -0.0082  0.0475  0.7090
15144TIP3    H166847   5.055   2.817  15.383 -0.9078 -3.0897 -0.0993
15144TIP3    H266848   5.031   2.848  15.529  1.2047  3.4794 -0.7900
15145TIP3   OH266849   3.384   0.319  14.850 -0.1623 -0.0912 -0.3396
15145TIP3    H166850   3.301   0.366  14.835 -0.5611 -0.4007  0.7851
15145TIP3    H266851   3.448   0.365  14.795 -0.7638  1.1019 -0.0723
15146TIP3   OH266852   2.417   2.599  15.518 -0.3458 -0.3250  0.0698
15146TIP3    H166853   2.472   2.566  15.589  1.1465  1.8809  0.0247
15146TIP3    H266854   2.478   2.611  15.445 -1.3896 -0.2129 -0.8044
15147TIP3   OH266855   6.328   5.124  11.568  0.5666  0.1785  0.4670
15147TIP3    H166856   6.245   5.172  11.562  0.8152  0.5876  0.2290
15147TIP3    H266857   6.350   5.127  11.660 -0.2204 -0.8706  0.7145
15148TIP3   OH266858   1.994   0.105   4.061  0.6421 -0.3762 -0.0917
15148TIP3    H166859   2.014   0.130   3.971  1.1626  0.1717  0.1695
15148TIP3    H266860   1.899   0.090   4.061  0.3684  1.1692 -0.3787
15149TIP3   OH266861   5.219   1.244   2.058  0.6905  0.2688 -0.0688
15149TIP3    H166862   5.308   1.212   2.071  0.6243  0.2532  0.3923
15149TIP3    H266863   5.173   1.220   2.139  0.7196  1.7584  0.4333
15150TIP3   OH266864   5.117   1.624   3.045  0.3135 -0.1437 -0.0533
15150TIP3    H166865   5.188   1.559   3.049 -1.9377 -2.7106  1.5833
15150TIP3    H266866   5.076   1.609   2.960  1.0702  0.6441 -0.5711
15151TIP3   OH266867   0.471   1.935   4.732  0.8200  0.2816  0.3476
15151TIP3    H166868   0.409   1.994   4.689  0.5988 -0.9067 -1.0420
15151TIP3    H266869   0.554   1.952   4.688  1.6691  2.1861  2.5045
15152TIP3   OH266870   4.356   1.700  12.067  0.2274 -0.1047  0.4543
15152TIP3    H166871   4.355   1.749  11.985 -0.3547  0.5438  0.8354
15152TIP3    H266872   4.269   1.658  12.071  0.6276 -0.9712  0.2518
15153TIP3   OH266873   1.860   6.493   3.403 -0.4911 -0.5282  0.4835
15153TIP3    H166874   1.765   6.504   3.412 -1.0556 -0.6964 -3.7071
15153TIP3    H266875   1.871   6.408   3.361  1.3119  0.4152 -1.0990
15154TIP3   OH266876   0.136   2.836  13.913 -0.5012 -0.7280 -0.3271
15154TIP3    H166877   0.213   2.780  13.918  0.0861  0.0086 -1.0144
15154TIP3    H266878   0.149   2.889  13.835 -0.3124  1.4337  1.1106
15155TIP3   OH266879   2.910   0.666  11.369  0.6319 -0.4222 -0.1294
15155TIP3    H166880   2.915   0.584  11.418  0.4242 -0.5591 -0.3339
15155TIP3    H266881   2.956   0.730  11.424 -0.9884 -0.1963  1.0298
15156TIP3   OH266882   4.328   6.441  16.671 -0.1187  0.0041 -0.4099
15156TIP3    H166883   4.282   6.524  16.685 -0.1932  0.2119 -1.7771
15156TIP3    H266884   4.345   6.438  16.577  0.4825 -1.2267 -0.2851
15157TIP3   OH266885   0.130   3.523  15.852 -0.1270  0.4732 -0.0051
15157TIP3    H166886   0.118   3.505  15.945 -0.7313  0.7201 -0.0309
15157TIP3    H266887   0.145   3.437  15.813  0.9273  0.4497  0.4261
15158TIP3   OH266888   2.382   6.123   3.872 -0.2603  0.3642  0.4384
15158TIP3    H166889   2.315   6.119   3.941  0.2430  0.5782  0.9459
15158TIP3    H266890   2.334   6.153   3.795 -1.0558 -0.9605  0.3903
15159TIP3   OH266891   3.983   5.541  10.615  0.4524 -0.3606  0.1396
15159TIP3    H166892   3.920   5.473  10.639 -1.0283  1.6307  2.3427
15159TIP3    H266893   4.068   5.498  10.622 -0.2737 -1.5794  3.5628
15160TIP3   OH266894   3.200   2.986  14.151  0.0642 -0.4047  0.2357
15160TIP3    H166895   3.237   3.065  14.110 -1.8821  1.5954  2.0280
15160TIP3    H266896   3.109   2.985  14.122  0.4593 -3.1172 -1.1757
15161TIP3   OH266897   0.893   5.123   0.571 -0.0070 -0.5099  0.2428
15161TIP3    H166898   0.826   5.139   0.504  1.1400 -0.9612 -1.0499
15161TIP3    H266899   0.933   5.040   0.545  1.1044 -0.2064  0.9596
15162TIP3   OH266900   4.703   1.262  15.563  0.0012 -0.2025 -0.1741
15162TIP3    H166901   4.720   1.347  15.604 -0.7605  0.3664 -0.9879
15162TIP3    H266902   4.789   1.221  15.554  0.5901  1.1802 -1.2307
15163TIP3   OH266903   5.997   2.255  13.539  0.0112  0.7462  0.3996
15163TIP3    H166904   5.967   2.257  13.630 -0.7211  0.2483  0.1759
15163TIP3    H266905   5.938   2.316  13.494 -0.2629  0.2475  0.0761
15164TIP3   OH266906   1.299   5.563   4.886  0.6687 -0.1569  0.1298
15164TIP3    H166907   1.352   5.621   4.831  2.3521 -1.7827 -0.0758
15164TIP3    H266908   1.294   5.608   4.971  1.4777  0.5292 -0.1783
15165TIP3   OH266909   2.888   3.289   1.832  0.6070 -0.5091  0.0822
15165TIP3    H166910   2.920   3.250   1.750 -1.3337  0.8642 -1.4544
15165TIP3    H266911   2.937   3.371   1.840  0.1914 -0.2309 -0.1900
15166TIP3   OH266912   3.600   3.041   1.140  0.0805  0.1881  0.4076
15166TIP3    H166913   3.636   3.116   1.093 -1.8332  0.7125 -0.2754
15166TIP3    H266914   3.562   3.079   1.220 -1.5001  0.0736 -0.2644
15167TIP3   OH266915   5.555   4.092  12.427 -0.7043 -0.1405  0.6159
15167TIP3    H166916   5.571   4.061  12.338 -2.1873  0.0533  0.2623
15167TIP3    H266917   5.492   4.030  12.463 -0.6065  0.1520  1.3066
15168TIP3   OH266918   0.815   4.576  11.942 -0.1141  0.2881 -0.0035
15168TIP3    H166919   0.900   4.575  11.985  0.8474  1.2485 -1.7448
15168TIP3    H266920   0.775   4.492  11.964  0.7629  0.3011  1.7911
15169TIP3   OH266921   6.378   4.489   1.840  0.3655  0.0752  0.1024
15169TIP3    H166922   6.384   4.542   1.920  0.7543  1.7019 -0.9636
15169TIP3    H266923   6.469   4.473   1.816  0.2630  0.5506 -0.6206
15170TIP3   OH266924   6.166   3.935  15.332 -0.1497 -0.2835 -0.0139
15170TIP3    H166925   6.144   3.989  15.256  0.6495 -1.4282 -1.0824
15170TIP3    H266926   6.257   3.908  15.317  0.0970 -0.3478  1.4662
15171TIP3   OH266927   5.808   5.494  13.421  0.7139 -0.2286 -0.1311
15171TIP3    H166928   5.871   5.559  13.390 -0.2102  0.9213  0.3314
15171TIP3    H266929   5.755   5.472  13.344 -0.7720  1.6916  0.2660
15172TIP3   OH266930   3.869   6.009   0.417 -0.6278  0.0897 -0.3740
15172TIP3    H166931   3.961   6.036   0.425 -0.8711  1.0147 -0.5052
15172TIP3    H266932   3.860   5.936   0.478  0.1185  0.2055 -0.1111
15173TIP3   OH266933   2.673   1.012  14.413 -0.0487 -0.1922  0.5367
15173TIP3    H166934   2.667   1.024  14.508  1.0708  0.6107  0.5280
15173TIP3    H266935   2.717   1.091  14.382 -2.0649  0.4408 -0.8960
15174TIP3   OH266936   3.522   1.990  11.616 -0.1915  0.6858 -0.5737
15174TIP3    H166937   3.450   1.944  11.659 -0.6830  0.5906 -1.4775
15174TIP3    H266938   3.496   2.083  11.620 -0.7757  0.5819 -1.6198
15175TIP3   OH266939   0.063   3.746  12.477 -0.1899 -0.1729  0.7684
15175TIP3    H166940   0.005   3.793  12.416 -1.9139 -2.9128  0.1242
15175TIP3    H266941   0.013   3.742  12.558  0.0860 -0.6112  0.9152
15176TIP3   OH266942   0.787   3.860  11.143 -0.4256 -0.4685 -0.0475
15176TIP3    H166943   0.823   3.790  11.198  0.6476  0.5267  0.5583
15176TIP3    H266944   0.856   3.876  11.078 -1.4829 -1.3058 -1.4262
15177TIP3   OH266945   2.796   6.279  15.476 -0.3655  0.2753 -0.7286
15177TIP3    H166946   2.886   6.277  15.443 -0.2189  1.3639 -0.4305
15177TIP3    H266947   2.762   6.365  15.449 -1.3111 -0.1150 -0.8170
15178TIP3   OH266948   6.713   5.278  15.457  0.0451  0.3853  0.1766
15178TIP3    H166949   6.777   5.207  15.464 -0.9109 -0.4630  0.4587
15178TIP3    H266950   6.735   5.322  15.374 -0.8798 -1.7824 -1.3003
15179TIP3   OH266951   2.008   4.955   5.054  0.1884  0.6013  0.2803
15179TIP3    H166952   1.990   5.008   5.133 -2.1769  0.7467 -0.2560
15179TIP3    H266953   2.014   4.866   5.087  1.0055  0.8480  0.8301
15180TIP3   OH266954   3.876   2.193  10.780 -0.1895  1.1539  0.5494
15180TIP3    H166955   3.809   2.132  10.749 -1.1454  1.9385  1.0416
15180TIP3    H266956   3.953   2.172  10.727 -0.6764 -0.0553  0.2744
15181TIP3   OH266957   4.853   5.608  12.591  0.0932 -0.2790  0.3227
15181TIP3    H166958   4.848   5.664  12.514  2.4212 -0.9261 -0.3700
15181TIP3    H266959   4.876   5.522  12.557  0.9786 -0.6225  1.7235
15182TIP3   OH266960   5.355   2.654  11.632 -0.2121 -0.2499 -0.0781
15182TIP3    H166961   5.363   2.589  11.563  0.4138 -0.8776  0.5776
15182TIP3    H266962   5.262   2.679  11.630  0.0699  0.7969 -2.0687
15183TIP3   OH266963   5.846   4.936  13.803  0.5344 -0.5435 -0.1968
15183TIP3    H166964   5.889   4.863  13.758  0.6206 -0.4188 -0.3161
15183TIP3    H266965   5.917   4.997  13.824  0.6230 -0.9634  0.8195
15184TIP3   OH266966   4.075   4.996  15.322 -0.0879  0.0114  0.3562
15184TIP3    H166967   4.037   4.940  15.390 -0.7526 -0.3994 -0.3438
15184TIP3    H266968   4.048   5.085  15.345  1.7568  0.2200  2.0134
15185TIP3   OH266969   2.836   5.908  17.007 -0.0555  0.3418  0.3260
15185TIP3    H166970   2.912   5.957  16.978  1.1320 -0.7574  1.4212
15185TIP3    H266971   2.818   5.846  16.936 -1.2571  1.9533 -0.8402
15186TIP3   OH266972   0.410   2.465   4.564  0.1753  0.2247  0.6680
15186TIP3    H166973   0.341   2.449   4.500  1.4072 -1.9013 -0.2118
15186TIP3    H266974   0.491   2.467   4.513  1.0486 -0.0409  1.9752
15187TIP3   OH266975   1.037   1.542   5.371 -0.4937 -0.2760  0.5841
15187TIP3    H166976   1.064   1.621   5.419  0.0647  0.1842 -0.4559
15187TIP3    H266977   1.069   1.470   5.425  2.5759  0.2228 -0.3662
15188TIP3   OH266978   1.769   5.275  16.179 -0.0652 -0.3977  0.3265
15188TIP3    H166979   1.724   5.354  16.151  0.9680  0.1976  0.2640
15188TIP3    H266980   1.806   5.239  16.098 -1.6292 -1.6991  0.1482
15189TIP3   OH266981   5.091   1.070  10.524  0.1412 -0.0920 -0.4887
15189TIP3    H166982   5.017   1.056  10.466 -0.4911 -0.1205  0.3030
15189TIP3    H266983   5.073   1.154  10.566 -0.8167 -1.2577  1.6362
15190TIP3   OH266984   0.950   1.609  12.604 -0.0458  0.1605 -0.0577
15190TIP3    H166985   0.987   1.558  12.532  0.9564 -1.0890  1.2988
15190TIP3    H266986   1.015   1.678  12.620 -1.1479  1.6398 -1.5297
15191TIP3   OH266987   0.667   4.886   3.217 -0.1319  0.2475  0.7620
15191TIP3    H166988   0.698   4.796   3.207 -4.5039 -1.3145 -1.2992
15191TIP3    H266989   0.598   4.882   3.283  0.7323  2.5458  1.9341
15192TIP3   OH266990   3.939   4.872  10.580  0.4043 -0.0828 -0.2547
15192TIP3    H166991   4.021   4.836  10.614  0.4849  0.6058  0.2885
15192TIP3    H266992   3.962   4.909  10.495  0.4999 -0.5290 -0.4286
15193TIP3   OH266993   0.191   6.343  16.000 -0.0825 -0.4146  0.0450
15193TIP3    H166994   0.224   6.431  15.983 -1.4080  0.0588 -0.2161
15193TIP3    H266995   0.214   6.326  16.092 -0.9354  0.7411  0.5022
15194TIP3   OH266996   1.336   3.167   2.957 -0.3873 -0.2676 -0.4434
15194TIP3    H166997   1.412   3.198   3.005 -1.0530  1.0864 -0.2071
15194TIP3    H266998   1.372   3.119   2.882  0.7183  0.9934 -0.7647
15195TIP3   OH266999   2.576   2.831   0.692 -0.5181 -0.2192 -0.1241
15195TIP3    H167000   2.541   2.803   0.777 -0.8976  0.2342 -0.1279
15195TIP3    H267001   2.605   2.750   0.650  0.7459 -0.3389  0.9068
15196TIP3   OH267002   3.715   0.367   5.376 -0.0764  0.6487 -0.2620
15196TIP3    H167003   3.668   0.446   5.349  2.8942  2.1069 -1.6332
15196TIP3    H267004   3.770   0.395   5.449 -0.6580 -0.8096  0.7975
15197TIP3   OH267005   4.564   5.009  16.608  0.0757  0.0793  0.2758
15197TIP3    H167006   4.488   4.969  16.649 -0.5574  0.7787 -0.1990
15197TIP3    H267007   4.549   5.104  16.615  1.2092  0.2437  0.7550
15198TIP3   OH267008   0.169   0.418  10.697 -0.2218  0.2603 -0.4465
15198TIP3    H167009   0.220   0.490  10.660  0.6768 -1.5551 -3.1380
15198TIP3    H267010   0.078   0.447  10.689  0.0159  0.6258 -2.9066
15199TIP3   OH267011   1.074   2.377   2.016  0.3018 -0.7041  0.0356
15199TIP3    H167012   1.024   2.332   2.085  0.5338  0.0244  0.6858
15199TIP3    H267013   1.161   2.339   2.022 -0.1328 -1.9649 -1.0888
15200TIP3   OH267014   6.349   0.312  15.610 -0.0361  0.0643  0.5041
15200TIP3    H167015   6.318   0.222  15.604 -0.6874  0.1943  1.7029
15200TIP3    H267016   6.440   0.304  15.639 -0.9964 -0.1934  3.8615
15201TIP3   OH267017   4.169   5.296  16.137  0.1589 -0.1938  0.2246
15201TIP3    H167018   4.212   5.327  16.057 -0.1499  0.6468  0.3738
15201TIP3    H267019   4.240   5.286  16.201  0.1355  1.3440  0.5185
15202TIP3   OH267020   4.640   0.974  16.163  0.2375 -0.2458 -0.1662
15202TIP3    H167021   4.700   1.042  16.194 -1.4881  1.4528 -0.3670
15202TIP3    H267022   4.555   1.017  16.158 -1.1552 -2.6825  0.5943
15203TIP3   OH267023   1.003   1.084  11.027  0.7151  0.2524 -0.3877
15203TIP3    H167024   1.016   1.064  10.935 -2.2524  0.3712 -0.9319
15203TIP3    H267025   0.985   0.999  11.068 -1.2619  0.4847 -0.6430
15204TIP3   OH267026   3.908   2.038  12.909 -0.7396 -0.0984  0.4541
15204TIP3    H167027   3.812   2.044  12.902 -0.7352  0.4647  0.7507
15204TIP3    H267028   3.923   1.967  12.971 -1.0764  1.5613  2.5697
15205TIP3   OH267029   2.830   0.729   0.820 -0.6622 -0.6607  0.2277
15205TIP3    H167030   2.786   0.814   0.817  0.7170  0.0900  0.3872
15205TIP3    H267031   2.881   0.725   0.739 -0.0042 -0.9141  0.6418
15206TIP3   OH267032   3.190   3.689   2.706  0.6236 -0.2269  0.8809
15206TIP3    H167033   3.233   3.765   2.666  0.0789 -0.1904  0.3528
15206TIP3    H267034   3.173   3.630   2.633  1.8028 -1.2507  1.3920
15207TIP3   OH267035   6.093   2.879   2.843  0.5497  0.1010  0.4865
15207TIP3    H167036   6.004   2.914   2.834 -0.6994 -2.8264  0.2475
15207TIP3    H267037   6.116   2.896   2.934  0.3647  2.1617  0.1830
15208TIP3   OH267038   2.299   2.713  12.894  0.2148  0.3832  0.6473
15208TIP3    H167039   2.235   2.715  12.824  0.4543 -0.6221  0.3792
15208TIP3    H267040   2.384   2.722  12.850  0.2516  2.5698  1.0706
15209TIP3   OH267041   3.680   5.060   2.237 -0.5812  0.2175  0.4217
15209TIP3    H167042   3.754   5.100   2.191 -0.6146  0.0537  0.2231
15209TIP3    H267043   3.624   5.134   2.261 -1.1091  0.2216 -0.7535
15210TIP3   OH267044   3.162   0.241  13.505  0.0520  0.0217  0.4199
15210TIP3    H167045   3.096   0.309  13.490 -1.0456 -1.2118 -0.5439
15210TIP3    H267046   3.152   0.180  13.431  1.1621 -1.0758  1.1278
15211TIP3   OH267047   5.968   4.816   5.203  0.3149  0.1955  0.1425
15211TIP3    H167048   6.040   4.789   5.259  0.4557  0.0709 -0.0985
15211TIP3    H267049   5.897   4.755   5.223  0.0197  0.7771  0.9246
15212TIP3   OH267050   3.502   4.599   1.483  0.5495 -0.2835 -0.2535
15212TIP3    H167051   3.491   4.680   1.433  0.2140 -0.5517 -0.6301
15212TIP3    H267052   3.536   4.537   1.419  0.2671 -0.5909 -0.1067
15213TIP3   OH267053   2.480   6.154   0.714  0.0129  0.2977 -0.2563
15213TIP3    H167054   2.561   6.105   0.700 -1.8417 -2.7079 -1.5001
15213TIP3    H267055   2.487   6.230   0.656  2.1234  0.4212  0.0966
15214TIP3   OH267056   4.051   4.217  12.357 -0.6684 -0.5488  0.2806
15214TIP3    H167057   3.979   4.157  12.339 -1.9121  0.8222  0.4396
15214TIP3    H267058   4.046   4.234  12.451 -0.3415 -0.2006  0.2396
15215TIP3   OH267059   4.973   2.983  12.637 -0.8081 -0.8584  0.0041
15215TIP3    H167060   5.003   2.912  12.694  0.9088 -1.0646 -1.0560
15215TIP3    H267061   5.007   2.960  12.550  0.8353  1.7676 -0.1817
15216TIP3   OH267062   0.626   6.532   0.990 -0.0999 -0.0222 -0.7380
15216TIP3    H167063   0.673   6.556   1.071  1.1933  0.0366 -1.4826
15216TIP3    H267064   0.591   6.615   0.958  2.2416  0.5828 -1.9732
15217TIP3   OH267065   5.751   3.736  11.594 -0.6782  0.0938 -0.0052
15217TIP3    H167066   5.745   3.719  11.500 -0.8545  0.6594 -0.0976
15217TIP3    H267067   5.695   3.812  11.609  0.7143  1.1206  0.2557
15218TIP3   OH267068   0.202   5.538   0.241 -0.0176  0.2083 -0.0606
15218TIP3    H167069   0.141   5.539   0.167  2.0019 -0.1297 -1.8372
15218TIP3    H267070   0.194   5.450   0.278  0.9515 -0.6369 -1.7281
15219TIP3   OH267071   6.177   6.165  13.278  0.1533  0.6395  0.0712
15219TIP3    H167072   6.141   6.080  13.305 -1.8564  1.5732  0.5693
15219TIP3    H267073   6.266   6.165  13.311  0.1869 -1.2516  0.1065
15220TIP3   OH267074   6.074   2.363  16.184  0.9600 -0.4195 -0.4903
15220TIP3    H167075   6.028   2.391  16.263  1.1066  1.0864 -0.9230
15220TIP3    H267076   6.122   2.285  16.211  0.5092 -0.2945  0.7358
15221TIP3   OH267077   0.334   0.820  14.833 -0.6671  0.3329  0.0374
15221TIP3    H167078   0.341   0.760  14.759  0.8271 -1.2657  1.3708
15221TIP3    H267079   0.247   0.803  14.869 -0.9879  0.3529 -0.7143
15222TIP3   OH267080   5.639   0.053   0.433  0.1805 -0.2530 -0.6454
15222TIP3    H167081   5.661   0.137   0.392 -2.6708  0.0862 -1.6973
15222TIP3    H267082   5.544   0.055   0.442  0.1321 -2.9553  0.3404
15223TIP3   OH267083   6.225   1.377   2.721  0.1582  0.5378  0.1157
15223TIP3    H167084   6.153   1.319   2.696 -0.7175  1.1616  1.0893
15223TIP3    H267085   6.300   1.319   2.734  0.3889  0.0582 -2.7131
15224TIP3   OH267086   5.913   4.116  16.081 -0.0343 -0.2405  0.1349
15224TIP3    H167087   5.958   4.073  16.009  0.9103 -0.0381  0.5807
15224TIP3    H267088   5.843   4.166  16.039  0.5244 -0.0936 -0.6502
15225TIP3   OH267089   5.907   0.403   3.187  0.4072  0.1297 -0.5446
15225TIP3    H167090   5.966   0.407   3.111 -0.4898 -0.1309 -1.2748
15225TIP3    H267091   5.959   0.360   3.255  0.7883 -0.9196 -1.4601
15226TIP3   OH267092   0.624   4.041  14.909  0.1233  1.2176  0.0822
15226TIP3    H167093   0.710   4.041  14.952 -0.1747 -0.7344  0.7824
15226TIP3    H267094   0.603   3.948  14.898 -1.6092  1.6629 -0.6864
15227TIP3   OH267095   6.278   4.640  15.129  0.4884 -0.1482  0.6549
15227TIP3    H167096   6.225   4.705  15.176 -0.2618 -1.1665  1.2659
15227TIP3    H267097   6.365   4.649  15.167  0.3120  0.2661  0.9757
15228TIP3   OH267098   0.787   0.063  16.653  0.1183  0.0868  0.6101
15228TIP3    H167099   0.780  -0.029  16.627 -1.0507  0.0010  1.1969
15228TIP3    H267100   0.842   0.061  16.731 -0.7595 -0.2420  1.2365
15229TIP3   OH267101   0.435   3.000  14.088  0.0360  0.1462 -0.8643
15229TIP3    H167102   0.351   3.000  14.135  0.4443  0.5951 -0.1132
15229TIP3    H267103   0.427   2.929  14.024 -0.5998 -0.3566 -0.2386
15230TIP3   OH267104   6.205   1.713  16.164  0.3972 -0.5179 -0.0068
15230TIP3    H167105   6.245   1.688  16.248  0.7445 -0.7271 -0.2325
15230TIP3    H267106   6.117   1.675  16.167  1.0008 -2.0121 -0.4404
15231TIP3   OH267107   2.008   2.187   3.238  0.2135  0.5365 -0.0810
15231TIP3    H167108   2.054   2.144   3.166 -0.9550 -0.6828 -0.1367
15231TIP3    H267109   2.076   2.236   3.285  0.8724  2.1484 -2.5343
15232TIP3   OH267110   3.887   3.296  15.728  0.5712 -0.1549 -0.2963
15232TIP3    H167111   3.862   3.205  15.742 -0.9622 -0.3918 -3.6744
15232TIP3    H267112   3.968   3.292  15.678 -0.1065  0.2636 -1.4608
15233TIP3   OH267113   6.120   6.718  14.471 -0.0659 -0.2695  0.2205
15233TIP3    H167114   6.122   6.635  14.518  0.3954  0.2767  1.1967
15233TIP3    H267115   6.075   6.698  14.389  4.1533 -2.6433 -1.8196
15234TIP3   OH267116   6.393   2.105  11.539  0.2970 -0.6238 -0.2798
15234TIP3    H167117   6.484   2.117  11.510 -0.0223  0.0851 -1.0115
15234TIP3    H267118   6.348   2.071  11.462  0.0860 -1.6852  0.2958
15235TIP3   OH267119   1.296   1.620   5.742  0.4857  0.2223  0.4555
15235TIP3    H167120   1.314   1.703   5.698 -0.1073  0.8047  1.2858
15235TIP3    H267121   1.302   1.641   5.835  1.2713 -0.8852  0.6750
15236TIP3   OH267122   1.120   1.161   4.010 -0.0327 -0.4780 -0.6420
15236TIP3    H167123   1.135   1.246   3.968 -0.8175  0.4704  0.8968
15236TIP3    H267124   1.181   1.160   4.083 -0.4243 -0.9940 -0.3222
15237TIP3   OH267125   4.456   3.595  10.522 -0.5028  0.3013  0.7110
15237TIP3    H167126   4.430   3.686  10.533  0.6046  0.8278 -0.7515
15237TIP3    H267127   4.400   3.546  10.583  0.4041  2.1661  3.2034
15238TIP3   OH267128   1.635   3.502  11.740 -0.0299 -0.6377 -0.2098
15238TIP3    H167129   1.667   3.496  11.830 -1.9944 -1.7550  0.4623
15238TIP3    H267130   1.567   3.570  11.744  0.9588  0.4746 -1.2448
15239TIP3   OH267131   4.474   4.476   4.503 -0.5356  0.1820  0.3227
15239TIP3    H167132   4.548   4.509   4.451  0.9852 -0.0194  2.2658
15239TIP3    H267133   4.506   4.475   4.593 -3.4620  1.7098  1.5271
15240TIP3   OH267134   2.778   1.211   0.554 -0.4581 -0.3394  0.1323
15240TIP3    H167135   2.716   1.244   0.489 -1.2271 -1.7663  0.1169
15240TIP3    H267136   2.772   1.274   0.626 -2.0736 -0.5283  0.2049
15241TIP3   OH267137   4.851   2.802   5.606  0.3793 -0.9281 -0.0351
15241TIP3    H167138   4.935   2.761   5.586  1.2958  1.6970 -2.0961
15241TIP3    H267139   4.867   2.850   5.688  0.3086 -1.8651  0.5439
15242TIP3   OH267140   2.446   1.335   0.558  0.1118  0.5836  0.3135
15242TIP3    H167141   2.416   1.412   0.509 -0.7187  0.1999  0.2139
15242TIP3    H267142   2.407   1.261   0.513  0.5736  0.1238  0.6614
15243TIP3   OH267143   3.251   1.949  14.607 -0.2504 -0.2074 -0.4889
15243TIP3    H167144   3.273   1.863  14.573 -0.5645 -1.0417  1.3185
15243TIP3    H267145   3.191   1.932  14.680 -0.8436  1.5782 -0.4948
15244TIP3   OH267146   6.088   4.618  12.243 -0.4713 -0.0105 -0.3012
15244TIP3    H167147   6.050   4.530  12.249  0.4692 -0.3475  1.5194
15244TIP3    H267148   6.169   4.607  12.193  1.6874 -1.0489  3.0658
15245TIP3   OH267149   3.377   5.115  13.311 -0.5581  0.0727 -0.4706
15245TIP3    H167150   3.346   5.183  13.371 -3.2735 -0.4807 -1.1122
15245TIP3    H267151   3.430   5.057  13.366  0.9998  2.1235  0.2866
15246TIP3   OH267152   1.309   0.020   4.915  0.6018 -0.9499  0.1655
15246TIP3    H167153   1.305  -0.061   4.965 -0.2995 -1.2142 -0.3185
15246TIP3    H267154   1.251   0.006   4.841 -0.4862  0.5341  0.6758
15247TIP3   OH267155   0.365   2.666   4.755 -0.4720  0.0287  0.0350
15247TIP3    H167156   0.325   2.753   4.752 -0.9094 -0.1766 -0.1956
15247TIP3    H267157   0.353   2.631   4.667  0.0540 -0.1114  0.0167
15248TIP3   OH267158   0.958   4.180  15.281 -0.4275  0.3893  0.4067
15248TIP3    H167159   0.892   4.243  15.311 -1.1011  0.4214 -1.0838
15248TIP3    H267160   1.042   4.222  15.299 -0.8364  2.7622 -2.5851
15249TIP3   OH267161   2.226   0.004  12.143 -0.0990  0.0830 -0.0123
15249TIP3    H167162   2.240   0.085  12.192  2.6596 -0.1594 -0.2115
15249TIP3    H267163   2.301  -0.051  12.167 -0.1835 -1.1329 -2.2977
15250TIP3   OH267164   2.434   2.558   5.346 -0.1056 -0.0517 -0.2939
15250TIP3    H167165   2.507   2.498   5.362  0.1640  0.7325  1.7680
15250TIP3    H267166   2.423   2.558   5.251  0.6719 -2.3951 -0.4392
15251TIP3   OH267167   4.872   2.800  14.183 -0.1780 -0.1868 -0.1298
15251TIP3    H167168   4.959   2.839  14.175  0.1655 -0.8414  0.3644
15251TIP3    H267169   4.871   2.729  14.118 -0.8297  0.6662 -1.0812
15252TIP3   OH267170   1.885   2.782  11.432 -0.2808 -0.1688 -0.3170
15252TIP3    H167171   1.887   2.734  11.348  0.4810 -0.5726 -0.0822
15252TIP3    H267172   1.977   2.786  11.459 -0.4991  0.1542  0.3943
15253TIP3   OH267173   2.202   6.072   1.136 -0.1478 -0.0351 -0.1036
15253TIP3    H167174   2.152   6.074   1.217 -1.9515 -0.3650 -1.1500
15253TIP3    H267175   2.223   6.164   1.118 -1.6582  0.2720 -0.3802
15254TIP3   OH267176   4.745   5.978  14.611  0.6762  0.3193  0.2497
15254TIP3    H167177   4.655   6.010  14.619  0.5453 -0.3143  1.7332
15254TIP3    H267178   4.743   5.892  14.652  2.3083  0.9984  1.9013
15255TIP3   OH267179   0.967   3.994   1.119  0.2154 -0.0052  0.0894
15255TIP3    H167180   1.030   3.982   1.191  0.0229  0.8130  0.4046
15255TIP3    H267181   1.015   4.047   1.055 -0.2208  0.8596  0.4529
15256TIP3   OH267182   4.549   5.712  13.171 -0.1220 -0.0754  0.2605
15256TIP3    H167183   4.500   5.631  13.176 -1.8618  0.8946 -0.1913
15256TIP3    H267184   4.500   5.767  13.110 -0.3159  2.1592  2.2454
15257TIP3   OH267185   1.569   5.708   2.398  0.0782  0.1860  0.4108
15257TIP3    H167186   1.551   5.658   2.318  0.5106  0.7567 -0.0610
15257TIP3    H267187   1.656   5.678   2.425  0.7306  1.2803 -0.3724
15258TIP3   OH267188   5.552   3.177  16.562  0.4814  0.1227 -0.1098
15258TIP3    H167189   5.467   3.220  16.564  0.5205  0.1817  0.2236
15258TIP3    H267190   5.540   3.096  16.611  0.2649 -0.5164 -1.1769
15259TIP3   OH267191   4.191   0.123   5.085 -0.2482  0.0969  0.4749
15259TIP3    H167192   4.188   0.029   5.067  5.1531  0.0715 -2.6382
15259TIP3    H267193   4.235   0.130   5.170  2.4728 -0.4337 -0.7903
15260TIP3   OH267194   2.188   4.292   2.527  0.1536 -0.1527  0.5673
15260TIP3    H167195   2.149   4.253   2.448 -0.3135  0.8434  0.2875
15260TIP3    H267196   2.135   4.370   2.543  0.3185 -0.2832  1.8110
15261TIP3   OH267197   0.502   5.756  11.754 -0.0134 -0.3801  0.2124
15261TIP3    H167198   0.455   5.675  11.775 -0.7805  0.2540  1.0148
15261TIP3    H267199   0.537   5.742  11.666 -1.1067 -1.1414 -0.1138
15262TIP3   OH267200   2.198   3.073  13.836  0.1161  0.3978  0.3099
15262TIP3    H167201   2.165   3.057  13.924 -2.1935 -0.6054 -0.6223
15262TIP3    H267202   2.243   2.992  13.813  0.4828  0.5553  0.4749
15263TIP3   OH267203   2.318   5.511   5.547 -0.4092 -0.1279  0.1237
15263TIP3    H167204   2.315   5.603   5.572  0.5355  0.2643 -1.0463
15263TIP3    H267205   2.285   5.464   5.623 -0.8012  1.1675  0.7904
15264TIP3   OH267206   5.304   1.884   5.223  0.2166  0.1362  0.2507
15264TIP3    H167207   5.293   1.917   5.312 -0.2776 -0.7100  0.5247
15264TIP3    H267208   5.397   1.895   5.203  0.9166 -2.0766  1.8970
15265TIP3   OH267209   5.102   6.104   2.560 -1.0695  0.0002  0.6337
15265TIP3    H167210   5.143   6.066   2.482  1.0973  0.3264  1.5660
15265TIP3    H267211   5.115   6.198   2.549 -0.1957  0.0103  1.6672
15266TIP3   OH267212   0.763   4.362   4.756  0.5700  0.0671  0.4724
15266TIP3    H167213   0.791   4.327   4.671  1.1916  0.2133  0.6092
15266TIP3    H267214   0.788   4.455   4.752 -0.2302  0.2904  0.4667
15267TIP3   OH267215   5.393   4.481  15.924  0.4258  0.0737 -0.1359
15267TIP3    H167216   5.409   4.426  15.847 -1.6305  0.5459 -0.9864
15267TIP3    H267217   5.328   4.544  15.894 -1.3774 -0.4890  2.2931
15268TIP3   OH267218   3.475   2.417  12.693  0.1754 -0.5635  0.4558
15268TIP3    H167219   3.422   2.475  12.639 -0.0075 -0.0528  1.1714
15268TIP3    H267220   3.477   2.334  12.645  0.3681  0.0033 -0.5359
15269TIP3   OH267221   2.716   3.729  10.508  0.1459  0.2939  0.5640
15269TIP3    H167222   2.726   3.634  10.519  0.5378  0.3228  0.4735
15269TIP3    H267223   2.659   3.738  10.431  2.2734  0.1334 -1.1353
15270TIP3   OH267224   0.976   5.578  13.115  0.0541 -0.0721 -0.4368
15270TIP3    H167225   0.883   5.555  13.106 -0.5041  1.4664  0.8577
15270TIP3    H267226   1.023   5.502  13.081 -1.6602 -1.6597  0.5483
15271TIP3   OH267227   1.389   5.896   6.105  0.5900 -0.4961  0.1735
15271TIP3    H167228   1.422   5.850   6.182  0.4812  1.6019  1.5662
15271TIP3    H267229   1.295   5.881   6.106  0.3429  0.8933  1.4993
15272TIP3   OH267230   0.704   1.238  15.037 -0.3185  0.0788  0.1677
15272TIP3    H167231   0.746   1.171  14.984 -0.1574  0.0454  0.3365
15272TIP3    H267232   0.713   1.206  15.127  0.9709  0.9896  0.3799
15273TIP3   OH267233   2.944   1.303  14.581 -0.0671 -0.5107  0.4980
15273TIP3    H167234   2.880   1.258  14.636 -2.5282  1.1872 -0.7984
15273TIP3    H267235   2.952   1.390  14.621 -1.6792  0.6551 -1.4896
15274TIP3   OH267236   6.724   2.485  15.845  0.6438 -0.0494 -0.1707
15274TIP3    H167237   6.659   2.555  15.846  0.7918  0.1543 -2.1197
15274TIP3    H267238   6.696   2.426  15.916 -0.3631  1.1600  0.4788
15275TIP3   OH267239   5.956   1.960  13.156 -0.2239 -0.2080 -0.1573
15275TIP3    H167240   6.004   1.990  13.234  2.0824 -1.7614 -0.8576
15275TIP3    H267241   5.899   1.891  13.189 -1.5642  1.1836  0.5829
15276TIP3   OH267242   5.215   5.066   4.531 -0.5154  0.2501 -0.4918
15276TIP3    H167243   5.245   5.142   4.582 -0.3091 -0.2129  0.0865
15276TIP3    H267244   5.171   5.104   4.455  0.8587  0.9409 -0.9634
15277TIP3   OH267245   3.730   3.753  14.906 -0.3281  0.2028  0.1667
15277TIP3    H167246   3.650   3.804  14.921 -0.9312 -0.3373 -1.0897
15277TIP3    H267247   3.722   3.722  14.816  0.5337 -1.2161  0.5514
15278TIP3   OH267248   0.371   4.205   2.212 -0.7775 -0.6348  0.6507
15278TIP3    H167249   0.410   4.291   2.192  1.3911 -1.5678  0.5333
15278TIP3    H267250   0.421   4.173   2.287 -0.1882 -2.5887 -0.4911
15279TIP3   OH267251   0.202   2.524   0.154 -0.0471 -0.7468  0.7710
15279TIP3    H167252   0.245   2.439   0.143  0.9393 -0.0742 -0.9937
15279TIP3    H267253   0.272   2.588   0.141 -0.8665  0.3455  1.6109
15280TIP3   OH267254   3.889   6.394   2.575  1.1516  0.6226  0.1130
15280TIP3    H167255   3.838   6.473   2.597  0.2887  0.2719 -0.5428
15280TIP3    H267256   3.835   6.348   2.510 -0.3806 -2.5768  3.2982
15281TIP3   OH267257   2.897   3.638   4.771 -0.1307 -0.1150  0.2440
15281TIP3    H167258   2.944   3.721   4.784 -0.4973  0.1113  0.1418
15281TIP3    H267259   2.821   3.662   4.718  0.7992 -0.8400 -1.5039
15282TIP3   OH267260   3.631   5.188  12.259  0.2000 -0.1355 -0.2499
15282TIP3    H167261   3.611   5.129  12.332  1.1898 -0.2686 -0.0678
15282TIP3    H267262   3.700   5.143  12.210  0.1854  0.3670 -0.7408
15283TIP3   OH267263   0.215   0.921   3.861 -0.1567  0.3499  0.5854
15283TIP3    H167264   0.145   0.980   3.888  0.0412  1.0143 -0.2918
15283TIP3    H267265   0.290   0.945   3.916 -0.5261 -0.1897  1.3461
15284TIP3   OH267266   5.878   0.946   3.540  0.1759  0.4798 -0.2682
15284TIP3    H167267   5.957   1.000   3.544 -0.9401  2.2917 -1.2713
15284TIP3    H267268   5.808   1.004   3.567 -0.9078 -0.9669  0.1707
15285TIP3   OH267269   6.817   6.449  14.432  0.0182 -0.3674 -0.0535
15285TIP3    H167270   6.722   6.440  14.433  0.1746 -2.9138 -1.2342
15285TIP3    H267271   6.846   6.409  14.514  0.1691 -1.7605 -0.7643
15286TIP3   OH267272   0.968   2.568   0.654  0.5037  0.2593  0.3405
15286TIP3    H167273   1.015   2.485   0.667 -0.0407  0.1589  1.8574
15286TIP3    H267274   0.942   2.566   0.561 -0.0838 -1.5921  0.4979
15287TIP3   OH267275   2.429   5.213  16.524  0.4059  0.2629 -0.2918
15287TIP3    H167276   2.436   5.224  16.429 -0.0375  2.1163 -0.1458
15287TIP3    H267277   2.513   5.246  16.558  1.2154 -1.8477 -0.0876
15288TIP3   OH267278   4.134   3.274  14.702 -0.3125 -0.2387 -0.0272
15288TIP3    H167279   4.210   3.301  14.754  1.1532 -0.8261 -1.7577
15288TIP3    H267280   4.138   3.178  14.701 -1.8140 -0.3379  0.8508
15289TIP3   OH267281   6.017   0.380  13.459 -0.0163  0.4983  1.0507
15289TIP3    H167282   6.030   0.474  13.474  0.3819  0.5634  0.3228
15289TIP3    H267283   6.095   0.339  13.495  0.1140  0.5030  0.7740
15290TIP3   OH267284   0.722   1.704  11.873 -0.2659 -0.0502  0.5228
15290TIP3    H167285   0.630   1.713  11.900 -0.0616 -0.8035  1.5335
15290TIP3    H267286   0.737   1.779  11.815 -1.7113 -0.2969 -0.2385
15291TIP3   OH267287   3.303   1.417   1.967 -0.0639 -0.1631  0.5802
15291TIP3    H167288   3.398   1.418   1.953 -0.3520  1.3057 -1.6606
15291TIP3    H267289   3.273   1.502   1.936 -2.3867 -1.3976 -0.8177
15292TIP3   OH267290   3.381   0.306  16.225 -0.1485 -0.2954 -0.3579
15292TIP3    H167291   3.434   0.375  16.185 -2.0998  1.0228 -0.7860
15292TIP3    H267292   3.393   0.230  16.168 -1.3492  0.9864 -2.4247
15293TIP3   OH267293   2.898   4.579  15.786  0.8175 -0.1882 -0.0121
15293TIP3    H167294   2.938   4.506  15.833  0.9882 -0.3190 -0.3661
15293TIP3    H267295   2.931   4.657  15.832  0.3865 -0.3330  0.5653
15294TIP3   OH267296   6.395   3.013  11.186 -0.4805 -0.4439  0.4242
15294TIP3    H167297   6.487   2.984  11.190 -0.6717 -1.1024  0.2052
15294TIP3    H267298   6.349   2.953  11.244 -0.8109 -0.2747  0.3360
15295TIP3   OH267299   1.556   5.325   2.885  0.1168  0.1118  0.6303
15295TIP3    H167300   1.617   5.250   2.889 -0.2430 -0.3044 -0.8962
15295TIP3    H267301   1.477   5.289   2.845 -0.8209  0.8674  1.7427
15296TIP3   OH267302   6.442   0.958  12.551  0.7266  0.4461 -0.1401
15296TIP3    H167303   6.491   0.965  12.633 -0.9128 -0.8875  1.0220
15296TIP3    H267304   6.506   0.926  12.487  1.4505 -1.1401  1.3004
15297TIP3   OH267305   1.417   4.383   2.063 -0.4393 -0.3844 -0.2847
15297TIP3    H167306   1.345   4.338   2.107 -1.9593  0.5976 -1.6672
15297TIP3    H267307   1.382   4.409   1.978  2.2994 -1.9613 -2.0698
15298TIP3   OH267308   3.030   4.316   3.437 -0.0441 -0.5865  0.4246
15298TIP3    H167309   3.116   4.353   3.460  0.3892 -0.2517 -1.5575
15298TIP3    H267310   3.042   4.280   3.349 -2.0877 -0.0387 -0.1321
15299TIP3   OH267311   4.333   5.976  12.118 -0.1857  0.7272 -0.0188
15299TIP3    H167312   4.367   6.063  12.101 -2.0559  1.3794 -0.7111
15299TIP3    H267313   4.382   5.919  12.058  1.5809  1.1325  0.9736
15300TIP3   OH267314   4.908   2.985   4.137  0.2265 -0.1678 -0.0310
15300TIP3    H167315   4.895   2.971   4.043  1.3489 -2.5361  0.1115
15300TIP3    H267316   4.841   3.049   4.161 -1.0538 -0.6366 -2.1344
15301TIP3   OH267317   4.536   3.899  16.632 -0.3169  0.0399  0.2576
15301TIP3    H167318   4.497   3.952  16.701  0.1719  1.1953 -0.3320
15301TIP3    H267319   4.604   3.848  16.677  0.5231  1.3505  0.5334
15302TIP3   OH267320   4.005   3.569  14.609  0.0534  0.0323 -0.0630
15302TIP3    H167321   4.020   3.593  14.701 -1.2721 -0.2743  0.2520
15302TIP3    H267322   3.990   3.475  14.611 -1.5093  0.2412 -0.3626
15303TIP3   OH267323   6.106   4.244   0.310 -0.3168 -0.2528 -0.1946
15303TIP3    H167324   6.036   4.297   0.347  0.7957 -0.6029  2.6920
15303TIP3    H267325   6.167   4.308   0.272  0.9441  0.7353  3.1138
15304TIP3   OH267326   0.102   0.393   4.928 -0.3356 -0.5587 -0.0773
15304TIP3    H167327   0.086   0.416   5.020  2.9197  2.0401  0.0262
15304TIP3    H267328   0.078   0.472   4.879  0.2807 -1.0377 -1.1810
15305TIP3   OH267329   2.723   2.947  13.838 -0.4355  0.2394  0.0542
15305TIP3    H167330   2.709   3.039  13.812  1.4082  0.4329 -0.4068
15305TIP3    H267331   2.796   2.918  13.783 -1.3008 -1.6733 -0.1497
15306TIP3   OH267332   2.448   0.940   1.366  0.3798  0.4929  0.0966
15306TIP3    H167333   2.377   0.956   1.429 -2.3520  0.2577 -2.6664
15306TIP3    H267334   2.490   0.860   1.396 -2.4785 -1.0322  0.3310
15307TIP3   OH267335   2.388   5.341  11.224 -0.2729  0.5893 -0.0832
15307TIP3    H167336   2.407   5.293  11.305  0.1550 -0.4656 -0.7727
15307TIP3    H267337   2.309   5.390  11.243  0.6927  1.6220  1.4792
15308TIP3   OH267338   2.895   5.160   0.411 -1.3226 -0.0242 -0.2172
15308TIP3    H167339   2.935   5.244   0.388 -0.4797  0.1451  1.7508
15308TIP3    H267340   2.930   5.099   0.347  1.4424  0.3054  0.8573
15309TIP3   OH267341   2.630   1.314   0.014 -0.1389  0.3586 -0.2247
15309TIP3    H167342   2.611   1.408   0.004  0.1510  0.6130  1.3298
15309TIP3    H267343   2.608   1.276  -0.071 -0.6299  1.7774 -0.7666
15310TIP3   OH267344   0.013   5.089   3.185  0.1047 -0.2163 -0.0538
15310TIP3    H167345   0.069   5.135   3.123  0.5318  0.3829  0.7526
15310TIP3    H267346   0.003   5.150   3.258 -0.1520 -1.0072  0.5896
15311TIP3   OH267347   0.663   6.833  12.768 -0.1306 -0.3592 -0.2615
15311TIP3    H167348   0.675   6.855  12.860 -0.3926  0.7791 -0.4874
15311TIP3    H267349   0.741   6.783  12.745  0.7614  0.8104  0.1407
15312TIP3   OH267350   1.561   4.064  13.165 -0.4048  0.4849 -0.0686
15312TIP3    H167351   1.482   4.055  13.112  1.1129 -1.0789 -2.2831
15312TIP3    H267352   1.542   4.015  13.245 -2.1703  1.4403  0.1380
15313TIP3   OH267353   1.095   6.608   0.591  0.5467 -0.3218  0.8171
15313TIP3    H167354   1.039   6.549   0.641  0.6728  0.3799  1.8175
15313TIP3    H267355   1.146   6.655   0.657  0.7851  0.5636  0.0309
15314TIP3   OH267356   2.085   5.317   3.430  0.2708 -0.7181 -0.5521
15314TIP3    H167357   2.163   5.264   3.444  0.9880  0.1605 -1.1364
15314TIP3    H267358   2.013   5.263   3.463  1.0580 -1.7550 -0.4945
15315TIP3   OH267359   5.532   5.469   1.548 -0.1248  0.0497 -0.0295
15315TIP3    H167360   5.582   5.414   1.607  0.6041  0.8918  0.1537
15315TIP3    H267361   5.463   5.508   1.603 -0.5640 -0.5610 -0.1336
15316TIP3   OH267362   1.061   1.914  16.237 -0.0631  0.2213  0.1926
15316TIP3    H167363   1.146   1.947  16.209  0.0130  1.3115  1.5931
15316TIP3    H267364   1.081   1.842  16.297 -0.2237 -2.0525 -2.2886
15317TIP3   OH267365   5.902   1.556   5.930  0.6388  0.1916  0.3139
15317TIP3    H167366   5.835   1.499   5.967  1.4879 -1.4192 -0.5139
15317TIP3    H267367   5.980   1.501   5.926  0.9005  0.6116 -2.7138
15318TIP3   OH267368   1.306   6.451  12.043 -0.1552 -0.6604  0.6973
15318TIP3    H167369   1.303   6.383  11.975  0.7062  1.1551 -1.2838
15318TIP3    H267370   1.388   6.433  12.090 -0.2691 -1.3727  0.6375
15319TIP3   OH267371   4.447   1.517  16.846  0.4358  0.1823  0.0378
15319TIP3    H167372   4.373   1.504  16.906 -0.2853 -0.0265 -0.8789
15319TIP3    H267373   4.439   1.609  16.818  0.9987  0.3939  0.5476
15320TIP3   OH267374   6.620   0.255   2.334  0.2760  0.1654  0.1700
15320TIP3    H167375   6.627   0.163   2.309 -1.0836 -0.1781  0.9501
15320TIP3    H267376   6.709   0.280   2.361  0.8025 -0.7051 -0.7027
15321TIP3   OH267377   0.397   1.708   9.762 -0.4247 -0.3607  0.1264
15321TIP3    H167378   0.488   1.682   9.750 -0.3831 -1.3709  2.1897
15321TIP3    H267379   0.349   1.654   9.700  0.2715 -0.6993 -0.1307
15322TIP3   OH267380   4.743   1.242  16.182 -0.3137 -0.3550 -1.1981
15322TIP3    H167381   4.835   1.251  16.161  0.2895 -2.2624  0.3162
15322TIP3    H267382   4.727   1.305  16.252 -0.3567  0.4480 -1.9158
15323TIP3   OH267383   4.632   6.098  15.735 -0.3123  0.2236  0.1646
15323TIP3    H167384   4.546   6.122  15.768 -0.5354 -0.5709  0.1797
15323TIP3    H267385   4.646   6.009  15.767  0.7761  0.5594  0.6679
15324TIP3   OH267386   0.410   3.319   1.355 -0.1744  0.1592 -0.7041
15324TIP3    H167387   0.449   3.365   1.429  0.4818 -2.8491  1.0096
15324TIP3    H267388   0.358   3.385   1.310  0.6460  2.4915  1.5406
15325TIP3   OH267389   4.401   5.228  16.286 -0.1078 -0.6276 -0.4188
15325TIP3    H167390   4.463   5.250  16.216 -0.9071  0.9148 -0.6760
15325TIP3    H267391   4.441   5.265  16.365 -0.2184 -0.5153 -0.4152
15326TIP3   OH267392   3.053   2.771  10.850  0.1525  0.0115 -0.7684
15326TIP3    H167393   3.003   2.719  10.787  0.5845 -0.5341 -0.6687
15326TIP3    H267394   3.065   2.712  10.924 -0.2945  0.6294 -0.1980
15327TIP3   OH267395   4.870   3.499  14.570 -0.2221 -0.1147  0.1641
15327TIP3    H167396   4.864   3.406  14.550 -0.3543 -0.0302 -0.1999
15327TIP3    H267397   4.899   3.540  14.488 -0.9721  0.2622  0.0797
15328TIP3   OH267398   2.742   6.552   4.378 -0.7646  0.5459  0.0130
15328TIP3    H167399   2.703   6.624   4.428 -2.2767 -0.4216  0.2921
15328TIP3    H267400   2.668   6.508   4.338  0.0216 -1.3896  0.5564
15329TIP3   OH267401   5.656   2.317   1.381 -0.3940 -0.2429 -0.3361
15329TIP3    H167402   5.738   2.328   1.429 -0.2910 -0.9644 -0.3365
15329TIP3    H267403   5.657   2.388   1.316  0.0095  0.0340 -0.0337
15330TIP3   OH267404   1.386   0.753  12.834 -0.3724  0.0887  0.2909
15330TIP3    H167405   1.481   0.744  12.839 -0.3198  0.5160  0.0758
15330TIP3    H267406   1.367   0.759  12.741 -0.7080 -0.9272  0.2747
15331TIP3   OH267407   6.609   0.617   2.541  0.4107 -0.4825  0.4683
15331TIP3    H167408   6.636   0.539   2.590 -1.4314 -0.1934  2.0583
15331TIP3    H267409   6.681   0.679   2.554  0.5637 -0.8818  1.7472
15332TIP3   OH267410   0.051   3.650   5.756  0.2536 -0.1994 -0.0163
15332TIP3    H167411   0.045   3.591   5.831  1.7287 -0.6364 -0.2124
15332TIP3    H267412   0.137   3.690   5.764  0.4296 -0.2428 -1.4516
15333TIP3   OH267413   1.996   1.976   0.880  0.3480 -0.8524  0.5095
15333TIP3    H167414   1.973   1.991   0.972  0.5720 -0.7413  0.5469
15333TIP3    H267415   1.923   1.923   0.846 -0.0958 -0.2764  0.5570
15334TIP3   OH267416   2.964   2.420   1.357 -0.5542 -0.0858  0.0545
15334TIP3    H167417   2.941   2.388   1.270  0.7729 -0.3801 -0.1986
15334TIP3    H267418   3.031   2.486   1.341 -0.6421  0.1973  0.8277
15335TIP3   OH267419   6.343   1.800  15.083 -0.1167  0.3413  0.3464
15335TIP3    H167420   6.315   1.775  15.171 -1.4415 -0.4847 -0.2743
15335TIP3    H267421   6.297   1.883  15.066  2.0580  1.8416  1.3202
15336TIP3   OH267422   2.948   2.967   0.510 -0.0906  0.2707 -0.4844
15336TIP3    H167423   2.991   2.888   0.542  1.0073  0.7947 -0.6037
15336TIP3    H267424   2.902   3.003   0.586  1.1063  0.6085  0.1057
15337TIP3   OH267425   1.412   3.357   3.160 -0.4044 -0.2795 -0.2161
15337TIP3    H167426   1.415   3.361   3.256 -0.0453  1.6075 -0.2737
15337TIP3    H267427   1.326   3.393   3.138 -0.3014 -0.2764 -0.6151
15338TIP3   OH267428   2.480   5.994  13.005 -0.0209  0.1321  0.6863
15338TIP3    H167429   2.443   6.039  13.081 -0.9280 -0.9664  0.9231
15338TIP3    H267430   2.416   6.008  12.936  1.1255  1.7182 -0.1231
15339TIP3   OH267431   4.590   0.042   5.908  0.4802 -0.4882 -0.0887
15339TIP3    H167432   4.510   0.028   5.959  0.6375  0.2961  0.3843
15339TIP3    H267433   4.603   0.136   5.909  0.7695 -0.5081 -1.1676
15340TIP3   OH267434   4.822   6.742  11.007 -0.0441  0.3778  0.0608
15340TIP3    H167435   4.849   6.675  11.070  1.4925  1.2793  0.4371
15340TIP3    H267436   4.815   6.822  11.059  0.3758  0.9535 -0.7404
15341TIP3   OH267437   5.351   2.195  14.750 -0.1954 -0.0718 -0.1540
15341TIP3    H167438   5.425   2.181  14.690 -0.6842 -0.3351 -0.7141
15341TIP3    H267439   5.344   2.113  14.798 -1.3260 -0.7955 -1.4810
15342TIP3   OH267440   6.205   0.009   3.540  0.2666 -0.5085  0.1222
15342TIP3    H167441   6.135  -0.056   3.536  0.0136 -0.2448  0.1579
15342TIP3    H267442   6.280  -0.033   3.498 -0.0138 -0.6743 -0.2225
15343TIP3   OH267443   5.521   5.430  14.076  0.2594  0.0050 -0.0720
15343TIP3    H167444   5.529   5.489  14.001 -2.0709 -1.0302 -1.2486
15343TIP3    H267445   5.591   5.366  14.063  1.3350  1.1225 -0.0481
15344TIP3   OH267446   5.136   3.464  11.582  0.0827  0.3622 -0.3322
15344TIP3    H167447   5.230   3.465  11.565 -0.0899 -0.1477 -1.4260
15344TIP3    H267448   5.110   3.556  11.579  0.6460  0.5556  0.5971
15345TIP3   OH267449   1.508   6.583   2.711  0.0074 -0.2462  0.7825
15345TIP3    H167450   1.522   6.489   2.701  1.7569  0.1892 -2.0875
15345TIP3    H267451   1.555   6.605   2.792 -0.9002 -1.8796  1.8030
15346TIP3   OH267452   2.431   3.987  16.286  0.8855  0.1533  0.1568
15346TIP3    H167453   2.429   4.013  16.378  1.3582 -1.6044  0.6906
15346TIP3    H267454   2.522   4.001  16.259  1.4074 -1.8447  0.7528
15347TIP3   OH267455   2.990   2.150  15.008 -0.5967 -0.1585 -0.2124
15347TIP3    H167456   2.981   2.092  15.083  1.0045 -0.5565 -0.2952
15347TIP3    H267457   2.926   2.220  15.024  0.1357  0.1077  1.8363
15348TIP3   OH267458   2.602   4.908  13.654 -0.5048 -0.3883  0.0858
15348TIP3    H167459   2.673   4.856  13.615 -1.9664 -0.8204 -2.2277
15348TIP3    H267460   2.540   4.922  13.582 -3.4402 -1.1728  2.2398
15349TIP3   OH267461   0.979   5.337  14.937 -0.0426  0.3642  0.5964
15349TIP3    H167462   1.070   5.309  14.928 -0.4006 -0.9180  0.8267
15349TIP3    H267463   0.961   5.387  14.858  0.1979 -1.3094 -0.5670
15350TIP3   OH267464   0.753   1.123   0.296 -0.1089 -0.1609 -0.0406
15350TIP3    H167465   0.824   1.188   0.296 -0.0039 -0.1595 -2.3940
15350TIP3    H267466   0.673   1.175   0.304  0.0913 -0.0806  1.6756
15351TIP3   OH267467   4.773   6.347   3.037 -0.1309 -0.1313  0.0523
15351TIP3    H167468   4.691   6.300   3.022  0.1431 -0.2063 -1.3520
15351TIP3    H267469   4.750   6.439   3.028 -0.4587 -0.0130  1.7706
15352TIP3   OH267470   0.662   4.524  16.721  0.0857  0.1801  0.5397
15352TIP3    H167471   0.609   4.604  16.718 -0.2570 -0.0441  0.4663
15352TIP3    H267472   0.750   4.554  16.743 -0.2614  0.4786  1.5942
15353TIP3   OH267473   4.780   4.671   3.880  0.1604 -0.6504 -0.0147
15353TIP3    H167474   4.751   4.580   3.873  2.9820 -1.7897  1.6153
15353TIP3    H267475   4.832   4.674   3.960  1.2848  2.0694 -0.7380
15354TIP3   OH267476   6.015   2.988   4.594  0.1505 -0.3251 -0.0623
15354TIP3    H167477   6.059   2.928   4.654 -1.1920 -1.6580 -0.3370
15354TIP3    H267478   5.944   2.936   4.556 -0.2992  1.0877 -1.2678
15355TIP3   OH267479   4.097   6.146   1.433 -0.2636 -0.0011  0.0094
15355TIP3    H167480   4.151   6.119   1.359 -1.0726 -1.0579 -0.2142
15355TIP3    H267481   4.152   6.130   1.510 -0.0691 -0.5704 -0.2458
15356TIP3   OH267482   0.157   2.213  14.504 -0.4605 -0.2497 -0.2208
15356TIP3    H167483   0.231   2.185  14.449  0.2496 -0.8661  1.0053
15356TIP3    H267484   0.152   2.147  14.573 -1.7843  0.1263  0.0670
15357TIP3   OH267485   4.156   5.462  15.742  0.2853  0.3949 -0.2694
15357TIP3    H167486   4.213   5.491  15.670 -0.2997 -0.0541 -0.9329
15357TIP3    H267487   4.211   5.404  15.795  0.3254 -0.4385 -1.1861
15358TIP3   OH267488   3.141   0.787  16.637 -0.2789 -0.3831  1.0883
15358TIP3    H167489   3.235   0.802  16.637 -0.2085 -0.7979  1.4202
15358TIP3    H267490   3.103   0.874  16.627  0.1540 -0.4296 -1.7357
15359TIP3   OH267491   1.318   3.742  13.317  0.2458  0.2321 -0.0945
15359TIP3    H167492   1.352   3.658  13.347 -0.9354 -0.1352  0.2435
15359TIP3    H267493   1.323   3.736  13.221  0.5423 -0.0615 -0.0639
15360TIP3   OH267494   0.371   6.071  10.856 -0.0974 -0.3773 -0.8759
15360TIP3    H167495   0.313   6.081  10.780  1.8069  1.9135 -2.1605
15360TIP3    H267496   0.322   6.109  10.929 -1.0166 -0.3613 -1.4916
15361TIP3   OH267497   6.768   6.648  10.547  0.5766  0.0370  0.2162
15361TIP3    H167498   6.740   6.563  10.580  0.8717 -0.3164 -0.4352
15361TIP3    H267499   6.795   6.632  10.456 -0.6165  1.0692 -0.3534
15362TIP3   OH267500   0.513   1.919   3.626 -0.1305  0.7650  0.1853
15362TIP3    H167501   0.582   1.984   3.632 -0.6935  1.4194 -0.2898
15362TIP3    H267502   0.511   1.878   3.713  2.1468 -0.6356 -0.3284
15363TIP3   OH267503   5.738   5.274  13.994  0.1636  0.2630 -0.2120
15363TIP3    H167504   5.728   5.322  13.912  1.0089  1.9364  0.6045
15363TIP3    H267505   5.821   5.228  13.986 -0.2338 -0.3846 -0.6669
15364TIP3   OH267506   3.685   6.832   5.437 -0.2671 -0.2945 -0.1201
15364TIP3    H167507   3.674   6.745   5.475 -0.9839  0.6144  1.8760
15364TIP3    H267508   3.649   6.892   5.503 -0.1785  1.4898 -1.6198
15365TIP3   OH267509   2.452   1.807  11.416  0.6193 -0.0759 -0.2592
15365TIP3    H167510   2.467   1.856  11.336 -0.7582  0.6081 -0.1255
15365TIP3    H267511   2.404   1.729  11.388  0.3194  0.0618 -0.1388
15366TIP3   OH267512   2.088   5.398  16.039  0.1592 -0.0566 -0.0343
15366TIP3    H167513   2.143   5.370  16.112  2.3934 -0.8253 -1.8570
15366TIP3    H267514   2.031   5.323  16.022  1.0640 -0.6997 -0.3231
15367TIP3   OH267515   5.572   2.690  16.270  0.2640 -0.1600 -0.8184
15367TIP3    H167516   5.479   2.669  16.256  0.0322  0.9085 -0.9790
15367TIP3    H267517   5.599   2.632  16.342 -0.9565  0.5718  0.2858
15368TIP3   OH267518   5.927   3.804   1.503 -0.4941  0.7753 -0.3968
15368TIP3    H167519   5.916   3.804   1.408 -0.4233  0.4693 -0.4063
15368TIP3    H267520   5.996   3.868   1.520  0.6315 -0.3143 -0.6880
15369TIP3   OH267521   3.775   4.531  13.906  0.2984  0.7007  0.0100
15369TIP3    H167522   3.849   4.583  13.937  1.4517  0.8743 -2.7503
15369TIP3    H267523   3.815   4.454  13.866 -1.2457 -0.9408  1.4449
15370TIP3   OH267524   2.098   5.871  10.354 -0.2319 -0.3533  0.0656
15370TIP3    H167525   2.187   5.904  10.369 -0.4758 -0.3293  1.6535
15370TIP3    H267526   2.082   5.888  10.261  1.4069 -0.3387 -0.2485
15371TIP3   OH267527   5.023   4.349  11.289 -0.3638 -0.2948 -0.1321
15371TIP3    H167528   4.944   4.313  11.329  1.1573 -0.1593  3.3204
15371TIP3    H267529   5.082   4.274  11.283  0.3461  0.2185  0.3719
15372TIP3   OH267530   6.018   4.805  11.132  0.6578  0.5832 -0.3181
15372TIP3    H167531   6.000   4.836  11.043 -0.4800  3.6433  0.8367
15372TIP3    H267532   6.101   4.846  11.155  1.1348 -0.4968 -0.0625
15373TIP3   OH267533   3.480   6.171  16.578  0.0509  0.4275 -0.2038
15373TIP3    H167534   3.562   6.209  16.548  1.1308 -1.1180  0.5888
15373TIP3    H267535   3.504   6.125  16.659 -0.9069 -2.5585 -1.4717
15374TIP3   OH267536   4.697   5.904  15.030  0.0286 -0.1311  1.1815
15374TIP3    H167537   4.743   5.987  15.026 -0.8144  0.3216  0.4213
15374TIP3    H267538   4.722   5.866  15.114  0.0066  1.1404  1.7818
15375TIP3   OH267539   1.326   6.508  13.331  0.1818 -0.4081 -0.5795
15375TIP3    H167540   1.324   6.522  13.236  2.4699  0.2757 -0.5822
15375TIP3    H267541   1.378   6.580  13.365  1.5863 -2.0137  0.8933
15376TIP3   OH267542   4.338   2.828  15.166 -0.1879 -0.4441  0.1918
15376TIP3    H167543   4.299   2.891  15.226  0.9200 -0.7053  1.2412
15376TIP3    H267544   4.396   2.775  15.221  1.0198 -0.5767 -1.1291
15377TIP3   OH267545   0.617   4.554   4.433 -0.0834 -0.0220  0.3012
15377TIP3    H167546   0.556   4.604   4.379 -3.5662 -3.3577  0.6756
15377TIP3    H267547   0.602   4.586   4.522  2.6887  2.6730 -0.0596
15378TIP3   OH267548   6.008   4.078  10.532 -0.0905  0.0147  0.1623
15378TIP3    H167549   6.016   4.157  10.478  0.0879  0.2960  0.5931
15378TIP3    H267550   6.072   4.017  10.496 -0.6678 -0.1714 -0.5741
15379TIP3   OH267551   2.005   5.042   6.337 -0.1067  0.4180  0.3848
15379TIP3    H167552   2.094   5.073   6.323 -0.1866  1.1002  1.2821
15379TIP3    H267553   1.950   5.113   6.305 -0.3879 -0.5001 -1.3302
15380TIP3   OH267554   6.577   5.938  13.318  0.3163  0.1796 -0.0541
15380TIP3    H167555   6.572   5.854  13.362  2.5439 -0.1599 -0.3174
15380TIP3    H267556   6.549   5.920  13.228 -1.4391  0.2546  0.4492
15381TIP3   OH267557   1.592   2.863  17.020  0.1592 -0.0347  0.8286
15381TIP3    H167558   1.591   2.957  17.036 -1.1752  0.3591 -1.2250
15381TIP3    H267559   1.600   2.854  16.925 -1.6187 -1.9230  0.7839
15382TIP3   OH267560   0.931   2.735   2.683 -0.1645  0.3030 -0.2816
15382TIP3    H167561   0.961   2.645   2.671  1.5160  0.8763 -0.6278
15382TIP3    H267562   1.011   2.787   2.686 -0.7818  1.3943  3.7794
15383TIP3   OH267563   2.055   3.622   4.761 -0.3263 -0.8937  0.0330
15383TIP3    H167564   2.141   3.615   4.720 -0.3897 -0.5202 -0.1751
15383TIP3    H267565   2.066   3.582   4.847  0.5377  0.7476  0.7257
15384TIP3   OH267566   0.759   3.654  10.405 -0.3905  0.4748  0.1414
15384TIP3    H167567   0.721   3.566  10.404 -1.5632  0.8925  2.3425
15384TIP3    H267568   0.715   3.699  10.333 -0.3447 -0.5026 -0.5255
15385TIP3   OH267569   1.660   6.179   1.383 -0.4837  0.1691 -0.0705
15385TIP3    H167570   1.598   6.238   1.427 -0.9324 -0.6684  0.4527
15385TIP3    H267571   1.604   6.115   1.339 -0.0614  1.1193 -2.1294
15386TIP3   OH267572   4.417   5.848  10.867  0.1084 -0.0644  0.2669
15386TIP3    H167573   4.408   5.780  10.800 -0.8439  0.8301 -0.5495
15386TIP3    H267574   4.506   5.880  10.857  1.0671 -2.1210  1.6066
15387TIP3   OH267575   4.622   4.109   2.301  0.2427 -0.3311  0.2409
15387TIP3    H167576   4.602   4.067   2.384  0.9960 -2.5031 -0.5878
15387TIP3    H267577   4.622   4.037   2.237  0.4437  1.1340 -1.5078
15388TIP3   OH267578   4.080   3.029   3.214 -0.0329  0.0760  0.9631
15388TIP3    H167579   4.129   2.970   3.271  2.0275  0.3549 -0.4453
15388TIP3    H267580   4.096   2.997   3.126 -0.3077  1.6870  0.2852
15389TIP3   OH267581   2.107   6.586   1.164 -0.2006  0.4427  0.2111
15389TIP3    H167582   2.101   6.542   1.248  2.8409  0.0921  0.3228
15389TIP3    H267583   2.075   6.521   1.101  2.2846 -1.2761  0.6021
15390TIP3   OH267584   1.503   5.577   0.933 -0.2351 -0.5985  0.0217
15390TIP3    H167585   1.498   5.482   0.945  1.6300 -0.9645 -1.5007
15390TIP3    H267586   1.509   5.588   0.838  0.2334  0.9875  0.2101
15391TIP3   OH267587   6.192   6.250  13.024  0.1871  0.1187  0.1854
15391TIP3    H167588   6.276   6.278  13.061  0.3606  0.2691 -0.3142
15391TIP3    H267589   6.143   6.217  13.099 -0.1623  2.0978  0.8845
15392TIP3   OH267590   0.647   5.908   2.997  0.5028  0.3194  0.4033
15392TIP3    H167591   0.701   5.960   2.936  1.8794  0.9811  2.0992
15392TIP3    H267592   0.673   5.817   2.980  0.2349  0.4100 -0.5628
15393TIP3   OH267593   2.540   0.204  16.428  0.4819  0.2770  0.5662
15393TIP3    H167594   2.586   0.234  16.507 -3.0818  0.8006  2.6941
15393TIP3    H267595   2.546   0.277  16.367 -0.2871  1.7061  2.1128
15394TIP3   OH267596   5.247   5.271  15.533  0.2493  0.1269 -0.0556
15394TIP3    H167597   5.168   5.323  15.518 -0.4433 -1.3720 -2.0162
15394TIP3    H267598   5.316   5.317  15.486  1.0944  2.3851  3.0352
15395TIP3   OH267599   5.741   1.757  13.221 -0.3012  0.1664  0.0396
15395TIP3    H167600   5.737   1.679  13.276  0.1186 -2.9542 -3.8517
15395TIP3    H267601   5.655   1.760  13.178  0.0869  1.1629 -0.7118
15396TIP3   OH267602   2.752   3.419  15.018 -0.1198  0.3699 -0.0422
15396TIP3    H167603   2.667   3.405  15.060 -0.5771 -1.0871 -1.3672
15396TIP3    H267604   2.736   3.403  14.925  1.5837  0.1987 -0.3333
15397TIP3   OH267605   4.104   1.389  10.087  0.2985 -0.7830  0.0001
15397TIP3    H167606   4.142   1.360  10.170 -0.0116  0.7537  0.7141
15397TIP3    H267607   4.179   1.397  10.028  0.5815 -1.4379  0.2568
15398TIP3   OH267608   1.113   1.560  13.068 -0.2301 -0.4337 -0.1100
15398TIP3    H167609   1.059   1.533  12.994 -1.1170  1.2009 -0.1102
15398TIP3    H267610   1.199   1.521  13.051 -0.6094 -0.6661 -1.6235
15399TIP3   OH267611   0.979   6.415  13.643  0.0950 -0.4576 -0.4266
15399TIP3    H167612   0.912   6.350  13.662  1.4840 -2.2831 -1.4077
15399TIP3    H267613   1.041   6.369  13.586  2.2022  1.0967  0.4691
15400TIP3   OH267614   2.936   1.809   3.120  0.2065 -0.1265 -0.2793
15400TIP3    H167615   2.928   1.801   3.215  2.5690 -1.1208 -0.1049
15400TIP3    H267616   2.886   1.734   3.086  2.0290 -1.7403  0.3885
15401TIP3   OH267617   3.427   5.733   4.357 -0.7309  0.1624 -0.2578
15401TIP3    H167618   3.448   5.667   4.291 -1.4837  0.5722 -0.9249
15401TIP3    H267619   3.413   5.682   4.437  2.3322 -0.1631  0.1757
15402TIP3   OH267620   3.237   4.698   5.220  0.0953 -0.1111 -0.1357
15402TIP3    H167621   3.259   4.746   5.300 -2.7541 -0.3265  0.9286
15402TIP3    H267622   3.196   4.617   5.252  0.0848 -0.8241 -1.8494
15403TIP3   OH267623   6.345   6.012   3.667 -0.4222  0.0831 -0.0290
15403TIP3    H167624   6.374   5.981   3.753 -1.9287  1.4440  1.0444
15403TIP3    H267625   6.381   5.949   3.605  0.8601 -0.8485  1.5776
15404TIP3   OH267626   4.601   1.507   4.620 -0.0342  0.1154  0.1942
15404TIP3    H167627   4.590   1.478   4.530  0.7754  0.3579  0.0097
15404TIP3    H267628   4.582   1.430   4.673 -1.0611  0.1188 -0.1525
15405TIP3   OH267629   4.423   4.999  11.477 -0.4292 -0.1320 -0.4331
15405TIP3    H167630   4.445   5.072  11.420 -1.4656 -0.7558 -1.7093
15405TIP3    H267631   4.343   5.027  11.522 -0.1274  0.0005  0.0245
15406TIP3   OH267632   5.938   3.473   5.279  0.0412 -0.4967 -0.0208
15406TIP3    H167633   6.024   3.440   5.303  0.3998  0.1612 -0.3967
15406TIP3    H267634   5.944   3.568   5.291 -0.4657 -0.3923 -0.5563
15407TIP3   OH267635   0.303   4.016   3.030  0.4162 -0.4264  0.1922
15407TIP3    H167636   0.287   3.947   3.096 -0.5783  1.2285  1.7693
15407TIP3    H267637   0.215   4.043   3.002  0.7391  0.8709  0.3664
15408TIP3   OH267638   0.893   6.282   3.741 -0.0356  0.7231 -0.1025
15408TIP3    H167639   0.839   6.245   3.811  1.5832  1.4287  1.6224
15408TIP3    H267640   0.836   6.344   3.697 -0.3737  2.4501  2.5144
15409TIP3   OH267641   2.435   5.158   5.174  0.0408  0.2739  0.2873
15409TIP3    H167642   2.415   5.217   5.101  0.9850  1.5492  1.0211
15409TIP3    H267643   2.382   5.080   5.157  1.6937 -0.3288 -2.8810
15410TIP3   OH267644   1.818   1.494  11.336  0.3418 -0.3951  0.4111
15410TIP3    H167645   1.826   1.445  11.419  1.3687 -0.3197  0.3643
15410TIP3    H267646   1.899   1.545  11.330  0.3963 -0.5967 -0.7729
15411TIP3   OH267647   4.953   0.295  10.677 -0.1339 -0.0357 -0.6984
15411TIP3    H167648   4.903   0.236  10.735  0.2115 -0.9075 -1.2593
15411TIP3    H267649   4.989   0.237  10.611  0.6783  0.7560 -0.9595
15412TIP3   OH267650   3.590   1.178  11.250 -0.0999 -0.5890  1.1635
15412TIP3    H167651   3.677   1.215  11.261 -0.0787 -0.4100  0.4809
15412TIP3    H267652   3.567   1.143  11.336  0.7728 -0.9162  1.2733
15413TIP3   OH267653   2.332   5.555   0.675  0.1221 -0.5982 -0.5132
15413TIP3    H167654   2.320   5.616   0.748  1.5072  1.3768 -1.8422
15413TIP3    H267655   2.413   5.508   0.697  0.3113 -0.3048 -0.5806
15414TIP3   OH267656   3.524   5.678   3.236  0.6185 -0.0883  0.1792
15414TIP3    H167657   3.464   5.733   3.186  1.0655 -0.2383 -0.5423
15414TIP3    H267658   3.507   5.700   3.327  0.7563  1.2171 -0.0925
15415TIP3   OH267659   1.159   2.056   3.672  0.1965 -0.1545 -0.2729
15415TIP3    H167660   1.250   2.078   3.691  0.5821 -0.9689 -1.0962
15415TIP3    H267661   1.129   2.010   3.750  0.5346 -0.0197 -0.0612
15416TIP3   OH267662   1.925   4.022   1.469  0.0479 -0.1899  0.3377
15416TIP3    H167663   1.833   4.019   1.444 -0.0275  2.6847 -0.0607
15416TIP3    H267664   1.940   3.939   1.513 -2.2343 -1.5168 -1.1568
15417TIP3   OH267665   5.074   5.579  11.055  0.0512 -0.4759  0.5648
15417TIP3    H167666   5.051   5.490  11.029  0.7504 -0.8622  1.2074
15417TIP3    H267667   5.063   5.580  11.150 -0.4965  0.2962  0.5031
15418TIP3   OH267668   2.480   1.253  14.243  0.5729 -0.0102 -0.1527
15418TIP3    H167669   2.402   1.288  14.286  1.5223  1.7578  0.2330
15418TIP3    H267670   2.539   1.230  14.314  1.4394  1.2228 -0.4384
15419TIP3   OH267671   6.313   0.099  13.942  0.1364 -0.7744  0.3251
15419TIP3    H167672   6.317   0.121  14.035  1.5467  0.9505 -0.0982
15419TIP3    H267673   6.229   0.135  13.913  1.4058  2.3714  0.1436
15420TIP3   OH267674   0.526   3.831   0.577 -0.3446  0.1666 -0.5575
15420TIP3    H167675   0.488   3.836   0.665 -3.3471 -1.6834 -1.6107
15420TIP3    H267676   0.558   3.741   0.570 -2.5882 -0.5999 -2.1503
15421TIP3   OH267677   3.358   0.403  13.313  0.1046  0.7409 -0.7875
15421TIP3    H167678   3.333   0.368  13.398 -1.0882 -0.5155 -1.6001
15421TIP3    H267679   3.453   0.391  13.308  0.1260  0.4735  0.2068
15422TIP3   OH267680   4.067   0.331  16.186  0.1067 -0.1770 -0.8208
15422TIP3    H167681   4.075   0.327  16.091  1.8134 -0.1761 -0.7034
15422TIP3    H267682   4.113   0.412  16.210 -1.1031  0.3130 -0.0562
15423TIP3   OH267683   5.440   0.222   5.269 -0.4961  0.4535  0.3748
15423TIP3    H167684   5.419   0.305   5.312  0.2091  1.0195 -0.3623
15423TIP3    H267685   5.429   0.157   5.338  1.5337  1.4359  1.7104
15424TIP3   OH267686   4.548   2.263  11.946 -0.1600 -0.4440  0.1017
15424TIP3    H167687   4.601   2.334  11.982 -0.2313 -0.1172 -0.4237
15424TIP3    H267688   4.577   2.254  11.855 -1.0491 -0.2008 -0.2195
15425TIP3   OH267689   2.411   2.633  11.229 -0.0197  1.0376  0.0988
15425TIP3    H167690   2.470   2.610  11.158 -0.3603  0.5092 -0.0218
15425TIP3    H267691   2.453   2.599  11.308 -1.5904 -2.2415 -0.3102
15426TIP3   OH267692   3.666   6.315   4.478 -0.1035  0.1478 -0.2344
15426TIP3    H167693   3.618   6.397   4.485  2.0566  1.4562  0.5451
15426TIP3    H267694   3.601   6.246   4.492 -1.9100  1.7376 -0.5617
15427TIP3   OH267695   1.676   2.446  13.927  0.4225 -0.0196 -0.4873
15427TIP3    H167696   1.769   2.432  13.906  0.2935  0.7658 -1.6925
15427TIP3    H267697   1.629   2.398  13.859 -0.0274  1.0357 -0.9443
15428TIP3   OH267698   2.261   6.127  10.759  0.0241  0.3582 -0.4491
15428TIP3    H167699   2.301   6.163  10.680  1.7100 -1.1142 -0.3123
15428TIP3    H267700   2.176   6.095  10.729  0.3254  0.4906 -1.5003
15429TIP3   OH267701   1.338   0.776  12.580 -0.3656  0.3816 -0.2429
15429TIP3    H167702   1.351   0.868  12.554 -4.2394  1.7213  1.6972
15429TIP3    H267703   1.244   0.763  12.573 -0.6619 -1.7525  4.3067
15430TIP3   OH267704   5.566   1.235   0.988  0.5562  0.0162  0.1186
15430TIP3    H167705   5.541   1.326   0.970 -0.1010 -0.1184  0.3515
15430TIP3    H267706   5.535   1.186   0.912 -1.0299 -0.3453  0.9734
15431TIP3   OH267707   2.435   2.576  13.899  0.3513  0.2896  0.3357
15431TIP3    H167708   2.379   2.498  13.905  0.3995  0.1666 -0.6866
15431TIP3    H267709   2.496   2.567  13.973 -0.2874 -0.1172  0.8254
15432TIP3   OH267710   6.036   3.294  16.157 -0.1946 -0.0612 -0.1716
15432TIP3    H167711   6.041   3.363  16.091 -0.4482 -0.0324 -0.1627
15432TIP3    H267712   5.967   3.322  16.217  0.7397  0.4153  0.7069
15433TIP3   OH267713   3.244   2.919   5.242 -0.3329  0.4294  0.2913
15433TIP3    H167714   3.233   2.828   5.214 -1.3971  0.4136  0.7110
15433TIP3    H267715   3.330   2.920   5.285  0.9989  0.2991 -2.2141
15434TIP3   OH267716   1.751   4.834   1.538 -0.0528 -0.3356 -0.2943
15434TIP3    H167717   1.733   4.819   1.631 -1.3605 -1.4401 -0.7080
15434TIP3    H267718   1.826   4.895   1.539 -0.6106  0.4138  1.4753
15435TIP3   OH267719   5.948   0.355   5.052  0.1837 -0.7066 -0.3297
15435TIP3    H167720   6.006   0.391   5.120  0.4259 -2.2492  0.3194
15435TIP3    H267721   5.908   0.278   5.093 -0.3572 -1.1553 -1.6458
15436TIP3   OH267722   5.831   0.773   5.162  0.0493 -0.7787  0.1858
15436TIP3    H167723   5.743   0.741   5.143 -0.0643 -0.8007  0.7298
15436TIP3    H267724   5.888   0.723   5.104 -0.1482 -1.8054  0.8535
15437TIP3   OH267725   5.647   0.161   2.435 -0.1953 -0.4221 -0.2740
15437TIP3    H167726   5.611   0.144   2.348 -1.4174 -1.8347  0.4622
15437TIP3    H267727   5.683   0.077   2.462  1.5295  0.3704  0.0151
15438TIP3   OH267728   3.107   0.975  14.292  0.2975  1.1643  0.3087
15438TIP3    H167729   3.046   0.939  14.227  1.6047 -1.1003  0.2348
15438TIP3    H267730   3.051   1.019  14.356 -1.1639  1.7203 -1.2751
15439TIP3   OH267731   5.332   4.712   0.611 -0.5759 -0.2070  0.3403
15439TIP3    H167732   5.384   4.727   0.690 -1.7611  1.1665  0.9040
15439TIP3    H267733   5.368   4.631   0.574  0.2714 -0.6769  2.0608
15440TIP3   OH267734   5.173   2.376   3.291 -0.0857  0.6940 -0.2269
15440TIP3    H167735   5.131   2.341   3.370 -1.7166 -0.3751 -1.4980
15440TIP3    H267736   5.103   2.422   3.246 -0.1426 -1.5602 -2.6858
15441TIP3   OH267737   4.834   3.909  14.014  0.2942  0.0612 -0.2341
15441TIP3    H167738   4.749   3.872  13.990 -0.5348  1.9436 -0.3819
15441TIP3    H267739   4.865   3.950  13.933  0.1609  1.4893  0.3990
15442TIP3   OH267740   6.325   6.083  15.719  0.5170  0.5632 -0.0152
15442TIP3    H167741   6.394   6.018  15.729  0.7783  0.6109 -1.2914
15442TIP3    H267742   6.332   6.138  15.796  1.6181  0.3008  0.0874
15443TIP3   OH267743   3.958   2.603  14.614 -0.8969 -0.0721  0.1054
15443TIP3    H167744   3.964   2.655  14.694  2.1034 -0.6907  0.4382
15443TIP3    H267745   4.037   2.627  14.564 -1.1709 -1.8088 -1.2829
15444TIP3   OH267746   5.352   5.889  11.524 -0.5703  0.1778 -0.2229
15444TIP3    H167747   5.345   5.906  11.430 -0.0424 -3.2701 -1.0175
15444TIP3    H267748   5.278   5.936  11.562 -1.4962  0.7256 -2.5032
15445TIP3   OH267749   5.068   4.546  14.047 -0.1127 -1.2793 -0.3796
15445TIP3    H167750   4.983   4.527  14.008  0.0548  1.2807 -2.3116
15445TIP3    H267751   5.049   4.567  14.138 -1.6927 -0.0735 -0.9421
15446TIP3   OH267752   5.458   4.183  16.157  0.2896 -0.2523 -0.1541
15446TIP3    H167753   5.499   4.106  16.117  0.8940 -0.7917  1.4439
15446TIP3    H267754   5.495   4.257  16.110 -1.4191 -0.9029 -2.7711
15447TIP3   OH267755   4.751   1.658   2.431 -0.1528  0.3458  0.1505
15447TIP3    H167756   4.697   1.647   2.509 -0.5964 -0.7635 -0.3043
15447TIP3    H267757   4.771   1.752   2.430  0.9568  0.1921  2.3019
15448TIP3   OH267758   3.838   3.446   0.298  0.3873 -0.2940 -0.1139
15448TIP3    H167759   3.745   3.438   0.317 -0.3360  0.7316 -2.7280
15448TIP3    H267760   3.860   3.366   0.252  0.7753 -0.4805  0.3913
15449TIP3   OH267761   1.716   5.542  13.344 -0.0926  0.4301 -0.0305
15449TIP3    H167762   1.712   5.446  13.344 -2.3471  0.4636  1.2472
15449TIP3    H267763   1.698   5.566  13.253 -0.2875 -0.3585 -0.2105
15450TIP3   OH267764   6.157   2.165  13.945 -0.4627  0.1895 -0.1627
15450TIP3    H167765   6.186   2.123  13.864 -1.1273 -0.1494 -0.2266
15450TIP3    H267766   6.236   2.165  14.000 -0.1938 -0.2323 -0.5353
15451TIP3   OH267767   4.404   1.982  11.339  0.0613  0.0409  0.3345
15451TIP3    H167768   4.430   1.891  11.348 -2.0650 -0.4340  3.0841
15451TIP3    H267769   4.477   2.032  11.377  1.9423 -0.2388 -2.5598
15452TIP3   OH267770   4.990   0.606  16.764  0.1241 -0.3122  0.1689
15452TIP3    H167771   4.972   0.534  16.703 -0.3844  0.4844 -0.6492
15452TIP3    H267772   4.904   0.640  16.788  0.3649  0.5180 -0.0877
15453TIP3   OH267773   6.793   5.605   5.339  0.4504 -0.5909  0.1377
15453TIP3    H167774   6.766   5.600   5.247  0.9419 -0.4439 -0.0120
15453TIP3    H267775   6.834   5.520   5.356  2.3247  0.1555 -0.3982
15454TIP3   OH267776   0.534   0.009   3.891  0.4255 -0.3273 -0.4654
15454TIP3    H167777   0.586   0.044   3.963 -0.9589 -1.9737  1.4366
15454TIP3    H267778   0.598  -0.030   3.832  1.5085 -0.3520  0.6719
15455TIP3   OH267779   6.317   1.889   2.645 -0.0189  0.2950 -0.1805
15455TIP3    H167780   6.374   1.819   2.611 -0.9718 -0.7602  0.3437
15455TIP3    H267781   6.241   1.888   2.587 -0.2148  0.6553  0.0697
15456TIP3   OH267782   1.550   5.920   2.223  0.1782  0.0150  0.1194
15456TIP3    H167783   1.597   5.862   2.283  0.8940  0.0242 -0.4187
15456TIP3    H267784   1.478   5.867   2.190  0.0850 -0.1567  0.5917
15457TIP3   OH267785   2.620   0.464  11.511  0.0168 -0.4738 -0.2685
15457TIP3    H167786   2.565   0.532  11.474  1.5048  0.1376 -1.4779
15457TIP3    H267787   2.599   0.385  11.461 -0.3563 -0.4445 -0.1560
15458TIP3   OH267788   4.663   0.932   4.019 -0.2398  0.2852 -0.2189
15458TIP3    H167789   4.722   1.003   4.044  1.2399 -0.4170 -1.5581
15458TIP3    H267790   4.611   0.916   4.098  0.9854  1.2874  0.8488
15459TIP3   OH267791   3.027   2.048   2.143  0.2657  0.2677  0.2047
15459TIP3    H167792   3.100   2.108   2.160 -0.6592  1.4093  0.2091
15459TIP3    H267793   2.965   2.064   2.213 -0.1581 -0.4595  0.0066
15460TIP3   OH267794   5.617   4.697  12.572 -0.5665 -0.1776 -0.0685
15460TIP3    H167795   5.605   4.772  12.631 -1.4999 -0.5345  0.2087
15460TIP3    H267796   5.667   4.732  12.499  2.3777 -0.1647  1.8129
15461TIP3   OH267797   3.078   5.078  16.779 -0.3871  0.0556  0.1195
15461TIP3    H167798   3.152   5.063  16.720  0.0263  0.4517  0.5214
15461TIP3    H267799   3.082   5.006  16.842  0.7043  0.9772  1.1627
15462TIP3   OH267800   3.750   4.789   0.758  0.6428 -0.1662  0.0061
15462TIP3    H167801   3.798   4.843   0.695  0.2707  0.3160  0.1344
15462TIP3    H267802   3.659   4.819   0.752  0.4172 -0.8261  0.0260
15463TIP3   OH267803   6.046   0.985  11.101 -0.1516 -0.1547 -0.2571
15463TIP3    H167804   6.057   1.023  11.014 -0.6424  0.2289 -0.1567
15463TIP3    H267805   6.135   0.975  11.135 -0.0149  2.2418  0.2792
15464TIP3   OH267806   1.223   1.160  12.970 -0.5937 -0.4926  0.3862
15464TIP3    H167807   1.315   1.154  12.992 -0.8829  1.4238  2.4489
15464TIP3    H267808   1.217   1.236  12.913 -0.7964 -1.3436 -0.7830
15465TIP3   OH267809   2.751   0.826  16.638 -0.6330 -0.5811  0.1964
15465TIP3    H167810   2.845   0.829  16.618 -0.1336  1.1147  2.4462
15465TIP3    H267811   2.739   0.742  16.682 -0.2732 -1.0118 -0.5109
15466TIP3   OH267812   5.633   0.668   2.981 -0.2666  0.2171  0.0297
15466TIP3    H167813   5.638   0.666   2.885 -1.1720 -0.2073 -0.0216
15466TIP3    H267814   5.544   0.639   3.001 -0.4670  1.3836  0.9626
15467TIP3   OH267815   3.857   4.702  11.352 -0.1138  0.2144  0.6975
15467TIP3    H167816   3.828   4.756  11.278  2.2888  0.7267  0.0436
15467TIP3    H267817   3.910   4.762  11.406 -0.2967 -0.6253  1.8391
15468TIP3   OH267818   1.953   5.971  15.888 -0.4254  0.3012  0.7436
15468TIP3    H167819   2.033   5.935  15.849  0.3539  0.8589  1.7639
15468TIP3    H267820   1.892   5.898  15.891  0.8494 -0.7601  2.0348
15469TIP3   OH267821   2.532   6.476  12.685  0.1125  0.0679 -0.2053
15469TIP3    H167822   2.576   6.519  12.758  2.8273 -1.5719 -0.7413
15469TIP3    H267823   2.499   6.394  12.723  0.7155 -0.3567 -0.5738
15470TIP3   OH267824   4.558   6.794  15.902  0.4919  0.1298  0.2279
15470TIP3    H167825   4.607   6.826  15.827  0.7090 -0.5381  0.0836
15470TIP3    H267826   4.473   6.769  15.866  1.3084 -2.2036 -0.2095
15471TIP3   OH267827   1.796   3.676  11.625  0.0751 -0.3497 -0.0270
15471TIP3    H167828   1.771   3.746  11.685 -0.6088 -0.0068 -0.6937
15471TIP3    H267829   1.740   3.603  11.650  0.2414 -0.4118  0.1649
15472TIP3   OH267830   0.377   1.292  15.749 -0.3761  0.2357  0.5687
15472TIP3    H167831   0.470   1.269  15.740 -0.4048 -0.1917  1.2871
15472TIP3    H267832   0.374   1.386  15.730 -0.0579 -0.0685 -1.0738
15473TIP3   OH267833   6.273   3.642  11.268  0.3016 -0.2614  0.5011
15473TIP3    H167834   6.336   3.572  11.253  1.0503  0.5575 -0.3756
15473TIP3    H267835   6.236   3.659  11.181  1.8907  2.0161  0.1854
15474TIP3   OH267836   3.660   2.826   3.304  0.3281 -0.4012  0.4820
15474TIP3    H167837   3.711   2.786   3.375  0.1486 -0.7066  0.4429
15474TIP3    H267838   3.583   2.770   3.295  0.4946 -0.5441 -0.1566
15475TIP3   OH267839   5.154   1.732  14.193 -0.0490  0.0326  0.2046
15475TIP3    H167840   5.062   1.708  14.191 -0.1426  0.4327 -0.5826
15475TIP3    H267841   5.155   1.827  14.183  0.5212 -0.2020 -3.0681
15476TIP3   OH267842   6.262   6.060   2.032 -0.1738 -0.2113 -0.8585
15476TIP3    H167843   6.313   6.084   2.108 -1.3551  0.7064 -0.3233
15476TIP3    H267844   6.304   6.106   1.959 -0.1655  0.4298 -0.4515
15477TIP3   OH267845   5.451   2.027  12.657  0.0304 -0.1138  0.1301
15477TIP3    H167846   5.365   1.994  12.629 -0.5871  1.4985  0.0427
15477TIP3    H267847   5.462   1.991  12.745  0.1152 -1.8322 -0.5429
15478TIP3   OH267848   1.594   4.725  12.505  0.0763  0.0648 -0.2382
15478TIP3    H167849   1.672   4.728  12.560 -0.3075  1.0404  0.2617
15478TIP3    H267850   1.563   4.815  12.501 -1.7541 -0.4802  0.6075
15479TIP3   OH267851   2.079   6.127  12.212  0.2252  0.0189 -0.2352
15479TIP3    H167852   2.131   6.053  12.183  1.1587  0.5929 -0.0649
15479TIP3    H267853   2.072   6.116  12.307  0.7357  0.3787 -0.1540
15480TIP3   OH267854   3.425   4.889   1.706  0.6783 -0.3675  0.0133
15480TIP3    H167855   3.406   4.890   1.613  1.9427 -0.3468 -0.2646
15480TIP3    H267856   3.434   4.796   1.728 -0.2443 -0.4086  0.2665
15481TIP3   OH267857   4.016   3.253   3.028  0.1573 -0.2422 -0.3815
15481TIP3    H167858   3.946   3.188   3.017 -0.1846 -0.4183  2.2250
15481TIP3    H267859   4.092   3.201   3.053 -0.3328  0.3050  2.5797
15482TIP3   OH267860   0.401   3.034   0.853 -0.1289  0.7956  0.1480
15482TIP3    H167861   0.494   3.049   0.837  0.0963  0.0470  0.6977
15482TIP3    H267862   0.383   3.078   0.936  0.0572 -0.1583  0.7140
15483TIP3   OH267863   0.173   0.163   0.619  0.7377 -1.0566  0.0135
15483TIP3    H167864   0.120   0.238   0.591  2.1489  0.0309  0.1389
15483TIP3    H267865   0.116   0.115   0.679  0.3134  0.8029  1.2091
15484TIP3   OH267866   5.177   3.976   1.437  0.2923  0.0008 -0.0599
15484TIP3    H167867   5.212   4.036   1.371 -0.6957  1.6311  0.8172
15484TIP3    H267868   5.254   3.936   1.477  0.9944  0.6216 -0.7564
15485TIP3   OH267869   3.957   4.177  11.312 -0.4372  0.6730  0.1625
15485TIP3    H167870   3.868   4.177  11.348  0.0676  2.9235  1.6228
15485TIP3    H267871   3.985   4.269  11.318  0.8496  0.6662 -3.2509
15486TIP3   OH267872   6.712   4.054   0.259  0.3975  0.4464  0.3944
15486TIP3    H167873   6.775   4.005   0.312 -0.6289 -0.4431  0.8358
15486TIP3    H267874   6.760   4.078   0.180  1.5417  0.5684  1.0956
15487TIP3   OH267875   2.307   3.168   0.108 -0.2139  0.7976 -0.0001
15487TIP3    H167876   2.307   3.218   0.027 -0.2254  0.9269  0.0801
15487TIP3    H267877   2.329   3.079   0.081  2.2323  1.3005  0.1624
15488TIP3   OH267878   1.801   4.825  14.047  0.5973 -0.8212 -0.2455
15488TIP3    H167879   1.762   4.880  14.115  0.5380 -0.4379 -0.5926
15488TIP3    H267880   1.727   4.794  13.995  0.7684  0.2728 -1.1832
15489TIP3   OH267881   5.052   2.911  10.839  0.2055 -0.3642  0.3464
15489TIP3    H167882   4.987   2.961  10.791  0.1638 -1.7437 -1.0948
15489TIP3    H267883   5.003   2.869  10.910 -0.1041  0.1529  0.4374
15490TIP3   OH267884   3.046   3.589   0.925  0.0597 -0.3072 -0.1377
15490TIP3    H167885   2.963   3.540   0.933 -2.6759  3.1489 -3.3818
15490TIP3    H267886   3.087   3.551   0.847 -0.1396  0.0307 -0.4115
15491TIP3   OH267887   5.224   2.507   1.744 -0.5534 -0.4711 -0.1500
15491TIP3    H167888   5.250   2.435   1.686  0.3785 -1.6499  1.6481
15491TIP3    H267889   5.130   2.495   1.757 -0.3525 -1.5915  0.3827
15492TIP3   OH267890   3.786   0.464   1.403 -0.1604 -0.2175  0.1593
15492TIP3    H167891   3.788   0.523   1.478  1.8222 -1.3909  1.1239
15492TIP3    H267892   3.703   0.417   1.411 -0.6009  0.6507  0.8134
15493TIP3   OH267893   3.585   4.259   6.017  0.4235  0.2764  0.2648
15493TIP3    H167894   3.552   4.170   6.030  0.5280 -0.0989 -1.7654
15493TIP3    H267895   3.534   4.293   5.944  0.9455  1.6057  0.4901
15494TIP3   OH267896   2.604   5.322  11.586 -0.0429  0.4949  0.5752
15494TIP3    H167897   2.650   5.392  11.631  0.9738  0.7102 -0.7526
15494TIP3    H267898   2.529   5.303  11.642  0.1400  2.0352  1.3936
15495TIP3   OH267899   2.138   4.040  15.422  0.3576 -0.2963 -0.6949
15495TIP3    H167900   2.070   4.035  15.489  1.8925  0.0974  0.9801
15495TIP3    H267901   2.091   4.055  15.340 -1.5355  0.1695  0.4346
15496TIP3   OH267902   0.757   3.027   5.236  1.1895  0.1877 -0.1588
15496TIP3    H167903   0.739   2.979   5.318 -1.2843  1.0085 -0.1494
15496TIP3    H267904   0.833   2.982   5.199  2.4077 -0.2333  2.5467
15497TIP3   OH267905   0.181   0.814   1.970  0.3062  0.0328 -0.3463
15497TIP3    H167906   0.179   0.722   1.942 -0.2661 -0.2427  0.5509
15497TIP3    H267907   0.108   0.855   1.924 -1.6269 -0.7734  1.8048
15498TIP3   OH267908   0.963   3.166   2.247  0.0293 -0.3671  0.0293
15498TIP3    H167909   0.894   3.155   2.181 -0.4897  0.1388  0.4857
15498TIP3    H267910   1.002   3.251   2.226 -2.1700  1.3196  2.1980
15499TIP3   OH267911   0.606   4.648  15.000 -0.7018 -0.0927  0.1011
15499TIP3    H167912   0.512   4.650  15.019 -0.7787  0.0481 -0.2912
15499TIP3    H267913   0.611   4.657  14.905 -0.4168 -2.5853 -0.1907
15500TIP3   OH267914   1.397   4.570  15.691 -0.3344 -0.6584  0.3138
15500TIP3    H167915   1.424   4.606  15.775 -1.5077 -0.3801  0.5932
15500TIP3    H267916   1.391   4.646  15.633 -1.3927 -0.5714  0.5124
15501TIP3   OH267917   2.016   6.626   5.205 -0.2886 -0.3918 -0.5500
15501TIP3    H167918   1.947   6.607   5.142  1.3454 -2.3758 -1.9258
15501TIP3    H267919   1.975   6.614   5.290 -1.3258 -3.2013 -1.3239
15502TIP3   OH267920   1.449   0.074  11.766  0.2125 -0.8120  0.3386
15502TIP3    H167921   1.354   0.076  11.777 -0.0480 -0.0674 -1.6112
15502TIP3    H267922   1.479   0.004  11.824 -1.6375 -1.7235  0.2599
15503TIP3   OH267923   4.556   5.385   1.129 -0.3961  0.4693  0.4777
15503TIP3    H167924   4.543   5.337   1.047 -1.0303  0.9187  0.3101
15503TIP3    H267925   4.514   5.330   1.195  1.0466 -0.4257  0.6875
15504TIP3   OH267926   0.301   1.936  14.400  0.1095 -0.7797  0.6301
15504TIP3    H167927   0.296   1.956  14.307 -1.2817 -0.2629  0.7968
15504TIP3    H267928   0.338   1.848  14.403  0.2112 -0.7856 -0.4043
15505TIP3   OH267929   5.418   1.405  15.545 -0.4070 -0.6049 -0.5117
15505TIP3    H167930   5.399   1.327  15.596 -0.8509 -0.3083 -0.2135
15505TIP3    H267931   5.507   1.392  15.513  0.0908 -0.5510  0.7919
15506TIP3   OH267932   6.165   5.354  11.965  0.0614 -0.1955  0.2680
15506TIP3    H167933   6.160   5.439  11.921 -0.4155 -0.6317 -0.5507
15506TIP3    H267934   6.224   5.369  12.039 -0.5562  1.0189  0.5438
15507TIP3   OH267935   0.076   6.285  14.218 -0.7664  0.8298  0.0111
15507TIP3    H167936   0.172   6.279  14.223 -0.8188 -2.9836 -0.6137
15507TIP3    H267937   0.050   6.312  14.306  0.8615 -0.0663  0.8275
15508TIP3   OH267938   6.445   5.989  11.876 -0.2953  0.3581 -0.4678
15508TIP3    H167939   6.400   5.909  11.852  1.5605 -0.9140  0.0671
15508TIP3    H267940   6.421   6.004  11.968 -0.3665  0.2200 -0.4648
15509TIP3   OH267941   2.708   3.774  16.175 -0.2254  0.2022  0.6702
15509TIP3    H167942   2.728   3.707  16.241 -0.5361 -0.1615  0.4014
15509TIP3    H267943   2.697   3.725  16.094  0.1447  0.6497  0.3487
15510TIP3   OH267944   3.750   1.905  12.647 -0.2922 -0.3302  0.5027
15510TIP3    H167945   3.687   1.880  12.579 -0.9289 -0.0038  0.9579
15510TIP3    H267946   3.697   1.951  12.712  0.7624  2.0099 -0.1701
15511TIP3   OH267947   3.401   3.650  15.543  0.3872 -0.1732  0.6312
15511TIP3    H167948   3.354   3.580  15.589  0.9109 -0.1167  1.2802
15511TIP3    H267949   3.338   3.721  15.535  0.1885 -0.3111  0.9738
15512TIP3   OH267950   6.556   2.132  16.765 -0.0282 -0.2983  0.1087
15512TIP3    H167951   6.562   2.226  16.749 -0.8963 -0.1804  0.4553
15512TIP3    H267952   6.634   2.112  16.818 -0.5091  0.4596  1.1288
15513TIP3   OH267953   1.832   5.863  14.746 -0.9840 -0.2064  0.5479
15513TIP3    H167954   1.859   5.923  14.676 -2.6794  1.4073  1.2007
15513TIP3    H267955   1.739   5.849  14.731 -0.6714 -2.6251  0.5187
15514TIP3   OH267956   1.914   3.900   0.205  0.3510 -0.2543  0.4597
15514TIP3    H167957   1.917   3.862   0.292  3.2794  0.3160  0.7179
15514TIP3    H267958   1.911   3.995   0.219 -0.6368 -0.1829 -0.1054
15515TIP3   OH267959   6.773   0.783   4.907  0.1280 -0.2800 -0.3119
15515TIP3    H167960   6.705   0.729   4.948 -0.6076 -0.6277 -1.9193
15515TIP3    H267961   6.836   0.720   4.873  2.0700  0.0622  2.3673
15516TIP3   OH267962   2.511   4.431   2.256  0.5977 -0.3318  0.1209
15516TIP3    H167963   2.532   4.489   2.182  1.4601 -0.6717  0.0846
15516TIP3    H267964   2.596   4.407   2.292  0.2157 -0.9083  0.6543
15517TIP3   OH267965   4.371   2.139   5.406  0.1873  0.3797 -0.3225
15517TIP3    H167966   4.401   2.148   5.497 -0.1754  0.2048 -0.1845
15517TIP3    H267967   4.450   2.155   5.354  0.1976  1.4466 -0.0101
15518TIP3   OH267968   3.110   1.649   6.201 -0.1824  0.4071  0.4427
15518TIP3    H167969   3.070   1.644   6.288 -2.0334 -0.9871 -0.4102
15518TIP3    H267970   3.193   1.602   6.210  0.4409  1.6936  1.8156
15519TIP3   OH267971   4.277   4.389   4.322 -0.4257 -0.0107 -0.4711
15519TIP3    H167972   4.318   4.428   4.400 -0.0743 -0.7805 -0.2593
15519TIP3    H267973   4.222   4.319   4.356 -0.0700 -0.5226 -0.9232
15520TIP3   OH267974   2.057   3.395  15.347  0.7279  0.1288  0.5385
15520TIP3    H167975   2.081   3.417  15.437  1.5724 -0.5204  0.4813
15520TIP3    H267976   1.977   3.446  15.330  2.0584  2.4163  0.7235
15521TIP3   OH267977   0.911   1.661   3.093  0.3009 -0.3207  0.1030
15521TIP3    H167978   0.946   1.708   3.169 -2.0029 -0.8989  1.6256
15521TIP3    H267979   0.865   1.728   3.042 -1.0480 -0.4739  1.0702
15522TIP3   OH267980   0.088   4.942   5.236 -0.5913 -0.1829 -0.1432
15522TIP3    H167981   0.131   4.857   5.240  1.7666  0.9657  3.2588
15522TIP3    H267982  -0.001   4.925   5.269  0.3005 -1.1959  1.9486
15523TIP3   OH267983   4.195   4.956  12.959  0.6367  0.3382  0.2906
15523TIP3    H167984   4.189   5.048  12.986  2.5360  0.6359 -0.1439
15523TIP3    H267985   4.154   4.907  13.030 -3.3514  1.6039 -0.8515
15524TIP3   OH267986   4.933   2.113   4.775 -0.2107  0.1769 -0.5067
15524TIP3    H167987   4.860   2.105   4.714  0.4830 -0.6425 -1.2569
15524TIP3    H267988   4.985   2.034   4.762 -0.4888 -0.4622  1.7830
15525TIP3   OH267989   3.100   3.473   0.195 -0.5596  0.5245 -0.1551
15525TIP3    H167990   3.113   3.393   0.144 -2.4673 -1.5789  2.3202
15525TIP3    H267991   3.170   3.531   0.167  0.6784 -1.8207 -2.4276
15526TIP3   OH267992   6.512   6.641   4.286  0.3901  0.1888  0.3878
15526TIP3    H167993   6.430   6.662   4.330 -0.4871 -1.1322 -0.5306
15526TIP3    H267994   6.562   6.591   4.351  0.2629  0.5661  0.7819
15527TIP3   OH267995   1.896   3.787   2.983  0.2618  0.2858 -0.2881
15527TIP3    H167996   1.902   3.879   2.960 -0.8335  0.3556 -0.3166
15527TIP3    H267997   1.928   3.740   2.905 -2.5371  0.5442 -1.7014
15528TIP3   OH267998   3.907   6.618  15.863 -0.2445  0.5289 -0.3598
15528TIP3    H167999   3.901   6.703  15.819  2.3442  1.1669  0.3638
15528TIP3    H268000   3.897   6.639  15.956  2.7145  0.4918  0.0668
15529TIP3   OH268001   5.388   0.097  11.949 -0.3663  0.5202  0.5212
15529TIP3    H168002   5.460   0.057  11.997 -0.8605  0.0894  0.9089
15529TIP3    H268003   5.326   0.026  11.935  0.1285  0.4014 -1.5194
15530TIP3   OH268004   5.545   6.015  13.765 -0.1075 -0.0844  0.1169
15530TIP3    H168005   5.552   6.092  13.709 -0.5400 -0.4528 -0.4635
15530TIP3    H268006   5.558   5.941  13.706 -0.9743 -0.4965  0.4183
15531TIP3   OH268007   0.700   2.431   0.071  0.2393  0.2010 -0.2013
15531TIP3    H168008   0.767   2.401   0.133 -0.0054 -0.4770 -0.2646
15531TIP3    H268009   0.691   2.360   0.008 -0.3518  0.4014 -0.3510
15532TIP3   OH268010   4.971   3.364   1.958  0.3509 -0.1591  0.0120
15532TIP3    H168011   4.977   3.351   1.863 -1.2722  0.2551 -0.1675
15532TIP3    H268012   5.038   3.430   1.977 -0.0210  0.5409 -1.0181
15533TIP3   OH268013   6.149   5.291   2.469 -0.3714  0.7528 -0.2492
15533TIP3    H168014   6.156   5.255   2.381  0.0953  3.1585 -1.2631
15533TIP3    H268015   6.238   5.292   2.503 -0.6959 -1.4390  0.8790
15534TIP3   OH268016   6.350   2.287   3.682  0.5985  0.4659 -0.0287
15534TIP3    H168017   6.314   2.315   3.598  0.0768  0.6970  0.2695
15534TIP3    H268018   6.274   2.275   3.738  0.7733 -1.7116 -0.1622
15535TIP3   OH268019   4.193   3.385  16.526  0.0235 -0.0193 -0.0221
15535TIP3    H168020   4.240   3.468  16.527 -1.3293  0.8456  2.9963
15535TIP3    H268021   4.243   3.328  16.584  0.0152 -0.8034 -0.7502
15536TIP3   OH268022   4.347   6.763  13.338  0.1092 -0.0677  0.1597
15536TIP3    H168023   4.290   6.729  13.269  0.9086 -4.3737  1.2785
15536TIP3    H268024   4.435   6.759  13.301  0.1691  2.4859 -0.1359
15537TIP3   OH268025   2.197   4.498   3.701 -0.8660 -0.0504 -0.0660
15537TIP3    H168026   2.163   4.436   3.637 -0.9190  0.8591 -0.9341
15537TIP3    H268027   2.255   4.446   3.757 -0.4300 -0.7534 -1.1497
15538TIP3   OH268028   5.455   3.266   5.136  0.8686 -0.1188 -0.2094
15538TIP3    H168029   5.363   3.279   5.113  1.0103  0.6373 -0.3814
15538TIP3    H268030   5.490   3.213   5.066  1.0639  1.3567 -1.2706
15539TIP3   OH268031   6.408   1.252  12.610  0.2774 -0.0907  0.2496
15539TIP3    H168032   6.452   1.170  12.587 -0.3348 -0.9200  1.8811
15539TIP3    H268033   6.435   1.270  12.699 -0.0171  1.2240  0.1006
15540TIP3   OH268034   4.021   4.288   3.432 -0.2311  0.4963 -0.3591
15540TIP3    H168035   4.099   4.327   3.392  0.0543  1.4060  1.0348
15540TIP3    H268036   4.005   4.340   3.510 -1.6292 -0.3436 -0.0473
15541TIP3   OH268037   2.243   0.503   5.397  0.5758  0.7188 -0.1201
15541TIP3    H168038   2.188   0.525   5.322  1.0299  3.0738  0.1444
15541TIP3    H268039   2.188   0.521   5.473  0.2273 -1.3432  0.1606
15542TIP3   OH268040   1.141   4.307  16.522  0.7853  0.2527  0.1611
15542TIP3    H168041   1.209   4.368  16.495  1.3286  0.4981  1.9511
15542TIP3    H268042   1.189   4.231  16.556  0.1357 -0.3938 -0.3247
15543TIP3   OH268043   0.876   6.371   3.083  0.1857  0.3050 -0.0207
15543TIP3    H168044   0.962   6.408   3.065  0.0667  1.1783  1.0981
15543TIP3    H268045   0.818   6.414   3.020  0.0352  2.1903  1.2988
15544TIP3   OH268046   1.780   4.672  17.022  0.1189 -0.0536 -0.2387
15544TIP3    H168047   1.859   4.623  17.001 -0.9796 -1.6285 -0.9089
15544TIP3    H268048   1.760   4.721  16.942  1.8354  2.5518  0.7740
15545TIP3   OH268049   6.779   1.200  11.123  0.1269 -0.0485  0.1171
15545TIP3    H168050   6.821   1.246  11.196  0.1863 -1.2317  0.8504
15545TIP3    H268051   6.833   1.223  11.046  0.7856  0.2400  0.6529
15546TIP3   OH268052   2.564   3.190   1.582 -0.2019  0.7161  0.1021
15546TIP3    H168053   2.624   3.151   1.645  1.2438 -0.6352 -1.9875
15546TIP3    H268054   2.481   3.144   1.596  0.7557 -1.2994 -0.5136
15547TIP3   OH268055   1.204   4.439  15.907 -0.5347  0.4338  0.4165
15547TIP3    H168056   1.276   4.440  15.844 -2.4801  2.6302 -2.0059
15547TIP3    H268057   1.160   4.356  15.893 -0.2215  0.3755 -0.2725
15548TIP3   OH268058   0.504   5.821  12.422 -0.1218  0.2006 -0.1842
15548TIP3    H168059   0.545   5.740  12.391  0.4371 -0.5141  2.2229
15548TIP3    H268060   0.478   5.867  12.342  1.7150 -1.2223 -1.6807
15549TIP3   OH268061   2.104   6.613  12.588 -0.5888 -0.2099 -0.4934
15549TIP3    H168062   2.103   6.653  12.501 -0.4503  0.1667 -0.3235
15549TIP3    H268063   2.178   6.654  12.633 -1.2876  0.3623  0.1552
15550TIP3   OH268064   5.114   5.530   0.481  0.7188 -0.6200  0.1691
15550TIP3    H168065   5.136   5.437   0.478  0.7338 -0.7141  1.9995
15550TIP3    H268066   5.142   5.565   0.396 -0.0210 -2.4172 -0.8672
15551TIP3   OH268067   5.493   5.574  16.999 -0.3332  0.2191 -0.4037
15551TIP3    H168068   5.567   5.594  17.057 -1.7432  0.2572  1.4743
15551TIP3    H268069   5.461   5.489  17.029 -0.4199 -0.3009 -1.9021
15552TIP3   OH268070   1.757   4.529   4.869 -0.3715  0.0504  0.1691
15552TIP3    H168071   1.747   4.531   4.774 -1.1106  0.3956  0.2523
15552TIP3    H268072   1.741   4.438   4.893  0.2463 -0.1281 -0.0792
15553TIP3   OH268073   0.447   4.214  15.031 -0.1977 -0.2966  0.1967
15553TIP3    H168074   0.478   4.205  15.121  2.2483  0.4743 -0.4988
15553TIP3    H268075   0.516   4.176  14.977 -0.5309  1.2795 -1.4482
15554TIP3   OH268076   5.325   2.327   6.093 -0.4097 -0.4917  0.1805
15554TIP3    H168077   5.392   2.334   6.024  0.3553  0.0724  0.9640
15554TIP3    H268078   5.254   2.278   6.052  1.1118 -2.4900 -0.2032
15555TIP3   OH268079   5.214   5.526  15.983 -0.1647  0.4687  0.7022
15555TIP3    H168080   5.295   5.566  16.016  2.5127 -2.7829 -1.2737
15555TIP3    H268081   5.215   5.438  16.020 -1.6208 -0.3764 -1.1224
15556TIP3   OH268082   6.297   5.268   2.045 -0.1259 -0.2914 -0.3727
15556TIP3    H168083   6.351   5.196   2.078  0.0538 -0.1359 -0.3231
15556TIP3    H268084   6.246   5.296   2.121  0.1083 -0.0942 -0.2866
15557TIP3   OH268085   5.703   0.510   5.082 -0.3554 -0.0895  0.2866
15557TIP3    H168086   5.772   0.445   5.071 -0.2538 -0.2822  1.9416
15557TIP3    H268087   5.677   0.532   4.992  0.7329 -1.1950 -0.3267
15558TIP3   OH268088   0.087   3.308  15.445 -0.9934 -0.1612  0.4056
15558TIP3    H168089   0.117   3.388  15.490 -1.0224 -0.1812  0.4600
15558TIP3    H268090   0.002   3.332  15.409 -0.4803  0.2249 -0.6105
15559TIP3   OH268091   1.024   3.847  13.849 -0.4905 -0.7338 -0.0559
15559TIP3    H168092   0.957   3.845  13.780  1.4290 -1.2430 -2.0176
15559TIP3    H268093   1.044   3.940  13.861  0.7198 -0.7384 -1.8271
15560TIP3   OH268094   6.244   3.868  14.185 -0.5387  0.1129 -0.6239
15560TIP3    H168095   6.326   3.839  14.146  0.1715  1.3903 -0.1206
15560TIP3    H268096   6.225   3.802  14.252 -0.1264 -0.3858 -0.9880
15561TIP3   OH268097   4.221   0.347   0.350  0.3684  0.0285  0.4139
15561TIP3    H168098   4.192   0.363   0.260  1.4842 -0.0844  0.0130
15561TIP3    H268099   4.207   0.253   0.363 -1.3604  0.3215  0.9704
15562TIP3   OH268100   1.869   2.614  11.204 -0.0923 -0.2742  0.6116
15562TIP3    H168101   1.951   2.567  11.219  0.1990  0.0207  0.0081
15562TIP3    H268102   1.822   2.558  11.142  0.1966  0.1535 -0.0028
15563TIP3   OH268103   1.018   5.304  15.349 -0.9478  0.1601 -0.1256
15563TIP3    H168104   1.070   5.254  15.412 -1.3456 -0.9123 -0.6282
15563TIP3    H268105   1.074   5.379  15.326 -0.3465 -0.0430  0.6407
15564TIP3   OH268106   0.954   0.101   2.994 -0.3154  0.2312  0.5002
15564TIP3    H168107   1.048   0.088   2.979 -0.0680  1.0613  1.2240
15564TIP3    H268108   0.923   0.146   2.915  0.1302  0.9217  0.7023
15565TIP3   OH268109   4.723   0.376   2.238  0.5720  0.4375  0.7927
15565TIP3    H168110   4.807   0.421   2.230  0.2813  0.9054  0.2404
15565TIP3    H268111   4.690   0.371   2.148 -0.2374  0.7480  1.0619
15566TIP3   OH268112   0.913   0.632  16.473 -0.0059  0.2792 -0.2947
15566TIP3    H168113   0.888   0.566  16.538 -0.4197  1.8697  1.2314
15566TIP3    H268114   0.964   0.584  16.408 -0.3274 -1.5386  0.7378
15567TIP3   OH268115   6.639   0.656  14.740  0.6960  0.7140  0.4950
15567TIP3    H168116   6.652   0.572  14.697  0.5155  0.2406  1.3296
15567TIP3    H268117   6.661   0.639  14.832  1.2139  1.7251  0.5706
15568TIP3   OH268118   2.824   0.527   5.843 -0.0421 -0.3888  0.3636
15568TIP3    H168119   2.823   0.432   5.857  0.7555 -1.1387 -3.6097
15568TIP3    H268120   2.913   0.554   5.865  1.1047 -1.4587 -2.5043
15569TIP3   OH268121   2.400   1.756   3.259  0.2411  0.3473 -0.0945
15569TIP3    H168122   2.399   1.768   3.165  0.9668  2.5552  0.1306
15569TIP3    H268123   2.464   1.687   3.274  0.6044  0.4327 -1.1781
15570TIP3   OH268124   5.164   4.697  10.601  0.5521 -0.4870  0.1204
15570TIP3    H168125   5.175   4.767  10.536 -0.9449  0.0277  0.3704
15570TIP3    H268126   5.194   4.618  10.557  0.5516  0.0304 -0.8300
15571TIP3   OH268127   1.566   4.913  11.020  0.4959 -0.2511  0.1036
15571TIP3    H168128   1.518   4.840  10.981  0.6420 -1.2298  1.6673
15571TIP3    H268129   1.498   4.977  11.044  0.4717  0.9180 -2.6406
15572TIP3   OH268130   0.209   5.469  13.049 -0.4215  0.6928  0.3264
15572TIP3    H168131   0.269   5.452  12.977 -0.3780  2.6849 -0.1694
15572TIP3    H268132   0.138   5.520  13.009 -0.6070  1.4621  1.5784
15573TIP3   OH268133   6.257   0.646   4.205 -0.2362  0.6844  0.0503
15573TIP3    H168134   6.312   0.576   4.241 -0.0145  0.8180 -0.0232
15573TIP3    H268135   6.320   0.715   4.181 -0.2946  0.2465 -1.4132
15574TIP3   OH268136   1.260   1.148  14.149 -0.1116  0.0127 -0.2382
15574TIP3    H168137   1.215   1.146  14.233  0.2234 -0.7219 -0.0657
15574TIP3    H268138   1.220   1.221  14.101  0.9153  1.6136  1.2282
15575TIP3   OH268139   2.292   4.751   3.717 -0.0451  0.5317 -0.1106
15575TIP3    H168140   2.354   4.705   3.661 -0.0887 -0.0140  0.2744
15575TIP3    H268141   2.228   4.684   3.742 -1.1306  1.2055 -0.9597
15576TIP3   OH268142   2.583   3.862   2.672 -0.0180 -0.7044 -0.2593
15576TIP3    H168143   2.608   3.904   2.755  4.1350 -2.6295 -0.2396
15576TIP3    H268144   2.538   3.930   2.623 -0.6753  1.1904  2.6946
15577TIP3   OH268145   0.500   0.236  10.091  0.1792 -0.3250 -0.0735
15577TIP3    H168146   0.463   0.312  10.136  0.6529 -0.4707  0.5738
15577TIP3    H268147   0.565   0.274  10.031  1.3443 -0.2760  1.1661
15578TIP3   OH268148   6.104   2.550  11.484  0.3508 -0.5366 -0.2523
15578TIP3    H168149   6.119   2.553  11.578  2.2966  0.5837 -0.5613
15578TIP3    H268150   6.033   2.486  11.473  1.0190 -1.7192  1.8443
15579TIP3   OH268151   2.171   1.018   4.577 -0.4201  0.1483 -0.2382
15579TIP3    H168152   2.170   0.937   4.525 -3.1116 -0.0549 -0.0138
15579TIP3    H268153   2.126   1.082   4.523  1.8056  1.6241 -0.4700
15580TIP3   OH268154   3.496   4.622   1.741  0.6524  0.3054 -0.5808
15580TIP3    H168155   3.584   4.638   1.706 -0.4100  0.9477 -3.2354
15580TIP3    H268156   3.451   4.575   1.671 -0.3713 -2.4891  1.7914
15581TIP3   OH268157   3.100   3.753  16.636 -0.2034 -0.1543  0.2698
15581TIP3    H168158   3.041   3.679  16.652  3.0329 -2.3791  3.8732
15581TIP3    H268159   3.081   3.813  16.708  0.2862  0.2717  0.0417
15582TIP3   OH268160   2.973   6.723   4.976 -0.0285 -0.0300  0.5077
15582TIP3    H168161   2.960   6.670   4.898 -0.5772  1.4323 -0.4327
15582TIP3    H268162   2.964   6.661   5.049 -0.3539 -1.2624 -0.5469
15583TIP3   OH268163   5.428   6.578   5.606  0.5151 -0.0016  0.5112
15583TIP3    H168164   5.512   6.618   5.630 -0.8464  3.2179  0.4007
15583TIP3    H268165   5.440   6.551   5.515  1.4402  0.3080  0.5251
15584TIP3   OH268166   2.600   6.218  11.387 -0.0488  0.4548  0.0566
15584TIP3    H168167   2.643   6.292  11.345  1.9826 -0.7676 -0.1486
15584TIP3    H268168   2.635   6.216  11.476  0.1264 -0.3952 -0.0214
15585TIP3   OH268169   6.087   4.197   3.997 -0.2244  0.0003 -0.2371
15585TIP3    H168170   6.095   4.205   4.092  0.7086  0.5674 -0.3498
15585TIP3    H268171   6.011   4.250   3.974 -0.7279 -0.5102  0.2360
15586TIP3   OH268172   6.165   1.877   1.842  0.4736  0.8481  0.5181
15586TIP3    H168173   6.142   1.969   1.829  1.0578  0.8825 -0.4213
15586TIP3    H268174   6.165   1.865   1.937  0.2300  1.7728  0.6466
15587TIP3   OH268175   0.447   3.768  15.376 -0.8826 -0.0659  0.1706
15587TIP3    H168176   0.462   3.851  15.420  0.3758 -0.5445  0.6970
15587TIP3    H268177   0.519   3.761  15.312 -0.8384 -0.8327  0.2866
15588TIP3   OH268178   3.154   0.372   0.590  0.1312 -0.0935 -0.2502
15588TIP3    H168179   3.135   0.461   0.617  0.6725  0.0953 -0.4872
15588TIP3    H268180   3.077   0.322   0.617 -0.3833  0.5277 -0.5350
15589TIP3   OH268181   1.138   0.019   4.082 -0.1875 -0.2179  0.0583
15589TIP3    H168182   1.098  -0.062   4.114  2.8116 -1.0480  2.2121
15589TIP3    H268183   1.142   0.076   4.159  1.1701  0.4658 -0.4828
15590TIP3   OH268184   5.140   1.655  16.521  0.7755 -0.1325  0.3784
15590TIP3    H168185   5.215   1.650  16.581  0.6652 -1.3086  0.4342
15590TIP3    H268186   5.142   1.572  16.474 -0.4581 -0.1425  0.3328
15591TIP3   OH268187   5.337   2.103  11.938  0.1991 -0.3723 -0.0743
15591TIP3    H168188   5.276   2.054  11.882  1.6904 -0.6130 -1.5592
15591TIP3    H268189   5.297   2.100  12.025 -1.9509 -0.4352 -0.9951
15592TIP3   OH268190   0.398   4.017  16.284  0.0074  0.0336 -0.3419
15592TIP3    H168191   0.386   3.941  16.227  1.1911 -0.2155 -0.2848
15592TIP3    H268192   0.401   4.091  16.224 -0.1917 -0.0664 -0.4780
15593TIP3   OH268193   4.208   1.960   1.693 -0.3452 -0.3980  0.2115
15593TIP3    H168194   4.217   1.868   1.670 -0.6008 -0.2060 -0.6921
15593TIP3    H268195   4.118   1.982   1.670  0.0523  0.3654 -0.6885
15594TIP3   OH268196   2.474   1.202  12.274  0.0158 -0.1412  0.2524
15594TIP3    H168197   2.400   1.262  12.287  1.0625  1.3019 -0.1685
15594TIP3    H268198   2.437   1.129  12.224 -0.6570  1.6992 -2.1291
15595TIP3   OH268199   5.426   1.944   4.377  0.9160  0.4336 -0.0118
15595TIP3    H168200   5.465   2.019   4.330 -0.8734 -0.3094 -2.9523
15595TIP3    H268201   5.348   1.922   4.326  1.2140 -3.2783  0.8800
15596TIP3   OH268202   0.134   6.535   3.242  0.3647 -0.3407 -0.2622
15596TIP3    H168203   0.088   6.548   3.325  0.9924  0.6617 -0.0469
15596TIP3    H268204   0.226   6.523   3.267  0.4230 -0.9469 -0.7592
15597TIP3   OH268205   2.346   1.006  14.748  0.2994 -0.7539 -0.7872
15597TIP3    H168206   2.363   0.924  14.796 -0.4641 -0.2873  0.3264
15597TIP3    H268207   2.258   0.995  14.712  0.5329 -0.7538 -1.3698
15598TIP3   OH268208   0.386   0.035   1.372 -0.4292  0.2076  0.1895
15598TIP3    H168209   0.394  -0.036   1.436 -0.4206  0.9121  0.9848
15598TIP3    H268210   0.438   0.106   1.408 -0.8848  0.8148 -0.3249
15599TIP3   OH268211   5.108   2.616   3.096  0.0251  0.4323  0.1363
15599TIP3    H168212   5.144   2.682   3.036  1.3088 -0.0517  0.3258
15599TIP3    H268213   5.047   2.566   3.042 -0.6264  1.4829 -0.1260
15600TIP3   OH268214   4.463   2.097  16.653 -0.3762  0.0108  0.3289
15600TIP3    H168215   4.401   2.159  16.692  0.8358  2.0274 -0.8140
15600TIP3    H268216   4.442   2.097  16.560 -0.2334 -1.1978  0.2774
15601TIP3   OH268217   1.406   4.210  12.074 -0.3098  0.0626  0.1343
15601TIP3    H168218   1.431   4.302  12.086 -1.0061  0.0573  1.9514
15601TIP3    H268219   1.489   4.163  12.072  0.1751  0.8239 -2.5826
15602TIP3   OH268220   4.332   1.922   2.433  0.1957  0.3158 -0.0836
15602TIP3    H168221   4.341   1.843   2.381 -2.5063 -0.2316  0.1313
15602TIP3    H268222   4.357   1.993   2.374  0.5107 -0.5234 -0.9801
15603TIP3   OH268223   3.398   4.921   2.329  0.5080  0.1495  0.2966
15603TIP3    H168224   3.335   4.921   2.401 -0.7377  0.2013 -0.7497
15603TIP3    H268225   3.457   4.848   2.348 -0.1492 -0.1899  1.0723
15604TIP3   OH268226   5.364   2.320   3.587  0.0985  0.5821  0.3184
15604TIP3    H168227   5.401   2.235   3.562 -0.7402  0.1052  0.6692
15604TIP3    H268228   5.388   2.378   3.515  0.7077  0.0528  0.0895
15605TIP3   OH268229   4.211   5.124  12.695  0.1563  0.4507 -0.1246
15605TIP3    H168230   4.117   5.139  12.697 -0.4300 -2.5391 -0.5458
15605TIP3    H268231   4.244   5.185  12.629 -1.8820 -0.2154 -1.8402
15606TIP3   OH268232   0.243   1.561  11.295  0.2403 -0.0703 -0.0695
15606TIP3    H168233   0.190   1.639  11.278 -0.1444  0.1228  1.7629
15606TIP3    H268234   0.333   1.594  11.297  0.0839  0.3348  0.6459
15607TIP3   OH268235   6.655   1.046  16.051  0.3255 -0.0600  0.1694
15607TIP3    H168236   6.644   0.952  16.064 -0.7264  0.0411  0.0888
15607TIP3    H268237   6.700   1.076  16.130  1.7434 -0.7996 -0.3182
15608TIP3   OH268238   1.134   5.922   4.248  0.1356 -0.3534  0.2191
15608TIP3    H168239   1.140   5.912   4.153  0.0271  0.4345  0.1251
15608TIP3    H268240   1.151   6.015   4.264  2.0664 -0.8007  1.1409
15609TIP3   OH268241   5.872   3.694   0.601  0.1952  0.1808  1.0549
15609TIP3    H168242   5.943   3.750   0.634  0.7637 -0.0906  0.3217
15609TIP3    H268243   5.900   3.605   0.621  1.7848 -0.2126 -2.2422
15610TIP3   OH268244   6.456   5.810   3.817 -0.6264  0.2992 -0.2707
15610TIP3    H168245   6.457   5.870   3.892 -0.3080 -2.2625  1.9359
15610TIP3    H268246   6.549   5.795   3.797 -0.6010 -1.1346  0.7375
15611TIP3   OH268247   6.179   0.025  10.967 -1.0241 -0.4474  0.1369
15611TIP3    H168248   6.181   0.112  10.927 -0.2209 -0.7357 -0.4990
15611TIP3    H268249   6.087   0.011  10.990 -1.1162  0.6686  0.4914
15612TIP3   OH268250   5.689   5.327   4.197  0.6336 -0.1949 -0.4256
15612TIP3    H168251   5.781   5.303   4.209  0.4390 -0.0939  1.6419
15612TIP3    H268252   5.646   5.244   4.175  1.4493  0.0693 -3.5289
15613TIP3   OH268253   1.596   5.781  11.317 -0.2089  0.7009  0.1994
15613TIP3    H168254   1.686   5.761  11.339 -0.4100 -1.2726 -0.5925
15613TIP3    H268255   1.586   5.753  11.226 -1.5167  1.2418  0.1459
15614TIP3   OH268256   0.404   4.079  13.861  0.0980 -0.3597 -0.0835
15614TIP3    H168257   0.344   4.106  13.930 -1.3368 -1.0173 -1.0302
15614TIP3    H268258   0.407   4.154  13.801 -0.4715 -0.6330 -0.4678
15615TIP3   OH268259   0.237   3.346  13.688 -0.2563  0.3610 -0.7786
15615TIP3    H168260   0.292   3.268  13.692 -0.6814  0.0826  0.1081
15615TIP3    H268261   0.193   3.340  13.604 -1.6829 -1.3677  0.0210
15616TIP3   OH268262   6.169   3.084  15.547  0.2301  0.1508  0.0461
15616TIP3    H168263   6.243   3.024  15.558 -1.1498 -2.0047 -1.5388
15616TIP3    H268264   6.092   3.032  15.571 -0.9319  1.7401 -0.0707
15617TIP3   OH268265   2.317   4.435  13.446  0.2114 -0.3874 -0.1348
15617TIP3    H168266   2.315   4.339  13.453 -1.1729 -0.3616  0.1101
15617TIP3    H268267   2.333   4.465  13.535  2.6520 -0.3866 -0.5039
15618TIP3   OH268268   3.783   1.297   5.690 -0.0233 -0.2986  0.0173
15618TIP3    H168269   3.805   1.321   5.780 -1.0009  0.0253  0.1845
15618TIP3    H268270   3.809   1.206   5.682  3.4993  0.5863 -0.5281
15619TIP3   OH268271   6.083   0.642  13.512 -0.4641 -0.1526 -0.5855
15619TIP3    H168272   6.141   0.644  13.589 -0.4081  0.2299 -0.6340
15619TIP3    H268273   6.140   0.667  13.439 -0.8038  0.7736 -0.5526
15620TIP3   OH268274   5.155   4.940   1.907  0.1286 -0.2927 -0.0906
15620TIP3    H168275   5.126   4.850   1.893  0.6702 -1.1486  3.3642
15620TIP3    H268276   5.121   4.963   1.993  2.2815  1.8310  0.2986
15621TIP3   OH268277   2.525   4.985   0.315  0.8603  0.4695 -0.5188
15621TIP3    H168278   2.608   5.021   0.284  0.6772  0.5000 -0.9748
15621TIP3    H268279   2.487   4.941   0.239  1.1675 -0.8683  0.0678
15622TIP3   OH268280   3.764   5.394   0.162 -0.2729 -1.1563  0.0038
15622TIP3    H168281   3.721   5.417   0.079  1.5297 -0.4017 -0.7765
15622TIP3    H268282   3.798   5.306   0.148 -0.9125 -1.4645  0.3562
15623TIP3   OH268283   6.781   4.224   1.699  0.2369  0.2091 -0.6801
15623TIP3    H168284   6.753   4.136   1.724  0.5983 -0.3360 -2.0804
15623TIP3    H268285   6.819   4.213   1.612  1.6799  1.4978 -0.2680
15624TIP3   OH268286   0.135   1.530   1.968  0.9819  0.2255  0.3926
15624TIP3    H168287   0.090   1.567   2.044 -0.0084 -0.2847  0.0662
15624TIP3    H268288   0.096   1.574   1.893  0.0265 -1.1958  0.0197
15625TIP3   OH268289   0.530   4.396   3.940 -0.2510 -0.1277 -0.3725
15625TIP3    H168290   0.604   4.441   3.900  1.5109 -2.1745  0.3535
15625TIP3    H268291   0.557   4.381   4.030 -2.2188  0.3852  0.3477
15626TIP3   OH268292   5.633   4.807  14.146 -0.4545 -0.0283  0.7372
15626TIP3    H168293   5.630   4.896  14.114 -1.6647 -0.3300 -0.0555
15626TIP3    H268294   5.585   4.809  14.229  0.2092  0.1952  1.1252
15627TIP3   OH268295   5.751   3.485  12.884  0.1466  0.4473 -0.3559
15627TIP3    H168296   5.722   3.408  12.835 -0.6069  0.7799 -0.4493
15627TIP3    H268297   5.676   3.506  12.940  0.7237  0.5096  0.4072
15628TIP3   OH268298   3.229   2.389  16.519  0.8893  0.3293 -0.6594
15628TIP3    H168299   3.202   2.423  16.604  1.5574  1.6117 -0.9287
15628TIP3    H268300   3.159   2.328  16.494  1.0875 -0.7052  1.1482
15629TIP3   OH268301   0.559   4.201  15.324  0.8578 -0.1832 -0.1407
15629TIP3    H168302   0.636   4.229  15.373  0.7511 -0.2007  0.0387
15629TIP3    H268303   0.543   4.112  15.353 -0.7127  0.6171  1.7346
15630TIP3   OH268304   1.802   3.376  15.204 -0.0305 -0.4142  0.5212
15630TIP3    H168305   1.778   3.402  15.115 -0.2733 -0.0654  0.6876
15630TIP3    H268306   1.848   3.293  15.193 -0.8800 -0.8516  0.1471
15631TIP3   OH268307   6.756   5.205  16.270 -0.1897 -0.7111  0.4596
15631TIP3    H168308   6.761   5.202  16.365 -1.8431 -0.8540  0.5681
15631TIP3    H268309   6.743   5.298  16.249  3.6216 -0.0975  0.0888
15632TIP3   OH268310   1.387   3.818  16.643  0.1506 -0.0571  0.3651
15632TIP3    H168311   1.377   3.725  16.623  0.2108  0.4363 -2.2283
15632TIP3    H268312   1.481   3.829  16.660  0.8079  0.0448 -2.7802
15633TIP3   OH268313   2.035   0.598  11.762 -0.6456 -0.3827  0.1981
15633TIP3    H168314   2.025   0.504  11.746 -1.4041 -0.4364  0.9364
15633TIP3    H268315   1.958   0.622  11.814 -0.0134  0.4686  0.7673
15634TIP3   OH268316   4.000   5.981  15.167 -0.1791 -0.2798  0.1114
15634TIP3    H168317   4.051   6.006  15.090 -0.9964 -0.1342 -0.3955
15634TIP3    H268318   3.910   6.007  15.145 -0.8708 -2.4756  0.0793
15635TIP3   OH268319   3.304   2.943   1.359  0.2045 -0.0610  0.4644
15635TIP3    H168320   3.372   2.882   1.386  1.3654  0.2692 -1.4697
15635TIP3    H268321   3.286   2.919   1.268 -1.1034  0.8956  0.4481
15636TIP3   OH268322   5.041   2.209   0.556 -0.0732  0.2522 -0.0524
15636TIP3    H168323   5.036   2.129   0.608  1.2578  0.6041  0.6840
15636TIP3    H268324   5.013   2.278   0.616 -0.5744  0.4091 -0.4724
15637TIP3   OH268325   3.919   2.330   0.677  0.2667  0.0249  0.4884
15637TIP3    H168326   3.824   2.332   0.687  0.1250 -0.8426 -0.4651
15637TIP3    H268327   3.936   2.381   0.599  0.2057 -2.5730 -1.3706
15638TIP3   OH268328   6.022   2.235   3.336  0.2640 -0.0914 -0.5961
15638TIP3    H168329   6.050   2.214   3.247 -1.2426  2.1937 -1.7084
15638TIP3    H268330   6.026   2.151   3.383  0.3254 -1.5282 -3.0051
15639TIP3   OH268331   5.248   2.878   2.371  0.6252  0.2606 -0.2988
15639TIP3    H168332   5.209   2.933   2.304  0.7738 -0.9574 -1.4420
15639TIP3    H268333   5.341   2.904   2.374  0.7669 -0.1481 -1.0688
15640TIP3   OH268334   3.733   6.747  11.930 -0.8753 -0.0314  0.5838
15640TIP3    H168335   3.680   6.669  11.911 -1.1247 -0.3220  2.2759
15640TIP3    H268336   3.806   6.713  11.982  0.8076  0.4236 -1.3686
15641TIP3   OH268337   1.277   5.367   5.173 -0.1516  0.0243  0.5775
15641TIP3    H168338   1.187   5.388   5.199 -0.3836 -1.3760  0.9788
15641TIP3    H268339   1.269   5.286   5.124  1.1521 -1.5000  2.7296
15642TIP3   OH268340   1.753   3.654  14.669  0.4797 -0.4766 -0.2835
15642TIP3    H168341   1.827   3.661  14.729 -1.4688  1.8121  2.1229
15642TIP3    H268342   1.776   3.713  14.596  1.3702 -0.4423  0.0167
15643TIP3   OH268343   3.699   4.283   2.116  0.4526 -0.2533 -0.1717
15643TIP3    H168344   3.768   4.348   2.105 -0.2859  0.7437  0.8735
15643TIP3    H268345   3.745   4.199   2.115  1.2500  0.0942 -3.3350
15644TIP3   OH268346   5.014   3.707   3.652 -0.2701 -0.2568 -0.0289
15644TIP3    H168347   5.050   3.772   3.714 -0.4728 -0.5776  0.4309
15644TIP3    H268348   4.948   3.660   3.703 -1.2428  0.2104 -0.8096
15645TIP3   OH268349   6.345   0.505   0.165  0.3181 -0.3392 -0.1043
15645TIP3    H168350   6.329   0.427   0.113  0.4657  0.0494 -0.7497
15645TIP3    H268351   6.440   0.507   0.178  0.1823 -1.0697  1.2145
15646TIP3   OH268352   5.207   3.253  14.460 -0.6661  0.0031 -0.6664
15646TIP3    H168353   5.220   3.323  14.524  0.6968  0.9711 -1.9432
15646TIP3    H268354   5.166   3.183  14.510 -0.6347  1.1188  1.0132
15647TIP3   OH268355   4.030   1.206  12.505 -0.0321  0.3543 -0.5381
15647TIP3    H168356   3.966   1.135  12.508  2.3330 -2.2133 -3.3464
15647TIP3    H268357   4.022   1.242  12.417  0.7909  1.5937 -0.1305
15648TIP3   OH268358   3.408   0.437   1.164  0.4423  0.1194 -0.3790
15648TIP3    H168359   3.462   0.515   1.180  4.1476 -2.1705 -0.6635
15648TIP3    H268360   3.388   0.441   1.071  0.1676  0.9754 -0.2907
15649TIP3   OH268361   5.774   4.689   6.102  0.2159 -0.3263  0.0266
15649TIP3    H168362   5.682   4.673   6.081 -0.1952 -1.2793  2.2569
15649TIP3    H268363   5.772   4.760   6.166  1.2518  1.1541 -1.4899
15650TIP3   OH268364   5.383   6.226   0.261  0.0244 -0.0765  0.2578
15650TIP3    H168365   5.326   6.166   0.213  1.1853 -1.1232  0.1331
15650TIP3    H268366   5.439   6.169   0.314 -0.5032  1.0194  2.0694
15651TIP3   OH268367   3.748   0.258  14.914 -0.2332  0.2080  0.0540
15651TIP3    H168368   3.816   0.235  14.850 -0.0438  1.8548 -0.3594
15651TIP3    H268369   3.674   0.289  14.861 -0.4185  0.7002  0.5914
15652TIP3   OH268370   5.212   4.840  12.459 -0.0285 -0.2738 -0.1039
15652TIP3    H168371   5.281   4.819  12.521  1.1868  0.3363 -1.2140
15652TIP3    H268372   5.171   4.919  12.495  1.4606  0.7887 -0.6598
15653TIP3   OH268373   5.838   5.323  15.043 -0.1172 -0.3782 -0.7021
15653TIP3    H168374   5.830   5.334  15.138 -0.7702  0.3300 -0.8260
15653TIP3    H268375   5.913   5.264  15.032 -1.7211 -2.8004  0.3652
15654TIP3   OH268376   6.222   6.395   0.432  0.3798  0.2336 -0.4286
15654TIP3    H168377   6.129   6.408   0.451  0.1054  0.6891 -1.9229
15654TIP3    H268378   6.266   6.467   0.477  0.1037 -0.3690  0.8537
15655TIP3   OH268379   2.910   1.098   0.880  0.3097 -0.0787 -0.4738
15655TIP3    H168380   2.988   1.053   0.846 -0.0168 -0.6160 -0.5171
15655TIP3    H268381   2.945   1.162   0.942  1.1357  2.3976 -3.1999
15656TIP3   OH268382   5.857   4.446   3.079 -0.2425  0.2997  0.2978
15656TIP3    H168383   5.777   4.394   3.067  0.2497 -0.0763 -1.7665
15656TIP3    H268384   5.905   4.435   2.997  1.9493  0.5303  1.4731
15657TIP3   OH268385   5.117   3.764   4.936  0.1341 -0.3262 -0.4742
15657TIP3    H168386   5.202   3.771   4.894  0.7234 -0.2975  0.6952
15657TIP3    H268387   5.087   3.855   4.945  0.4376 -0.2718  0.0169
15658TIP3   OH268388   3.270   0.669   5.130 -0.1016  0.5016 -0.1132
15658TIP3    H168389   3.318   0.587   5.140  0.4719  0.9431  0.9221
15658TIP3    H268390   3.326   0.722   5.073  0.1491  0.6395  0.2583
15659TIP3   OH268391   0.458   2.038   2.591  0.5533 -0.0716 -0.1989
15659TIP3    H168392   0.381   1.985   2.573  0.7008 -0.8487  1.3079
15659TIP3    H268393   0.483   2.014   2.680  0.5233  2.6717  0.6249
15660TIP3   OH268394   4.219   0.640   1.886 -0.0003  0.1726 -0.3032
15660TIP3    H168395   4.138   0.674   1.924 -0.5909 -0.6840 -0.7772
15660TIP3    H268396   4.220   0.548   1.910  1.5876  0.4632  0.9635
15661TIP3   OH268397   5.716   2.789   2.315  0.2866  0.0627 -0.1337
15661TIP3    H168398   5.724   2.833   2.231 -2.3814  0.5455 -0.2392
15661TIP3    H268399   5.672   2.853   2.371  0.1644 -0.9732  0.9923
15662TIP3   OH268400   3.759   5.589   1.360  0.5681 -0.0528  0.2566
15662TIP3    H168401   3.762   5.672   1.313  1.6198  0.5742  1.3865
15662TIP3    H268402   3.851   5.564   1.371  0.3127 -0.5997  1.2505
15663TIP3   OH268403   4.613   3.564   1.372 -0.4069 -0.1181 -0.0006
15663TIP3    H168404   4.545   3.502   1.397  0.8354 -1.5633 -0.0243
15663TIP3    H268405   4.647   3.597   1.455 -0.6025 -0.0115  0.0365
15664TIP3   OH268406   1.045   1.168  13.163  0.0998  0.0645 -0.1093
15664TIP3    H168407   1.093   1.155  13.081 -2.4288  0.5512 -1.7869
15664TIP3    H268408   0.977   1.232  13.141 -0.8822 -0.0429  2.3072
15665TIP3   OH268409   4.226   4.632  13.263 -0.2874 -0.1824 -0.3376
15665TIP3    H168410   4.149   4.677  13.296  1.8224  2.1580  1.8087
15665TIP3    H268411   4.258   4.580  13.337  1.4990  0.8362 -0.3323
15666TIP3   OH268412   2.577   6.111  15.484 -0.7457  0.0423 -0.8037
15666TIP3    H168413   2.580   6.048  15.411 -0.2016 -0.5054 -0.3145
15666TIP3    H268414   2.658   6.161  15.475 -0.1845 -0.6839 -0.0142
15667TIP3   OH268415   2.241   0.272   4.789  0.4023  0.7320  0.5459
15667TIP3    H168416   2.154   0.232   4.779  0.0969  1.4552  0.2188
15667TIP3    H268417   2.224   0.353   4.837  1.0241  0.4399  1.2704
15668TIP3   OH268418   3.640   4.579   0.363  0.1162 -0.2555  0.8591
15668TIP3    H168419   3.643   4.646   0.432  1.7081  1.3905 -0.6940
15668TIP3    H268420   3.569   4.608   0.305  0.3635 -0.2642  0.5466
15669TIP3   OH268421   2.530   6.100  11.805  0.2213 -0.0948  0.0242
15669TIP3    H168422   2.541   6.163  11.876  0.6755 -1.2572  1.0015
15669TIP3    H268423   2.618   6.088  11.770  0.2567 -0.7418  0.3291
15670TIP3   OH268424   6.088   4.182   3.453  0.1223 -0.1143  0.1314
15670TIP3    H168425   6.091   4.107   3.393 -1.8345  1.2093 -1.7884
15670TIP3    H268426   6.160   4.238   3.425  0.0793 -0.1511 -0.0562
15671TIP3   OH268427   2.277   3.172   1.389  0.2940 -0.3165 -0.1074
15671TIP3    H168428   2.269   3.199   1.480 -1.8917  0.7079 -0.5428
15671TIP3    H268429   2.305   3.081   1.394  0.5430 -0.1837  1.5792
15672TIP3   OH268430   0.700   4.016  12.083  0.1003 -0.2878 -0.3511
15672TIP3    H168431   0.770   4.006  12.147  1.5587 -1.5909 -2.0272
15672TIP3    H268432   0.626   4.051  12.132  0.0720 -4.0462  2.7463
15673TIP3   OH268433   3.818   2.838   1.245 -0.1687  0.3013 -0.0618
15673TIP3    H168434   3.885   2.902   1.221 -1.0810  0.9325 -1.0650
15673TIP3    H268435   3.757   2.887   1.300 -0.2701 -0.0262  0.1224
15674TIP3   OH268436   0.843   4.386  12.584  0.0243  0.0403 -0.1423
15674TIP3    H168437   0.802   4.443  12.649  1.0211  0.1445  0.4081
15674TIP3    H268438   0.933   4.419  12.576  0.2390 -0.6683 -0.7523
15675TIP3   OH268439   1.183   4.712  15.868  0.3689  0.2754 -0.8195
15675TIP3    H168440   1.181   4.616  15.867 -0.2357  0.2761 -1.9200
15675TIP3    H268441   1.258   4.735  15.813  1.2166  0.4578  0.3583
15676TIP3   OH268442   0.786   2.352  16.753 -0.5357 -0.2833  0.6740
15676TIP3    H168443   0.729   2.307  16.815  1.3854 -0.0931  2.6959
15676TIP3    H268444   0.857   2.290  16.735  0.9090  0.9953  1.6776
15677TIP3   OH268445   3.879   6.540  10.973 -0.1209  0.2703 -0.5229
15677TIP3    H168446   3.876   6.635  10.985  0.4872  0.4101 -1.3748
15677TIP3    H268447   3.971   6.517  10.984 -0.2864 -0.2428 -0.1794
15678TIP3   OH268448   2.073   6.021  13.877  0.2839  0.5522  0.7153
15678TIP3    H168449   2.009   6.016  13.806  1.3970  1.6150 -0.4195
15678TIP3    H268450   2.137   5.953  13.857 -0.5237 -0.6275  1.9426
15679TIP3   OH268451   5.938   1.083   2.838  0.5721  0.1653  0.2620
15679TIP3    H168452   5.929   1.140   2.761  0.9700 -0.6211 -0.3764
15679TIP3    H268453   5.856   1.095   2.885 -0.9914 -1.5518 -1.8178
15680TIP3   OH268454   4.763   4.684   0.852  0.8185 -0.1239 -0.1732
15680TIP3    H168455   4.784   4.618   0.786  1.2207 -1.1472  0.9403
15680TIP3    H268456   4.738   4.634   0.929 -1.7367  1.0321 -0.1513
15681TIP3   OH268457   0.827   3.809   1.906  0.2914  0.1130  0.9914
15681TIP3    H168458   0.767   3.876   1.937  0.2400  0.2014  0.6998
15681TIP3    H268459   0.776   3.728   1.911  0.1830  0.1725  0.8395
15682TIP3   OH268460   5.327   3.482  14.985 -0.0100  0.3060 -0.5739
15682TIP3    H168461   5.393   3.536  14.942  0.4743 -0.1904 -0.4676
15682TIP3    H268462   5.324   3.514  15.075  2.3798 -1.6573  0.3313
15683TIP3   OH268463   1.584   6.777  12.581 -0.0017  0.0198 -0.1149
15683TIP3    H168464   1.596   6.842  12.512  0.5063  0.7383  0.6319
15683TIP3    H268465   1.649   6.709  12.562 -0.0117  0.1020 -0.4572
15684TIP3   OH268466   4.005   4.518  15.126 -0.5831  0.4703 -0.2366
15684TIP3    H168467   3.927   4.496  15.075  0.3198  0.4107 -1.6403
15684TIP3    H268468   3.984   4.602  15.166 -0.9297  1.0383 -1.5579
15685TIP3   OH268469   5.467   0.971  14.639  0.3593 -0.1381  0.0790
15685TIP3    H168470   5.396   1.023  14.601  0.4874  0.4341  0.6084
15685TIP3    H268471   5.437   0.880  14.630 -1.8806  0.1359  2.9412
15686TIP3   OH268472   3.433   5.658  15.872 -0.2432 -0.0189 -0.6442
15686TIP3    H168473   3.427   5.727  15.938 -1.2537 -0.3646 -0.3682
15686TIP3    H268474   3.509   5.606  15.899  0.3136  0.7674 -0.6614
15687TIP3   OH268475   6.202   3.971   0.354  0.3279  0.6184 -0.0550
15687TIP3    H168476   6.188   4.058   0.318  1.3989  0.6128 -0.5029
15687TIP3    H268477   6.283   3.978   0.404  1.3211 -0.5121 -1.4431
15688TIP3   OH268478   3.038   0.109  15.854 -0.7646  0.1938  0.7866
15688TIP3    H168479   2.945   0.092  15.866 -0.9799  1.6226  1.2406
15688TIP3    H268480   3.042   0.186  15.798  0.1107  0.6547  1.4527
15689TIP3   OH268481   2.944   5.141  14.130  0.0856  0.4813  0.2825
15689TIP3    H168482   2.930   5.191  14.050 -0.4663 -0.7986 -0.4536
15689TIP3    H268483   2.859   5.103  14.150  0.5393 -0.3431  0.6922
15690TIP3   OH268484   0.515   4.511  13.834 -0.0168  0.6393  0.3459
15690TIP3    H168485   0.584   4.531  13.772  1.9328  0.5425  2.3654
15690TIP3    H268486   0.561   4.489  13.915 -2.2006 -3.3181  0.7755
15691TIP3   OH268487   1.376   1.226   3.499 -0.1648 -0.1425 -0.7307
15691TIP3    H168488   1.288   1.240   3.464 -1.3612 -0.2898  1.9580
15691TIP3    H268489   1.423   1.307   3.480 -1.3292  0.4933 -0.9808
15692TIP3   OH268490   1.354   4.908  16.659 -0.3882 -0.2161 -0.1555
15692TIP3    H168491   1.327   4.929  16.570 -1.5850  1.1222  0.4649
15692TIP3    H268492   1.271   4.889  16.705  0.1458 -0.3264  0.7903
15693TIP3   OH268493   5.726   6.167   3.976  0.1511 -0.1929 -0.3584
15693TIP3    H168494   5.649   6.223   3.985  1.4884  1.7088 -0.2256
15693TIP3    H268495   5.763   6.163   4.064  0.8059 -0.1924 -0.6298
15694TIP3   OH268496   4.876   6.327   4.671 -0.4798  0.5389  0.1819
15694TIP3    H168497   4.931   6.381   4.615 -0.7754 -1.0762 -1.7613
15694TIP3    H268498   4.917   6.241   4.670 -3.0445 -0.7911 -1.5348
15695TIP3   OH268499   0.845   5.382   3.477  0.2806  0.5998 -0.0294
15695TIP3    H168500   0.834   5.459   3.421  0.9066 -0.2080 -1.3109
15695TIP3    H268501   0.758   5.369   3.516 -0.6438  0.3030 -2.0239
15696TIP3   OH268502   0.964   1.096   4.700  0.5709 -0.5328 -0.5264
15696TIP3    H168503   0.882   1.141   4.678  0.3715 -0.1887  0.8272
15696TIP3    H268504   1.026   1.166   4.720  1.4963 -0.7590 -2.4387
15697TIP3   OH268505   5.462   3.283  12.342 -0.0339  0.3786 -0.2093
15697TIP3    H168506   5.511   3.253  12.265 -1.5051 -0.2814 -0.9357
15697TIP3    H268507   5.439   3.374  12.322 -0.8156  0.0661 -0.7870
15698TIP3   OH268508   5.019   6.316   2.207 -0.0529  0.0617 -0.2390
15698TIP3    H168509   5.028   6.368   2.127  0.4589 -0.7357 -0.7103
15698TIP3    H268510   5.021   6.226   2.177 -0.0785 -0.2415  0.6599
15699TIP3   OH268511   4.611   5.310   3.594 -0.4290 -0.5534  0.1096
15699TIP3    H168512   4.547   5.290   3.526 -0.6186 -0.1170  0.1592
15699TIP3    H268513   4.689   5.337   3.545 -0.6775  0.1053  0.0595
15700TIP3   OH268514   1.418   6.692  16.593 -0.1222 -0.1911 -0.2237
15700TIP3    H168515   1.338   6.738  16.618  0.2305  1.3644 -1.7570
15700TIP3    H268516   1.481   6.761  16.573  1.5393 -1.3766  0.6329
15701TIP3   OH268517   1.175   6.000  16.096  0.3004 -0.4555 -0.3367
15701TIP3    H168518   1.159   5.964  16.183 -1.3445 -0.7741 -0.7483
15701TIP3    H268519   1.270   5.990  16.084  0.5273 -0.6029  1.3117
15702TIP3   OH268520   2.955   3.535   1.529 -0.3125  0.2744  0.0394
15702TIP3    H168521   3.020   3.564   1.466  0.3866 -1.4550 -0.0788
15702TIP3    H268522   2.951   3.440   1.518 -0.6372 -0.0110  2.1437
15703TIP3   OH268523   6.479   1.006  11.851  0.3783 -0.5678 -0.4732
15703TIP3    H168524   6.554   1.035  11.903 -1.2062 -0.2377  1.7448
15703TIP3    H268525   6.498   1.037  11.763  1.2416  2.6455  0.6972
15704TIP3   OH268526   5.153   5.715  16.643 -0.0101 -0.1057 -0.4033
15704TIP3    H168527   5.069   5.712  16.689  0.4710 -0.5704  0.4806
15704TIP3    H268528   5.139   5.776  16.571 -0.5465  1.3277  0.8786
15705TIP3   OH268529   3.610   3.872   1.081 -0.0380 -0.1985  0.2438
15705TIP3    H168530   3.680   3.812   1.109 -0.4426  0.4715  2.8958
15705TIP3    H268531   3.542   3.862   1.147 -0.8154  1.9780 -0.1513
15706TIP3   OH268532   2.580   3.616   6.183  0.6474  0.3167  0.4676
15706TIP3    H168533   2.499   3.610   6.234  0.6372 -0.8118  0.3356
15706TIP3    H268534   2.562   3.684   6.118 -0.6316 -0.7129 -0.3035
15707TIP3   OH268535   5.431   5.071  12.465  0.1522 -0.4661  0.3103
15707TIP3    H168536   5.427   4.999  12.528 -0.5274  0.0976  0.9297
15707TIP3    H268537   5.475   5.034  12.388  0.7805 -1.2307  1.0194
15708TIP3   OH268538   4.264   3.569   0.921 -1.0799  0.1832 -0.0923
15708TIP3    H168539   4.325   3.499   0.946 -1.8317 -0.5557 -0.3045
15708TIP3    H268540   4.223   3.595   1.003  0.0888  1.2422  0.1768
15709TIP3   OH268541   1.176   2.236  13.617 -0.2394  0.1464 -0.5869
15709TIP3    H168542   1.198   2.152  13.657  2.0856  1.2176  0.5841
15709TIP3    H268543   1.224   2.238  13.534  0.3903  0.6447 -0.2166
15710TIP3   OH268544   6.470   4.878  14.480 -0.1688 -0.1385 -0.5176
15710TIP3    H168545   6.545   4.829  14.446 -0.2139  0.5295 -1.6003
15710TIP3    H268546   6.397   4.855  14.423 -0.2120  1.1125 -1.0008
15711TIP3   OH268547   3.176   1.863   3.341  0.0341  0.6138 -0.3980
15711TIP3    H168548   3.182   1.789   3.282 -0.8619 -0.0674  0.3445
15711TIP3    H268549   3.176   1.824   3.429 -0.2257  1.4997  0.0101
15712TIP3   OH268550   4.029   2.701   4.178 -1.2290  0.3846  0.0463
15712TIP3    H168551   4.004   2.662   4.261 -0.9394  0.8814  0.3705
15712TIP3    H268552   3.991   2.643   4.112  0.5698 -1.3659  0.4702
15713TIP3   OH268553   2.316   6.745   0.838 -0.0908  0.8604 -0.3260
15713TIP3    H168554   2.286   6.834   0.822  2.9407  1.9464 -0.5118
15713TIP3    H268555   2.382   6.729   0.770  0.6686 -0.8713  0.7384
15714TIP3   OH268556   6.462   6.208  14.607 -0.5158  0.5273 -0.1522
15714TIP3    H168557   6.521   6.186  14.679  1.5000 -0.4596 -1.9901
15714TIP3    H268558   6.375   6.182  14.638  0.4284 -0.7693  1.5643
15715TIP3   OH268559   2.668   6.416  11.584  0.1197  0.1941 -0.0159
15715TIP3    H168560   2.580   6.428  11.619  0.5674 -0.8579  1.5991
15715TIP3    H268561   2.722   6.396  11.661  1.2775 -1.6979 -1.2360
15716TIP3   OH268562   2.128   0.423   3.085  0.3888 -0.0147 -0.2004
15716TIP3    H168563   2.112   0.472   3.005 -0.6970  1.0646  0.6523
15716TIP3    H268564   2.130   0.331   3.057 -0.3928  0.3156 -1.3977
15717TIP3   OH268565   1.355   6.703   0.047 -0.5203 -0.6367  0.3929
15717TIP3    H168566   1.359   6.717   0.142 -0.7272  0.6374  0.2276
15717TIP3    H268567   1.316   6.616   0.038  0.7398 -1.3571  1.4916
15718TIP3   OH268568   1.298   4.666   0.510 -0.1333  0.4825 -0.0257
15718TIP3    H168569   1.298   4.600   0.441 -0.5938  1.1393 -0.6662
15718TIP3    H268570   1.259   4.621   0.585  3.0326 -1.1782  0.7975
15719TIP3   OH268571   1.454   4.957  13.970 -0.1629 -0.7682 -0.0871
15719TIP3    H168572   1.362   4.937  13.952 -0.0132  1.2551 -4.3578
15719TIP3    H268573   1.503   4.890  13.924  0.3963  0.2396 -1.0138
15720TIP3   OH268574   4.084   6.399  15.923 -0.0201 -0.1749  0.4733
15720TIP3    H168575   4.121   6.385  15.836  0.4605  0.8841  0.4891
15720TIP3    H268576   4.020   6.469  15.912  0.3671  0.2804  1.0414
15721TIP3   OH268577   0.291   2.700   2.926  0.2732 -0.0931 -0.6004
15721TIP3    H168578   0.354   2.633   2.897 -1.7990 -1.5410 -2.1213
15721TIP3    H268579   0.308   2.774   2.868  0.0463 -0.7878 -1.5869
15722TIP3   OH268580   2.678   1.896   1.936 -0.3036 -0.3998  0.0474
15722TIP3    H168581   2.721   1.837   1.874 -2.0955 -0.9384 -0.7356
15722TIP3    H268582   2.682   1.982   1.894  1.1385 -0.1615  0.5966
15723TIP3   OH268583   6.643   5.778  16.955  0.4288 -0.2020 -0.3064
15723TIP3    H168584   6.568   5.818  16.998 -0.8685 -0.8118 -1.9218
15723TIP3    H268585   6.707   5.849  16.946 -0.5269  0.6862 -0.2183
15724TIP3   OH268586   4.557   6.090  12.965 -0.2293  0.1488  0.1289
15724TIP3    H168587   4.566   6.086  13.060 -1.3197 -0.7172  0.2170
15724TIP3    H268588   4.636   6.049  12.930 -0.5917 -1.0897  0.7076
15725TIP3   OH268589   3.337   2.816  12.737  0.1804 -0.0208  0.0517
15725TIP3    H168590   3.363   2.739  12.687  0.7233 -0.8187  1.4844
15725TIP3    H268591   3.341   2.787  12.829  2.8115  2.3239  0.8330
15726TIP3   OH268592   5.059   6.178  11.926  0.1216  0.0493  0.4640
15726TIP3    H168593   5.024   6.247  11.982 -0.7790 -0.5708  0.6880
15726TIP3    H268594   5.113   6.125  11.985  1.0499  0.6988  0.2314
15727TIP3   OH268595   4.747   4.703  15.666 -0.1544 -0.5241  0.0662
15727TIP3    H168596   4.786   4.782  15.703 -0.6102 -0.5133  0.5235
15727TIP3    H268597   4.816   4.666  15.610 -0.3602  0.8762 -1.1675
15728TIP3   OH268598   0.028   1.245  13.637  0.1750  0.1006 -0.2629
15728TIP3    H168599   0.110   1.208  13.669 -1.2697 -3.0100  0.2436
15728TIP3    H268600   0.054   1.300  13.564  2.7394 -0.6405 -0.0150
15729TIP3   OH268601   1.451   2.194   0.679  0.3534  0.6330 -0.7590
15729TIP3    H168602   1.533   2.244   0.679 -0.3003  1.7789  0.7826
15729TIP3    H268603   1.459   2.136   0.603  3.3771 -0.6130  0.3550
15730TIP3   OH268604   6.584   0.291   4.953 -0.2337 -0.1562 -0.2406
15730TIP3    H168605   6.600   0.283   4.859 -1.4221  2.3936 -0.7473
15730TIP3    H268606   6.664   0.331   4.988 -0.5767  0.8525 -0.5705
15731TIP3   OH268607   1.755   5.376  12.878 -0.3196  0.4720  0.3755
15731TIP3    H168608   1.825   5.316  12.852 -0.0635  1.0681 -0.3523
15731TIP3    H268609   1.687   5.319  12.915  0.0721 -0.2249  0.0410
15732TIP3   OH268610   3.681   5.545  13.546  0.2389 -0.0700 -0.6264
15732TIP3    H168611   3.665   5.457  13.514  0.6941  0.0115 -1.0970
15732TIP3    H268612   3.661   5.541  13.640 -3.0125  0.1557 -1.2088
15733TIP3   OH268613   0.305   1.056  16.453  0.1058 -0.7828  0.1656
15733TIP3    H168614   0.338   1.085  16.539  1.8358  0.3059 -0.7982
15733TIP3    H268615   0.272   1.136  16.413  1.8784 -0.6827 -1.2360
15734TIP3   OH268616   4.900   6.558  16.832 -0.7722  0.1845 -0.0199
15734TIP3    H168617   4.876   6.643  16.870  0.0809  0.5483 -0.2696
15734TIP3    H268618   4.979   6.533  16.880 -0.9674 -0.4287 -0.0148
15735TIP3   OH268619   5.477   2.527  10.822  0.2169 -0.5955  0.1524
15735TIP3    H168620   5.538   2.515  10.894  3.4926  3.9532 -1.3747
15735TIP3    H268621   5.527   2.504  10.743 -1.3761 -0.3838 -0.9844
15736TIP3   OH268622   2.467   4.565  16.619  0.3048 -0.4087  0.0007
15736TIP3    H168623   2.506   4.621  16.686  1.1194 -1.0853  0.1156
15736TIP3    H268624   2.520   4.485  16.621 -0.7777 -1.1507 -0.2171
15737TIP3   OH268625   2.309   3.086   1.700  0.0205 -0.3029 -0.0908
15737TIP3    H168626   2.373   3.019   1.726  0.7464  0.1508 -0.6495
15737TIP3    H268627   2.232   3.069   1.754  1.1811  0.1408  1.8007
15738TIP3   OH268628   5.989   5.300   4.194  0.2151 -0.0053  0.2089
15738TIP3    H168629   6.052   5.369   4.215  1.3781 -0.1800 -2.2682
15738TIP3    H268630   6.024   5.222   4.236  0.9530  0.1731 -0.0511
15739TIP3   OH268631   4.537   6.479  11.968 -0.4822  0.3758 -0.3126
15739TIP3    H168632   4.460   6.504  11.918 -1.3168  0.6570  1.0627
15739TIP3    H268633   4.529   6.527  12.051  1.3389  0.6653 -0.2672
15740TIP3   OH268634   0.961   2.024  15.804 -0.2991 -0.4539  0.1165
15740TIP3    H168635   1.038   2.080  15.817 -0.0649 -1.1278  1.9579
15740TIP3    H268636   0.915   2.028  15.888 -3.1203  1.1019 -1.3699
15741TIP3   OH268637   2.384   4.284   3.519  0.2027 -0.5394 -0.2733
15741TIP3    H168638   2.468   4.299   3.562 -0.7352  1.5813  0.9704
15741TIP3    H268639   2.373   4.358   3.459 -1.7630  0.6017  1.3445
15742TIP3   OH268640   0.814   1.221  13.335 -0.0261 -0.1484  0.1811
15742TIP3    H168641   0.800   1.315  13.346  1.0292 -0.0278  0.5835
15742TIP3    H268642   0.909   1.211  13.334 -0.1276 -1.2550  0.5350
15743TIP3   OH268643   6.413   1.895   2.912  0.2607  0.3511  0.0989
15743TIP3    H168644   6.399   1.857   2.825 -0.2813 -0.1446  0.4032
15743TIP3    H268645   6.351   1.968   2.916 -0.6355 -0.4238  0.5603
15744TIP3   OH268646   2.112   4.839   5.587 -0.6070  0.3508  0.3176
15744TIP3    H168647   2.048   4.838   5.658  0.3874  1.8227  1.2842
15744TIP3    H268648   2.174   4.770   5.609  1.0454  2.3236  2.2596
15745TIP3   OH268649   0.362   4.750   1.179 -0.2964  0.0487 -0.1107
15745TIP3    H168650   0.360   4.688   1.106  1.5130 -0.7326  0.4314
15745TIP3    H268651   0.430   4.813   1.154 -0.6637  0.5912  0.2676
15746TIP3   OH268652   5.329   6.262  14.874  0.0326 -0.4415 -1.1584
15746TIP3    H168653   5.361   6.328  14.813 -2.1072  1.0367 -0.7847
15746TIP3    H268654   5.308   6.186  14.820 -3.1912  1.3104 -2.6560
15747TIP3   OH268655   1.094   3.331  14.752  0.1037  0.0495 -0.0339
15747TIP3    H168656   1.098   3.339  14.847 -2.4797  0.6102  0.0929
15747TIP3    H268657   1.132   3.245  14.734 -1.2550 -0.9961  1.7494
15748TIP3   OH268658   6.177   0.922  11.722  0.3028  0.1611  0.8715
15748TIP3    H168659   6.148   0.851  11.780 -1.3807  0.9029  0.9865
15748TIP3    H268660   6.244   0.882  11.667 -1.4496 -1.8846  0.1083
15749TIP3   OH268661   0.073   1.125  13.282 -0.3209  0.1032 -0.7300
15749TIP3    H168662   0.159   1.099  13.251  0.1530  1.0157 -0.2307
15749TIP3    H268663   0.090   1.198  13.341 -1.2312 -1.0865  1.1046
15750TIP3   OH268664   0.436   2.087   0.601 -0.1105  0.0546  0.2142
15750TIP3    H168665   0.417   2.177   0.574  2.5843  0.0252 -2.3423
15750TIP3    H268666   0.513   2.095   0.657 -0.7848 -0.5979  1.2741
15751TIP3   OH268667   2.789   6.451   5.894 -0.0654 -0.4278  0.2350
15751TIP3    H168668   2.823   6.398   5.821 -0.0819 -0.4597  0.2506
15751TIP3    H268669   2.718   6.399   5.930 -0.0600 -0.4092  0.2711
15752TIP3   OH268670   2.751   1.901  14.591  0.3138  0.2421 -0.1669
15752TIP3    H168671   2.744   1.872  14.682 -0.1206  1.3163  0.1487
15752TIP3    H268672   2.663   1.930  14.568  0.1676 -0.9975 -1.2848
15753TIP3   OH268673   2.940   4.983   0.964  0.4370  0.3843 -0.2318
15753TIP3    H168674   2.944   5.050   0.895  0.4518 -0.8916 -1.5153
15753TIP3    H268675   2.943   4.900   0.917 -1.4397 -0.5666  1.1985
15754TIP3   OH268676   3.452   1.403  14.069  0.9392  0.2491  0.0742
15754TIP3    H168677   3.503   1.384  13.990 -0.5279 -0.3207 -0.7908
15754TIP3    H268678   3.474   1.333  14.130 -0.5982 -1.4404 -1.2108
15755TIP3   OH268679   4.981   4.903   2.985 -0.3203 -0.2580  0.0784
15755TIP3    H168680   4.957   4.811   2.977 -1.5466  0.1205 -0.9578
15755TIP3    H268681   5.071   4.907   2.952 -0.0295 -1.1574  0.7111
15756TIP3   OH268682   3.392   0.948  14.703  0.2193  0.2915 -0.4018
15756TIP3    H168683   3.358   0.870  14.660  1.4031 -1.2671  1.3210
15756TIP3    H268684   3.352   1.021  14.656 -1.2364 -1.3405 -1.8309
15757TIP3   OH268685   1.767   3.134   5.814  0.1619  0.7580 -0.0830
15757TIP3    H168686   1.835   3.200   5.828  1.0397 -0.3427  1.0921
15757TIP3    H268687   1.699   3.156   5.878  0.4354  0.5623  0.2797
15758TIP3   OH268688   4.091   3.195   5.651  0.3572 -0.1102  0.0893
15758TIP3    H168689   4.102   3.121   5.710 -0.2215 -0.8533 -0.7256
15758TIP3    H268690   4.175   3.201   5.604  0.3943 -0.2595  0.1378
15759TIP3   OH268691   0.625   6.830  13.763  0.3616 -0.1502 -0.3705
15759TIP3    H168692   0.648   6.845  13.671 -1.7730 -0.3054 -0.9749
15759TIP3    H268693   0.648   6.912  13.806  0.7904  0.1630 -1.1611
15760TIP3   OH268694   0.676   3.246  16.340 -0.5892 -0.0311 -0.0478
15760TIP3    H168695   0.584   3.270  16.330 -0.6406 -0.3535 -0.3658
15760TIP3    H268696   0.724   3.328  16.326 -0.8780  0.3755  1.2090
15761TIP3   OH268697   1.857   4.465   1.804  0.2517 -0.0558 -0.5889
15761TIP3    H168698   1.832   4.457   1.712  0.9561  0.0741 -0.7957
15761TIP3    H268699   1.936   4.412   1.812  0.1578 -0.1241 -0.0360
15762TIP3   OH268700   0.247   0.096   5.136 -0.1334  0.1352 -0.1870
15762TIP3    H168701   0.272   0.161   5.069 -0.1508  1.2099  0.8107
15762TIP3    H268702   0.311   0.109   5.206  0.2858 -1.4297 -0.2604
15763TIP3   OH268703   3.554   5.195   1.922  0.5889  0.4427 -0.5740
15763TIP3    H168704   3.611   5.262   1.960 -0.7795  1.3792 -0.0602
15763TIP3    H268705   3.516   5.151   1.998 -0.6235  0.9693 -0.8498
15764TIP3   OH268706   4.510   6.026   0.004  0.8764 -0.6252 -0.3924
15764TIP3    H168707   4.574   6.007   0.072 -1.3421  1.0309  2.3958
15764TIP3    H268708   4.529   6.117  -0.022  1.2314 -0.9976 -1.5257
15765TIP3   OH268709   1.518   5.504   5.127 -0.1793 -0.1594 -0.4408
15765TIP3    H168710   1.430   5.477   5.152  0.0322 -0.4599 -0.0080
15765TIP3    H268711   1.526   5.593   5.160 -0.1567 -0.3006 -0.0603
15766TIP3   OH268712   3.010   2.766  15.023  0.0481 -0.1282 -0.2261
15766TIP3    H168713   2.980   2.836  14.966 -0.1301  0.8838  1.0505
15766TIP3    H268714   3.007   2.687  14.969  2.5088  1.1613 -2.4414
15767TIP3   OH268715   2.367   2.587   3.345 -0.1938  0.4525  0.3185
15767TIP3    H168716   2.462   2.599   3.348  0.0028 -1.1136  1.2561
15767TIP3    H268717   2.332   2.671   3.375  0.9105  0.7693  0.7873
15768TIP3   OH268718   1.418   2.115  11.782  0.0596  0.3067  0.0216
15768TIP3    H168719   1.488   2.169  11.745  1.0302 -0.6764  0.3640
15768TIP3    H268720   1.441   2.025  11.757 -0.3613 -0.1698  1.2563
15769TIP3   OH268721   1.954   4.671  11.149  0.3433  0.1699 -0.3273
15769TIP3    H168722   1.964   4.660  11.055 -1.6435  1.2177 -0.7192
15769TIP3    H268723   1.864   4.701  11.160  0.6253  0.3718  1.8877
15770TIP3   OH268724   5.263   0.217  13.929 -0.3155  0.4065 -0.3202
15770TIP3    H168725   5.340   0.266  13.902  0.9391 -0.7474  0.9762
15770TIP3    H268726   5.236   0.169  13.850 -0.0947  1.2875 -0.9429
15771TIP3   OH268727   1.027   6.380   1.951  0.1751  0.4890 -0.7440
15771TIP3    H168728   0.951   6.344   1.996  0.8498  0.2365  0.2289
15771TIP3    H268729   1.037   6.326   1.872 -0.7588  0.6535 -0.9810
15772TIP3   OH268730   2.744   0.523  14.657  0.3208 -0.3593 -0.6199
15772TIP3    H168731   2.657   0.486  14.670  0.4253 -0.5347 -0.3863
15772TIP3    H268732   2.735   0.583  14.583 -0.1024 -0.0306 -0.3112
15773TIP3   OH268733   4.022   6.289  13.767 -0.5240 -0.2393  0.1987
15773TIP3    H168734   3.989   6.228  13.701 -0.1547  0.4058 -0.5956
15773TIP3    H268735   3.944   6.318  13.814 -0.6296 -1.9902  1.2092
15774TIP3   OH268736   5.924   3.833  15.065  0.2767 -0.1687 -0.0421
15774TIP3    H168737   5.944   3.739  15.071  0.8762 -0.1604 -1.4764
15774TIP3    H268738   6.002   3.871  15.024 -0.5968  0.6904 -0.9768
15775TIP3   OH268739   3.716   3.253   3.117 -0.4337  0.0367  0.2899
15775TIP3    H168740   3.676   3.326   3.164 -0.4580  0.8015 -0.8765
15775TIP3    H268741   3.647   3.222   3.059  0.2301  0.4967 -0.7716
15776TIP3   OH268742   4.468   0.846   1.530  0.5804 -0.3351 -0.1209
15776TIP3    H168743   4.530   0.820   1.462  0.5293 -1.1816  0.1418
15776TIP3    H268744   4.400   0.779   1.528  0.2977 -0.0734  0.3981
15777TIP3   OH268745   3.203   3.133   3.503  0.1519  0.2313 -0.4175
15777TIP3    H168746   3.240   3.199   3.443  0.1765  0.1157 -0.5290
15777TIP3    H268747   3.218   3.170   3.590  0.2777  0.3165 -0.4740
15778TIP3   OH268748   4.343   3.641  16.825 -0.4476  0.6043  0.2416
15778TIP3    H168749   4.416   3.698  16.852 -2.2813  1.5807  3.6557
15778TIP3    H268750   4.363   3.556  16.863 -0.2641  0.3846 -0.3369
15779TIP3   OH268751   5.736   2.062  11.851  0.8824  0.0547 -0.5332
15779TIP3    H168752   5.785   2.050  11.932 -0.9955  0.8144  0.7681
15779TIP3    H268753   5.721   1.974  11.818  0.0703 -0.3981  0.9559
15780TIP3   OH268754   4.991   3.686   0.206  0.6724  0.2652 -0.3351
15780TIP3    H168755   4.913   3.637   0.179 -0.5949  2.0077  0.0452
15780TIP3    H268756   5.015   3.737   0.128  1.1154  0.1404 -0.2810
15781TIP3   OH268757   3.871   3.536   6.150 -0.5373  0.6257 -0.0657
15781TIP3    H168758   3.791   3.552   6.200 -0.4783 -0.1631  0.3059
15781TIP3    H268759   3.908   3.456   6.189  0.0832  0.6097 -0.6633
15782TIP3   OH268760   4.251   5.548   5.058  0.4303  0.8984  0.1329
15782TIP3    H168761   4.227   5.536   4.966  1.3998 -0.1650 -0.0049
15782TIP3    H268762   4.169   5.569   5.102 -0.2933 -0.0266 -0.7402
15783TIP3   OH268763   2.758   1.208   1.710 -0.1677  0.1977 -0.1105
15783TIP3    H168764   2.807   1.219   1.792 -1.9219  1.1505  0.8473
15783TIP3    H268765   2.722   1.294   1.691 -0.7912 -0.2913 -1.2600
15784TIP3   OH268766   1.628   3.737   1.563  0.1386 -0.3041 -0.2443
15784TIP3    H168767   1.671   3.766   1.644  1.1467 -0.5707 -0.6755
15784TIP3    H268768   1.609   3.818   1.516 -0.9557 -0.1066  0.4855
15785TIP3   OH268769   2.467   2.426   4.790  0.0145 -0.1555  0.6881
15785TIP3    H168770   2.390   2.389   4.748 -0.7440  1.2902  0.7369
15785TIP3    H268771   2.520   2.460   4.718  0.5704 -1.0158  0.6665
15786TIP3   OH268772   0.966   4.000   0.681  0.5025 -0.3807  0.3240
15786TIP3    H168773   0.945   3.963   0.767  2.0966  1.7258  1.7232
15786TIP3    H268774   1.062   3.994   0.676  0.3652 -1.6661 -1.9491
15787TIP3   OH268775   4.816   4.200   4.566  0.2595  0.4148  0.0727
15787TIP3    H168776   4.829   4.191   4.472  0.1738 -1.2359  0.1936
15787TIP3    H268777   4.903   4.184   4.604 -0.0126 -0.4294  0.3479
15788TIP3   OH268778   0.507   2.494   5.628  0.1792 -0.3241 -0.1459
15788TIP3    H168779   0.505   2.506   5.722 -0.3900  0.8934 -0.2952
15788TIP3    H268780   0.425   2.533   5.597 -0.1771 -1.6925 -1.0476
15789TIP3   OH268781   5.968   0.916  11.540  0.2137  0.1673 -0.2616
15789TIP3    H168782   6.047   0.909  11.594 -1.6149 -1.9944  2.4146
15789TIP3    H268783   5.940   1.007  11.549  0.5757  0.1330  1.6111
15790TIP3   OH268784   5.817   1.411  15.758  0.4002 -0.1161  0.3758
15790TIP3    H168785   5.793   1.406  15.851  0.1034  1.5055  0.4008
15790TIP3    H268786   5.846   1.501  15.746 -1.0567  0.1440 -1.4747
15791TIP3   OH268787   4.818   2.675  13.272  0.2990 -0.2656 -0.5255
15791TIP3    H168788   4.797   2.608  13.206 -1.2085 -0.6507  0.2819
15791TIP3    H268789   4.882   2.634  13.329 -0.8317 -1.1825  0.1332
15792TIP3   OH268790   4.511   2.950   4.963  0.5280  0.0264  0.5694
15792TIP3    H168791   4.525   2.987   5.050 -2.9768  0.4288  1.1078
15792TIP3    H268792   4.464   2.868   4.980 -1.2013  0.6562 -0.9081
15793TIP3   OH268793   5.993   5.223  16.606 -0.2715 -0.1794 -0.4441
15793TIP3    H168794   6.077   5.240  16.649 -0.8045  1.4417  0.0129
15793TIP3    H268795   5.976   5.302  16.556 -0.9606 -0.9886 -1.5114
15794TIP3   OH268796   4.194   5.384  16.697 -0.1627 -0.0974  0.4218
15794TIP3    H168797   4.148   5.407  16.778 -1.1214  1.2232 -0.4751
15794TIP3    H268798   4.159   5.443  16.631  0.1868 -1.5320 -1.1164
15795TIP3   OH268799   4.211   4.472   4.664  0.0210 -0.2002 -0.0089
15795TIP3    H168800   4.300   4.481   4.631  0.9307  1.3042  2.5441
15795TIP3    H268801   4.215   4.402   4.728 -1.0033 -1.0653 -0.8417
15796TIP3   OH268802   5.029   1.901  11.166 -0.1284  0.2098 -0.6198
15796TIP3    H168803   5.079   1.911  11.085  0.3470 -0.0839 -0.3697
15796TIP3    H268804   4.937   1.901  11.138 -0.0372  1.5515 -1.0042
15797TIP3   OH268805   4.669   3.331  11.291  0.0100 -0.2891 -0.6562
15797TIP3    H168806   4.763   3.320  11.305 -0.1199 -1.0133 -0.3141
15797TIP3    H268807   4.655   3.307  11.200  0.1298 -0.4112 -0.6436
15798TIP3   OH268808   3.406   5.963  11.728  0.6176  0.5645  0.0803
15798TIP3    H168809   3.417   6.030  11.661 -1.2815  1.4219  0.5879
15798TIP3    H268810   3.388   5.883  11.678 -0.2679  1.0867 -0.4685
15799TIP3   OH268811   5.419   1.265  13.665  0.7769 -0.0779  0.5820
15799TIP3    H168812   5.392   1.326  13.734  1.5236  1.0763 -0.1219
15799TIP3    H268813   5.513   1.256  13.676  0.7706 -0.5853  0.2495
15800TIP3   OH268814   6.467   5.106   0.232  0.0595  0.2369 -0.3971
15800TIP3    H168815   6.490   5.064   0.315  0.8262  0.7926 -0.3289
15800TIP3    H268816   6.461   5.199   0.252  0.0971  0.3583 -0.9387
15801TIP3   OH268817   3.694   2.732  13.407  0.5658  0.4374  0.4369
15801TIP3    H168818   3.649   2.701  13.486  1.1644 -0.1827  0.5359
15801TIP3    H268819   3.767   2.785  13.439 -0.3739  1.9061  0.2727
15802TIP3   OH268820   3.976   1.600   3.078  0.0377 -0.0773  0.7003
15802TIP3    H168821   3.951   1.656   3.003  0.4400 -1.2615 -0.3473
15802TIP3    H268822   3.994   1.662   3.148  2.0048  1.2602 -0.8595
15803TIP3   OH268823   3.860   2.937   5.225 -0.1910  0.0036 -0.1502
15803TIP3    H168824   3.907   2.998   5.283 -1.7996  0.6937  0.4999
15803TIP3    H268825   3.916   2.929   5.148 -0.0125  2.5516 -0.3929
15804TIP3   OH268826   0.588   3.258   0.369 -0.2697  0.0603 -0.3254
15804TIP3    H168827   0.551   3.332   0.322 -2.1190 -0.1526  0.6959
15804TIP3    H268828   0.575   3.279   0.461  1.9992 -0.1667  0.1081
15805TIP3   OH268829   6.641   5.421  14.046  0.0336 -0.0655 -0.1131
15805TIP3    H168830   6.667   5.488  14.109 -1.0039 -1.3317  1.7485
15805TIP3    H268831   6.719   5.406  13.993  1.0945  0.7046  1.1709
15806TIP3   OH268832   5.666   0.299  11.409 -0.0882  0.0019 -0.5038
15806TIP3    H168833   5.653   0.211  11.375 -1.4251 -0.3161  0.7097
15806TIP3    H268834   5.758   0.301  11.435  0.0513 -0.9041 -0.8888
15807TIP3   OH268835   3.867   6.054   2.990  0.4964  1.0580  0.0450
15807TIP3    H168836   3.915   6.055   2.907 -1.0352  2.1143 -0.9001
15807TIP3    H268837   3.777   6.075   2.965 -0.8608 -2.2832  1.5208
15808TIP3   OH268838   2.388   3.561  13.734 -0.3955  0.2842  0.1078
15808TIP3    H168839   2.349   3.474  13.738 -3.7227  1.6375  0.5926
15808TIP3    H268840   2.435   3.570  13.817 -1.3506 -0.5103  0.7665
15809TIP3   OH268841   0.478   1.807  13.054 -0.0353  0.2071 -0.2722
15809TIP3    H168842   0.417   1.811  12.980  1.4446  0.2913 -1.5556
15809TIP3    H268843   0.454   1.727  13.100 -1.3270  0.4188 -0.5343
15810TIP3   OH268844   5.775   4.762  11.237  0.5844 -0.1516 -0.1233
15810TIP3    H168845   5.863   4.796  11.219  0.5336 -0.5929 -1.2789
15810TIP3    H268846   5.791   4.673  11.268  0.5290 -0.3884 -0.7647
15811TIP3   OH268847   0.865   5.465   4.670 -0.0670  0.2091  0.2872
15811TIP3    H168848   0.819   5.523   4.608  1.2187  0.2321 -0.6803
15811TIP3    H268849   0.931   5.421   4.617  0.5399 -0.3814  1.4998
15812TIP3   OH268850   3.468   4.117  15.774 -0.3448 -0.0255 -0.3645
15812TIP3    H168851   3.548   4.083  15.733 -1.3979  0.9789 -3.5266
15812TIP3    H268852   3.494   4.203  15.809  0.1130 -0.0268 -0.6952
15813TIP3   OH268853   2.331   4.818   2.033  0.6537 -0.1072 -0.2910
15813TIP3    H168854   2.278   4.739   2.020 -0.2340  0.2249  1.1184
15813TIP3    H268855   2.293   4.882   1.973  0.5219 -0.3491 -0.4688
15814TIP3   OH268856   2.485   5.756  10.686  0.0169  0.0897 -0.8118
15814TIP3    H168857   2.485   5.848  10.713  1.0021  0.4951 -2.1019
15814TIP3    H268858   2.554   5.750  10.620  3.7550 -2.6497  2.8167
15815TIP3   OH268859   4.238   0.640   4.311  0.2019 -0.3587  0.6310
15815TIP3    H168860   4.181   0.675   4.242  2.2224  1.5936 -0.1858
15815TIP3    H268861   4.258   0.551   4.284 -2.7226 -1.2786  1.1845
15816TIP3   OH268862   4.804   1.999   1.595 -0.0932  0.0942  0.0238
15816TIP3    H168863   4.711   2.012   1.579  0.1285 -0.3268 -1.8607
15816TIP3    H268864   4.846   2.077   1.559  0.4375 -0.8195 -1.4121
15817TIP3   OH268865   1.853   0.896  14.281 -0.1552 -0.4115  0.2051
15817TIP3    H168866   1.770   0.863  14.246 -0.4243 -0.1907  0.6205
15817TIP3    H268867   1.878   0.966  14.221  0.4915 -1.4492 -0.7579
15818TIP3   OH268868   5.167   2.753  12.493 -0.3927 -0.1396  0.1291
15818TIP3    H168869   5.147   2.744  12.586  0.3610 -2.4613  0.1351
15818TIP3    H268870   5.118   2.682  12.451  1.0210 -0.5368 -0.9268
15819TIP3   OH268871   5.850   4.794  14.356 -0.1789  0.3784  0.3458
15819TIP3    H168872   5.794   4.831  14.289 -2.0843 -0.7415  1.2272
15819TIP3    H268873   5.824   4.840  14.437 -1.3407 -1.5069  1.1250
15820TIP3   OH268874   4.235   1.288  15.478  0.4331  0.6304  0.1188
15820TIP3    H168875   4.288   1.346  15.423  0.3984  0.6806  0.1377
15820TIP3    H268876   4.272   1.201  15.464 -0.9177  0.2795 -1.6343
15821TIP3   OH268877   0.493   2.367  12.441  0.5491 -0.2056  0.2499
15821TIP3    H168878   0.520   2.283  12.405  1.7717 -0.7430  2.2518
15821TIP3    H268879   0.480   2.423  12.364  3.0557 -1.2426 -1.0674
15822TIP3   OH268880   0.799   6.713  14.379 -0.0669 -0.0231  0.5448
15822TIP3    H168881   0.879   6.766  14.376  0.1238 -0.3407 -0.2958
15822TIP3    H268882   0.729   6.776  14.398  0.0314  0.7020 -1.3420
15823TIP3   OH268883   5.772   1.921  16.290 -0.1310 -0.5725 -0.0658
15823TIP3    H168884   5.699   1.862  16.309 -0.0833 -0.1613  1.5352
15823TIP3    H268885   5.844   1.888  16.344  0.1185  0.4924  0.2754
15824TIP3   OH268886   0.208   0.162   1.209  0.0692  0.0332 -0.4620
15824TIP3    H168887   0.239   0.077   1.240 -0.9039 -1.1477 -2.5242
15824TIP3    H268888   0.286   0.205   1.175  0.6712  0.2388  1.1358
15825TIP3   OH268889   3.266   6.066   1.927  0.4722  0.4581 -0.4724
15825TIP3    H168890   3.302   6.086   2.013  0.1014  0.9864 -0.4336
15825TIP3    H268891   3.258   6.151   1.884  2.3921  0.0521 -1.7494
15826TIP3   OH268892   1.165   0.423   1.653 -0.3311  0.4350  0.6024
15826TIP3    H168893   1.117   0.481   1.711 -1.4514  0.6890 -0.5164
15826TIP3    H268894   1.171   0.471   1.570  0.2586 -0.3383  0.1802
15827TIP3   OH268895   4.131   2.110  16.992  0.0902 -0.4160 -0.2903
15827TIP3    H168896   4.106   2.020  16.970 -0.4329 -0.2864 -0.2383
15827TIP3    H268897   4.227   2.110  16.987  0.1229 -1.1073  0.2315
15828TIP3   OH268898   2.906   6.203   0.087 -0.1908  0.5405 -0.2627
15828TIP3    H168899   2.834   6.256   0.054 -1.6771 -1.4980 -0.4948
15828TIP3    H268900   2.953   6.176   0.009 -1.7585 -1.5846 -0.5555
15829TIP3   OH268901   2.363   2.352  14.375 -0.3424  0.3362  0.1911
15829TIP3    H168902   2.395   2.362  14.464 -0.1249  0.8964  0.0534
15829TIP3    H268903   2.320   2.435  14.355 -0.9347 -0.0176 -0.0049
15830TIP3   OH268904   3.902   3.199  14.899 -0.2210  0.0275 -0.0601
15830TIP3    H168905   3.982   3.161  14.863 -0.3121  0.2776 -0.5399
15830TIP3    H268906   3.832   3.165  14.843 -0.4380 -0.1001  0.2875
15831TIP3   OH268907   6.239   1.021  15.637 -0.7260  0.4715  0.1549
15831TIP3    H168908   6.190   1.103  15.642 -0.1728  0.7652  1.2163
15831TIP3    H268909   6.191   0.961  15.694 -0.6009  0.3625  0.1458
15832TIP3   OH268910   0.999   4.514  16.445 -0.1482  0.2925  0.5176
15832TIP3    H168911   1.076   4.570  16.439 -0.1066  0.1035 -1.3103
15832TIP3    H268912   1.027   4.441  16.501  0.4387  1.0572  1.2476
15833TIP3   OH268913   2.319   6.049   4.795  0.4100  0.4386  0.2713
15833TIP3    H168914   2.254   5.999   4.844  1.6941 -1.4803  0.1336
15833TIP3    H268915   2.334   5.998   4.716  1.6980  1.1220  0.0487
15834TIP3   OH268916   5.109   2.892   2.607 -0.3663 -0.5471  0.0848
15834TIP3    H168917   5.184   2.875   2.550  0.6980  0.2710  1.1981
15834TIP3    H268918   5.033   2.886   2.549  0.6497 -0.1504 -1.3297
15835TIP3   OH268919   0.357   2.581  13.375  0.0125  0.7437  0.7126
15835TIP3    H168920   0.352   2.620  13.288 -1.1115 -0.2395  0.3143
15835TIP3    H268921   0.305   2.501  13.369 -2.9957  2.3228  3.2031
15836TIP3   OH268922   5.475   0.463   2.171  0.1345  0.3170  0.4678
15836TIP3    H168923   5.396   0.515   2.153  0.5781  0.2945 -1.9274
15836TIP3    H268924   5.507   0.497   2.254 -1.6442  1.2790  0.8236
15837TIP3   OH268925   1.058   0.806  11.852  0.3005 -0.1039 -0.2530
15837TIP3    H168926   1.116   0.732  11.836  1.5305  1.0594 -1.3692
15837TIP3    H268927   1.091   0.875  11.795 -0.6260  1.4097  0.9733
15838TIP3   OH268928   4.476   1.392  14.046  0.4252  0.7459 -0.2894
15838TIP3    H168929   4.407   1.383  13.980 -0.2934  1.9431  0.2665
15838TIP3    H268930   4.441   1.348  14.123 -2.1495  5.5213  1.7215
15839TIP3   OH268931   1.238   5.155   4.520  0.0035 -0.3124 -0.1552
15839TIP3    H168932   1.293   5.210   4.576 -0.0166 -2.2352  1.9173
15839TIP3    H268933   1.148   5.183   4.542  0.0390  0.4902 -0.9798
15840TIP3   OH268934   3.636   2.073  12.851 -0.2553  0.3710  0.2654
15840TIP3    H168935   3.661   2.153  12.805 -0.6087  0.4896  0.2774
15840TIP3    H268936   3.545   2.059  12.828  0.4876 -1.5087 -1.8954
15841TIP3   OH268937   3.814   0.047  11.677  0.4077  0.5663 -0.3100
15841TIP3    H168938   3.808   0.015  11.767 -0.5317 -0.4640 -0.7218
15841TIP3    H268939   3.905   0.029  11.651  0.0083 -1.5059 -0.4039
15842TIP3   OH268940   4.469   0.506   4.572 -0.6365  0.1649  0.2855
15842TIP3    H168941   4.378   0.502   4.601 -0.8665 -2.2378 -0.5794
15842TIP3    H268942   4.498   0.415   4.570  1.1229  0.6957 -1.4721
15843TIP3   OH268943   6.315   5.718   4.437 -0.0720  0.5072  0.1722
15843TIP3    H168944   6.320   5.774   4.359 -1.5123 -0.1969 -0.4694
15843TIP3    H268945   6.335   5.630   4.405 -0.0022  0.3134  0.7371
15844TIP3   OH268946   5.990   1.669   6.206 -0.2178 -0.0386  0.7179
15844TIP3    H168947   6.073   1.716   6.204 -0.6522  0.7525  0.7740
15844TIP3    H268948   5.968   1.656   6.114  0.7232 -1.6600  0.6809
15845TIP3   OH268949   0.507   3.713   3.326 -0.0192  0.3582 -0.4616
15845TIP3    H168950   0.416   3.686   3.340  0.7208 -1.9257  0.4441
15845TIP3    H268951   0.556   3.632   3.326  1.9555  1.4751 -1.8240
15846TIP3   OH268952   5.831   0.145   3.846  0.0260 -0.0528  0.0630
15846TIP3    H168953   5.919   0.148   3.884  0.1479  1.3939 -0.2882
15846TIP3    H268954   5.794   0.231   3.865 -1.0726 -0.4210 -0.3695
15847TIP3   OH268955   4.409   3.365   3.428  0.2076 -0.3917  0.1596
15847TIP3    H168956   4.341   3.378   3.361  0.0309 -1.8905  0.0121
15847TIP3    H268957   4.360   3.359   3.510  0.4519  1.8305  0.5342
15848TIP3   OH268958   5.675   1.523   0.601  0.0934  0.1852 -0.4357
15848TIP3    H168959   5.680   1.604   0.651 -0.8872 -0.2623  0.4378
15848TIP3    H268960   5.588   1.488   0.620  1.4655 -2.5390  1.5983
15849TIP3   OH268961   0.860   2.780  12.608  0.4539 -0.2462  0.1839
15849TIP3    H168962   0.854   2.690  12.575  0.4235 -0.0789 -0.2808
15849TIP3    H268963   0.783   2.791  12.663 -1.3160  0.4846 -2.2424
15850TIP3   OH268964   2.640   5.440  15.269  0.0989 -0.2528 -0.2451
15850TIP3    H168965   2.615   5.507  15.205  0.6607 -2.5748 -3.1154
15850TIP3    H268966   2.731   5.420  15.250  0.6497 -0.2941  2.0911
15851TIP3   OH268967   0.749   4.277   1.164 -0.5004 -0.1492 -0.3460
15851TIP3    H168968   0.679   4.329   1.203 -0.6239 -0.2044 -0.4894
15851TIP3    H268969   0.706   4.231   1.091  0.0061  0.9488 -1.3646
15852TIP3   OH268970   5.610   5.448   5.027  0.5409  0.4166 -0.5827
15852TIP3    H168971   5.588   5.501   5.104 -1.2002 -2.4572  1.0699
15852TIP3    H268972   5.654   5.371   5.063 -0.1350 -0.9036 -2.4563
15853TIP3   OH268973   5.907   6.515  16.315  0.0079  0.1074 -0.6245
15853TIP3    H168974   5.941   6.491  16.229 -0.0824 -0.9924 -0.3659
15853TIP3    H268975   5.985   6.516  16.372  0.1015  1.0551 -0.7508
15854TIP3   OH268976   2.658   2.719  13.682  0.3873  0.7518  0.2724
15854TIP3    H168977   2.689   2.776  13.752  2.8049  0.6968 -0.6576
15854TIP3    H268978   2.666   2.630  13.718  1.1476  0.7540  0.1297
15855TIP3   OH268979   5.736   4.510  15.830  0.0411 -0.4630  0.0224
15855TIP3    H168980   5.801   4.572  15.796  0.1902  0.4807  1.8925
15855TIP3    H268981   5.661   4.520  15.772  0.6539  0.3029 -0.6630
15856TIP3   OH268982   5.079   2.774  14.453  0.3275 -0.4648 -0.1881
15856TIP3    H168983   5.080   2.799  14.361 -0.6673 -0.1829 -0.1401
15856TIP3    H268984   5.034   2.846  14.497  3.3324  0.8269  1.0033
15857TIP3   OH268985   2.900   0.235   5.695  0.1735  0.2779 -0.6338
15857TIP3    H168986   2.825   0.180   5.674 -1.7351  2.2896  0.4845
15857TIP3    H268987   2.941   0.193   5.770 -1.6695  0.6530  0.6597
15858TIP3   OH268988   4.048   3.510   3.568 -0.0800 -0.4368 -0.1201
15858TIP3    H168989   4.090   3.585   3.612  1.4101 -1.5595  0.4511
15858TIP3    H268990   3.967   3.497   3.617 -0.4590  0.9047 -0.3474
15859TIP3   OH268991   2.718   2.732  14.852  0.4764  0.5981 -0.2656
15859TIP3    H168992   2.712   2.802  14.918  0.8419  0.4563 -0.0774
15859TIP3    H268993   2.631   2.694  14.849  0.5179  0.4535  0.3046
15860TIP3   OH268994   6.166   1.003   3.905 -0.1114  0.4810  0.1175
15860TIP3    H168995   6.243   0.955   3.935 -0.7743 -0.7578 -0.1319
15860TIP3    H268996   6.095   0.939   3.906 -1.2227  1.6618  0.6160
15861TIP3   OH268997   5.143   3.432   4.038  0.0257  0.2831  0.6739
15861TIP3    H168998   5.109   3.521   4.027 -0.4772  0.4094  2.8135
15861TIP3    H268999   5.067   3.376   4.028  0.6340 -0.1446 -2.5274
15862TIP3   OH269000   0.031   1.768  11.277  0.0590  0.9961 -0.4135
15862TIP3    H169001  -0.025   1.822  11.333  0.7715  1.3688 -0.0475
15862TIP3    H269002   0.023   1.808  11.190 -1.6573 -0.0450 -0.7830
15863TIP3   OH269003   2.132   5.313   5.397  0.2175  0.1092 -0.0217
15863TIP3    H169004   2.061   5.289   5.457  0.4793  1.0204  0.6780
15863TIP3    H269005   2.208   5.326   5.454  0.8879 -0.6148 -0.7419
15864TIP3   OH269006   5.899   3.904   0.888  0.3889  0.0987  0.0966
15864TIP3    H169007   5.810   3.928   0.913  0.0623  1.4901 -2.1891
15864TIP3    H269008   5.916   3.823   0.937 -2.4117 -0.6334  0.0373
15865TIP3   OH269009   1.596   0.111  14.767  0.1147 -0.2508 -0.3816
15865TIP3    H169010   1.605   0.206  14.762  0.1012 -0.2218  0.1101
15865TIP3    H269011   1.661   0.084  14.833 -1.9065 -0.2668  1.7074
15866TIP3   OH269012   1.103   1.787   5.475  0.1178  0.5619  0.7679
15866TIP3    H169013   1.034   1.850   5.496 -1.8237 -1.6253  1.4092
15866TIP3    H269014   1.160   1.787   5.552 -0.8367  0.3439  1.4888
15867TIP3   OH269015   2.961   1.380   0.973  0.9325  1.0687  0.3381
15867TIP3    H169016   2.931   1.355   1.060 -0.9424  1.0002 -0.2945
15867TIP3    H269017   3.044   1.425   0.989  1.0714  0.2933  2.0646
15868TIP3   OH269018   6.547   2.674  16.799 -0.1755  0.6645 -0.5557
15868TIP3    H169019   6.614   2.730  16.837 -0.5860  0.4391  0.5481
15868TIP3    H269020   6.482   2.735  16.765 -0.0959  0.8740 -0.3404
15869TIP3   OH269021   5.634   6.507   5.998  0.5606 -0.2827  0.2762
15869TIP3    H169022   5.597   6.430   6.041 -0.5800  0.1650  0.1410
15869TIP3    H269023   5.728   6.497   6.007  0.6462 -3.2070 -2.2978
15870TIP3   OH269024   4.384   4.353   0.160 -0.3954 -0.5217  0.3179
15870TIP3    H169025   4.294   4.375   0.185 -0.2215  0.3805  0.1781
15870TIP3    H269026   4.427   4.330   0.242 -0.9723 -1.7815  0.2799
15871TIP3   OH269027   1.625   4.797  16.120 -0.1399  0.1168 -0.4420
15871TIP3    H169028   1.608   4.775  16.212 -3.0916 -0.1154 -0.9530
15871TIP3    H269029   1.717   4.824  16.119 -0.1669  0.7325  2.6904
15872TIP3   OH269030   3.974   1.515  14.681 -0.7538  0.0410  0.1489
15872TIP3    H169031   3.972   1.573  14.605  0.9762  0.0445  0.0614
15872TIP3    H269032   4.066   1.489  14.689 -0.9978 -0.4441  1.8805
15873TIP3   OH269033   1.680   6.250  17.028 -0.0223  0.6204  0.4285
15873TIP3    H169034   1.599   6.272  17.074  0.9390  0.9840  2.0349
15873TIP3    H269035   1.685   6.315  16.958 -1.0448  0.6930  0.4083
15874TIP3   OH269036   5.175   0.216  14.198  0.0816  0.4700 -0.3450
15874TIP3    H169037   5.199   0.217  14.106  1.3266 -0.5589 -0.0601
15874TIP3    H269038   5.244   0.165  14.241  0.5772  2.4868  1.4466
15875TIP3   OH269039   3.132   3.881  14.440 -0.8695 -0.6096 -0.2157
15875TIP3    H169040   3.157   3.965  14.403  2.1842 -0.7090  1.2930
15875TIP3    H269041   3.045   3.863  14.404 -1.7294  3.2276 -0.4669
15876TIP3   OH269042   2.667   4.315  12.757 -0.1381 -0.2668 -0.6293
15876TIP3    H169043   2.744   4.264  12.731  0.0214  0.2463 -1.1882
15876TIP3    H269044   2.610   4.313  12.680 -0.2907  0.0878 -0.5263
15877TIP3   OH269045   5.618   4.801  12.886  0.2258 -0.0956  0.4889
15877TIP3    H169046   5.538   4.785  12.935 -0.0804 -0.7073 -0.1925
15877TIP3    H269047   5.668   4.863  12.940  0.6280 -1.9404  2.3292
15878TIP3   OH269048   4.389   6.804  14.086 -0.0632  0.2540 -0.2529
15878TIP3    H169049   4.326   6.740  14.117 -0.5708  0.2456 -1.2347
15878TIP3    H269050   4.366   6.816  13.993  1.9650 -0.4572 -0.8941
15879TIP3   OH269051   1.915   2.641   2.809  0.5712  0.1864  0.1536
15879TIP3    H169052   1.884   2.668   2.722  1.1502  0.0034 -0.1176
15879TIP3    H269053   1.984   2.577   2.791  1.2871  0.7719  0.7227
15880TIP3   OH269054   3.607   4.779   3.907  0.2752  0.4048 -0.0774
15880TIP3    H169055   3.577   4.727   3.832  0.2727 -1.2446  1.0135
15880TIP3    H269056   3.692   4.743   3.929  0.9311  1.8402 -0.1363
15881TIP3   OH269057   6.756   2.399  12.462  0.9083 -0.4806  0.0332
15881TIP3    H169058   6.851   2.409  12.449  0.5291  0.0374 -3.0606
15881TIP3    H269059   6.733   2.470  12.522  2.0322  1.5603 -1.8139
15882TIP3   OH269060   2.594   1.767  15.346 -0.9744  0.0316  0.0180
15882TIP3    H169061   2.685   1.790  15.361 -1.1368 -0.0700  1.2166
15882TIP3    H269062   2.543   1.838  15.384 -1.4144  0.6850 -1.6819
15883TIP3   OH269063   0.534   3.885  13.697  0.2720  0.2038  0.0168
15883TIP3    H169064   0.576   3.819  13.752  1.8305 -0.2407 -1.6135
15883TIP3    H269065   0.471   3.928  13.755 -1.6940 -3.4133  0.8973
15884TIP3   OH269066   5.786   2.853  10.971 -0.4145 -0.0843  0.5057
15884TIP3    H169067   5.785   2.757  10.963 -2.7046 -0.1387  0.6480
15884TIP3    H269068   5.748   2.870  11.057 -0.4674  0.9525  0.2916
15885TIP3   OH269069   2.825   3.545  14.036  0.4008  0.4105  0.8924
15885TIP3    H169070   2.907   3.496  14.026 -0.7812 -1.7401  1.2861
15885TIP3    H269071   2.844   3.630  13.996  1.8646 -1.0891 -1.9093
15886TIP3   OH269072   1.057   6.215  11.629 -0.0010 -0.4392  0.5168
15886TIP3    H169073   0.968   6.209  11.663  0.5596 -1.7346  1.9253
15886TIP3    H269074   1.057   6.291  11.571 -2.0400 -0.5164  0.3692
15887TIP3   OH269075   3.870   1.955   0.325  0.0429 -0.5695 -0.0832
15887TIP3    H169076   3.791   1.970   0.273 -0.0149 -0.6592 -0.0214
15887TIP3    H269077   3.850   1.877   0.376 -0.0454 -0.2666  0.3557
15888TIP3   OH269078   1.750   0.605  16.839  0.1194  0.5005 -0.4342
15888TIP3    H169079   1.665   0.566  16.859 -0.3291  1.3585 -0.6230
15888TIP3    H269080   1.804   0.587  16.917 -0.2441  0.0093 -0.2919
15889TIP3   OH269081   1.355   3.094  16.149 -0.0611 -0.0446 -0.8696
15889TIP3    H169082   1.272   3.056  16.178  0.6844 -1.8028 -0.9580
15889TIP3    H269083   1.331   3.151  16.076 -1.2234 -0.2565 -0.6679
15890TIP3   OH269084   4.328   4.595  15.827  0.2800  0.1212 -0.1472
15890TIP3    H169085   4.354   4.537  15.756  0.4407 -1.2549  0.9903
15890TIP3    H269086   4.407   4.606  15.879  0.0174  0.6281  0.1471
15891TIP3   OH269087   0.555   0.691  11.443 -0.7775  0.1315 -0.2050
15891TIP3    H169088   0.537   0.643  11.524 -2.8478 -0.7255 -1.0981
15891TIP3    H269089   0.594   0.774  11.473  0.6308 -1.0592  1.5005
15892TIP3   OH269090   3.849   4.806  16.213  0.4752 -0.4660  0.1671
15892TIP3    H169091   3.844   4.892  16.254 -1.4805  0.4762 -1.8511
15892TIP3    H269092   3.934   4.805  16.169  1.2521 -0.3052  1.5937
15893TIP3   OH269093   2.061   3.216  14.123 -0.2039  0.2273 -0.1476
15893TIP3    H169094   2.018   3.140  14.082 -1.0851 -0.2884  1.6546
15893TIP3    H269095   1.988   3.271  14.152  0.2815 -0.5024  2.6879
15894TIP3   OH269096   4.742   2.223  12.420 -0.7314  0.3660 -0.4512
15894TIP3    H169097   4.654   2.208  12.385 -0.9637  0.1437  0.2110
15894TIP3    H269098   4.792   2.145  12.394 -1.1373 -0.2086  0.4353
15895TIP3   OH269099   3.834   0.967   2.176  0.0526 -0.3728  0.3444
15895TIP3    H169100   3.881   0.899   2.129 -0.6645  0.1017 -1.1361
15895TIP3    H269101   3.902   1.020   2.217  0.7370 -0.6748 -0.3749
15896TIP3   OH269102   0.503   4.499  16.000  1.1057 -0.6937  0.5274
15896TIP3    H169103   0.426   4.546  16.033  2.0656 -0.9834  3.4247
15896TIP3    H269104   0.526   4.545  15.919 -0.7462  0.8152  0.7925
15897TIP3   OH269105   6.216   5.279  16.752  0.0727  0.7578  0.6080
15897TIP3    H169106   6.264   5.361  16.762  1.6850  0.4484 -2.8933
15897TIP3    H269107   6.277   5.211  16.781 -0.2686  0.6551  1.0853
15898TIP3   OH269108   0.222   6.266   5.265  0.0692  0.4650  0.3161
15898TIP3    H169109   0.183   6.180   5.251 -0.9595  1.1581 -1.2495
15898TIP3    H269110   0.253   6.264   5.356  0.7180 -1.7919  0.0881
15899TIP3   OH269111   4.706   5.796  11.675  0.4042 -0.1176  0.1937
15899TIP3    H169112   4.694   5.702  11.683 -1.6314  0.0222 -0.6931
15899TIP3    H269113   4.619   5.833  11.692  0.5017  1.4047 -2.1919
15900TIP3   OH269114   5.635   1.878  12.295  0.2096  0.5295 -0.2156
15900TIP3    H169115   5.622   1.972  12.294 -0.9654  0.3796  0.1324
15900TIP3    H269116   5.684   1.860  12.214 -0.5084  1.3019 -0.8416
15901TIP3   OH269117   4.535   5.986   0.753  0.3338  0.3589  0.1971
15901TIP3    H169118   4.529   5.902   0.709 -0.2366  0.5812 -0.1600
15901TIP3    H269119   4.517   6.051   0.685  1.6733  0.8270  0.2532
15902TIP3   OH269120   5.585   3.755  16.149 -0.7882 -0.1543  0.3902
15902TIP3    H169121   5.546   3.787  16.068 -0.4186 -1.4152 -0.3180
15902TIP3    H269122   5.642   3.825  16.178 -1.6224  0.6835  0.0617
15903TIP3   OH269123   3.204   3.393   4.775  0.3756 -0.5092 -0.0285
15903TIP3    H169124   3.274   3.332   4.802 -0.4657 -1.3363  0.3505
15903TIP3    H269125   3.147   3.400   4.851 -1.5871 -2.2226 -1.2228
15904TIP3   OH269126   4.451   0.532   3.966  0.1941  0.2928  0.1275
15904TIP3    H169127   4.458   0.624   3.992 -0.3193  0.3384  0.1270
15904TIP3    H269128   4.535   0.512   3.924  0.8093  0.3757  1.3020
15905TIP3   OH269129   4.359   6.337  14.635  0.4173 -0.8242  0.3337
15905TIP3    H169130   4.371   6.369  14.545  0.8523 -2.8471 -0.3749
15905TIP3    H269131   4.416   6.260  14.640  0.8568 -0.4101  2.5542
15906TIP3   OH269132   3.251   6.222  16.431  0.1633  0.1223 -0.1470
15906TIP3    H169133   3.250   6.316  16.445 -3.1560  0.0442  1.1000
15906TIP3    H269134   3.327   6.191  16.480  0.1951  1.9851  1.0877
15907TIP3   OH269135   2.098   1.397   3.049 -0.2810 -0.9241 -0.2129
15907TIP3    H169136   2.096   1.491   3.065  0.9642 -0.7603 -0.9365
15907TIP3    H269137   2.112   1.359   3.136 -0.1414 -0.4095 -0.0060
15908TIP3   OH269138   6.383   6.472  10.336  0.1231  0.5881  0.1600
15908TIP3    H169139   6.309   6.519  10.298  0.7437  1.2221 -0.2947
15908TIP3    H269140   6.419   6.532  10.401  1.3028  1.0339 -0.8636
15909TIP3   OH269141   4.222   1.490  14.194  0.3583 -0.1729  0.3156
15909TIP3    H169142   4.250   1.490  14.103 -0.0851 -1.3263  0.1589
15909TIP3    H269143   4.166   1.567  14.203 -1.4948 -1.2956 -1.0146
15910TIP3   OH269144   3.192   6.550  13.158 -0.2805  0.1121  0.3487
15910TIP3    H169145   3.198   6.494  13.081  0.9819  0.7317 -0.0352
15910TIP3    H269146   3.244   6.627  13.136  2.4356 -0.8403  2.7864
15911TIP3   OH269147   2.202   3.075   4.180  0.6270  0.4403  0.2133
15911TIP3    H169148   2.113   3.040   4.181  1.1200 -1.0050  2.9547
15911TIP3    H269149   2.205   3.134   4.256  1.0433  3.4162 -1.9193
15912TIP3   OH269150   5.784   5.102  16.745  0.0984  0.0738 -0.1721
15912TIP3    H169151   5.740   5.053  16.675  2.3153 -1.8947 -0.3200
15912TIP3    H269152   5.837   5.167  16.699  0.9622 -0.7106 -0.3089
15913TIP3   OH269153   1.222   5.028  11.348 -0.3792  0.0743 -0.3991
15913TIP3    H169154   1.228   5.120  11.372 -2.0035 -0.1213  0.8882
15913TIP3    H269155   1.272   5.021  11.266  0.1188  1.9885 -0.2933
15914TIP3   OH269156   1.990   3.386   2.030  0.1352 -0.4683 -0.2757
15914TIP3    H169157   1.982   3.349   1.943 -2.9614  0.5774 -0.5528
15914TIP3    H269158   2.043   3.465   2.018 -2.0745  0.8993 -1.7419
15915TIP3   OH269159   6.592   5.230  12.762 -0.0067 -0.2740 -0.0951
15915TIP3    H169160   6.638   5.157  12.720  1.5185  0.5183  0.1493
15915TIP3    H269161   6.599   5.211  12.856 -0.8862 -0.5449 -0.0736
15916TIP3   OH269162   6.822   4.070   3.506 -0.1266 -0.4020 -0.3212
15916TIP3    H169163   6.770   4.138   3.548  0.6506 -1.0459  1.8421
15916TIP3    H269164   6.897   4.116   3.468 -1.1277  0.2649 -1.5614
15917TIP3   OH269165   4.673   3.059  13.164 -0.5407 -0.2750 -0.2655
15917TIP3    H169166   4.592   3.009  13.155 -1.1575  0.3696  1.3246
15917TIP3    H269167   4.668   3.127  13.097 -1.0528 -0.5628 -0.5230
15918TIP3   OH269168   3.751   1.910   1.277 -0.3037 -0.5451 -0.0250
15918TIP3    H169169   3.662   1.890   1.248  0.0018  2.2313 -3.7593
15918TIP3    H269170   3.741   1.980   1.341 -0.8533 -0.7934  0.1576
15919TIP3   OH269171   2.769   2.211  10.326  0.4571  0.3388 -0.5432
15919TIP3    H169172   2.846   2.156  10.314  0.8391  0.6822  0.3026
15919TIP3    H269173   2.698   2.149  10.342  1.0094  0.0903  1.0890
15920TIP3   OH269174   6.827   6.365   1.461  0.3120 -0.3988 -0.4611
15920TIP3    H169175   6.863   6.445   1.422  1.2937 -1.7323 -2.4356
15920TIP3    H269176   6.806   6.390   1.551  1.4210  1.8318 -0.7480
15921TIP3   OH269177   2.262   6.186  15.633 -0.7462  0.4345 -0.0904
15921TIP3    H169178   2.301   6.270  15.657  1.7428 -0.2381 -1.5139
15921TIP3    H269179   2.197   6.170  15.702 -0.7580  3.1117  0.6571
15922TIP3   OH269180   1.012   0.510  12.647 -0.4978 -0.3253 -0.2431
15922TIP3    H169181   1.077   0.475  12.587 -1.4605 -0.1316 -1.4588
15922TIP3    H269182   1.051   0.500  12.734  0.2703 -2.0990 -0.7423
15923TIP3   OH269183   4.906   0.946  16.289  0.4574  0.1088 -0.4600
15923TIP3    H169184   4.903   0.901  16.373 -0.6795  1.6044  0.3511
15923TIP3    H269185   4.979   1.007  16.296  1.0870 -0.5593 -1.0150
15924TIP3   OH269186   2.138   4.442  10.864  0.0469 -0.4483  0.2131
15924TIP3    H169187   2.108   4.370  10.809 -0.0302  1.2686 -2.1131
15924TIP3    H269188   2.064   4.462  10.921 -0.2135 -1.6286  0.3076
15925TIP3   OH269189   1.157   4.763  14.231 -0.1675  0.4564 -0.3621
15925TIP3    H169190   1.205   4.844  14.219 -0.0571  0.2761 -1.1829
15925TIP3    H269191   1.066   4.786  14.213 -0.6560  1.1188  2.5393
15926TIP3   OH269192   4.671   0.088  11.190 -0.1773 -0.1397  0.4260
15926TIP3    H169193   4.633   0.094  11.277  0.7659 -0.5513  0.8791
15926TIP3    H269194   4.747   0.147  11.192 -0.4733  0.2802 -0.2939
15927TIP3   OH269195   1.211   5.606  17.028 -0.1399  0.2144  0.0160
15927TIP3    H169196   1.209   5.594  17.123 -0.3742  1.3687  0.1648
15927TIP3    H269197   1.149   5.541  16.994 -0.9237  0.5784  0.7340
15928TIP3   OH269198   2.234   0.710  10.842  0.4186  0.1596  0.0709
15928TIP3    H169199   2.157   0.689  10.789 -0.1517  1.3497  0.3697
15928TIP3    H269200   2.197   0.737  10.926  1.2225 -0.0833  0.5080
15929TIP3   OH269201   5.376   0.197   5.903  0.9065 -0.8982  0.3925
15929TIP3    H169202   5.404   0.275   5.951  1.8799 -1.2526  0.4262
15929TIP3    H269203   5.396   0.124   5.961 -0.2135 -1.1762  0.4563
15930TIP3   OH269204   4.960   4.835  11.628 -0.1970  0.3308  0.5443
15930TIP3    H169205   5.056   4.843  11.624 -0.0218 -0.2240  2.4458
15930TIP3    H269206   4.940   4.761  11.572  0.4162  0.7967 -0.3230
15931TIP3   OH269207   6.124   2.351   4.736 -0.2359  0.9067 -0.0784
15931TIP3    H169208   6.196   2.301   4.698 -0.3760 -0.0717  0.8633
15931TIP3    H269209   6.122   2.433   4.687  1.8177  1.1587  0.1836
15932TIP3   OH269210   2.666   0.528   0.329  0.0724  0.3254 -0.1229
15932TIP3    H169211   2.596   0.593   0.332  0.2486  0.6538 -2.0708
15932TIP3    H269212   2.627   0.452   0.287  0.4370 -0.1070  0.3051
15933TIP3   OH269213   0.325   2.578   0.457 -0.8330  0.3885 -0.4831
15933TIP3    H169214   0.412   2.566   0.419 -1.0090  0.3330 -0.8733
15933TIP3    H269215   0.276   2.500   0.429  0.0038 -1.4660  2.6869
15934TIP3   OH269216   0.887   1.471   1.523 -0.1482  0.3272 -0.6904
15934TIP3    H169217   0.824   1.519   1.578 -0.3708 -0.7286 -0.0051
15934TIP3    H269218   0.972   1.487   1.563 -0.3060 -0.4099 -0.0454
15935TIP3   OH269219   4.905   0.824   2.263  0.0556  0.1656  0.1650
15935TIP3    H169220   4.814   0.828   2.292  0.7096 -0.9364  2.5905
15935TIP3    H269221   4.941   0.910   2.287 -0.2785  0.5490 -0.6642
15936TIP3   OH269222   3.677   2.549   5.083  0.4012 -0.5522 -0.0514
15936TIP3    H169223   3.695   2.471   5.136 -1.2506 -0.0990  1.2976
15936TIP3    H269224   3.756   2.602   5.090 -0.0504 -0.0645  2.8798
15937TIP3   OH269225   0.018   4.052  14.532 -0.2723  1.3242  0.7451
15937TIP3    H169226   0.113   4.042  14.525 -0.0366  1.5516  3.0000
15937TIP3    H269227  -0.010   3.982  14.590 -1.7097  0.4935 -0.8393
15938TIP3   OH269228   3.407   5.593  11.227  0.2512 -0.3936 -0.3863
15938TIP3    H169229   3.435   5.646  11.302  0.2604  1.2669 -1.5106
15938TIP3    H269230   3.485   5.542  11.203  1.0925  1.0808 -0.9104
15939TIP3   OH269231   3.485   6.522   0.181 -0.3397  0.1814  0.2488
15939TIP3    H169232   3.458   6.479   0.262  1.4370 -1.6067 -0.0494
15939TIP3    H269233   3.550   6.587   0.208  1.7997 -1.7915  0.1898
15940TIP3   OH269234   5.927   6.819   5.070  0.1067 -0.2927  0.1711
15940TIP3    H169235   5.833   6.809   5.058  0.1925  0.1882 -1.0708
15940TIP3    H269236   5.966   6.786   4.989  0.8742  1.2671 -0.1518
15941TIP3   OH269237   4.699   1.030  14.832 -0.0664  0.3117  0.4759
15941TIP3    H169238   4.649   1.069  14.761 -0.2638 -0.7784 -0.0121
15941TIP3    H269239   4.666   0.940  14.839  1.6939 -0.4095  0.2234
15942TIP3   OH269240   6.361   5.446  15.455  0.1935  0.6268 -0.1631
15942TIP3    H169241   6.296   5.435  15.525  0.3703  0.4348 -0.0290
15942TIP3    H269242   6.422   5.374  15.468  0.2804  0.6462 -0.4598
15943TIP3   OH269243   4.729   3.281   3.250 -0.5188 -0.4794  0.2535
15943TIP3    H169244   4.743   3.245   3.163  0.2925  0.1233  0.1342
15943TIP3    H269245   4.812   3.322   3.273 -1.1199  0.4412  0.8063
15944TIP3   OH269246   2.770   5.104   1.784 -0.0878 -0.3151  0.6175
15944TIP3    H169247   2.803   5.040   1.721  1.6086  0.7139  0.3985
15944TIP3    H269248   2.838   5.109   1.851  0.0067  1.4987  0.4333
15945TIP3   OH269249   1.554   3.186  12.366 -0.2469 -0.2514  0.3380
15945TIP3    H169250   1.538   3.092  12.371 -2.4344  0.1312  1.9221
15945TIP3    H269251   1.485   3.219  12.307 -0.7032  0.5708  1.3067
15946TIP3   OH269252   2.232   2.384   1.524  0.1301 -0.0220  0.0900
15946TIP3    H169253   2.220   2.450   1.455  0.6405 -0.9615 -0.9266
15946TIP3    H269254   2.196   2.425   1.602 -1.1880  0.7862 -0.8865
15947TIP3   OH269255   1.118   5.633   5.928  0.1570 -0.1355  0.5527
15947TIP3    H169256   1.032   5.639   5.886  0.0467 -2.0423  0.4191
15947TIP3    H269257   1.151   5.547   5.902  0.5739 -0.9359  3.4464
15948TIP3   OH269258   2.150   2.750  11.476  0.4819 -0.0692 -0.5640
15948TIP3    H169259   2.218   2.722  11.415  0.6797 -0.6444 -0.0873
15948TIP3    H269260   2.198   2.783  11.552  0.2759  2.0967 -1.3046
15949TIP3   OH269261   1.437   5.507  11.385  0.4058 -0.7260 -0.0473
15949TIP3    H169262   1.467   5.574  11.447  0.2083 -0.6829  0.0026
15949TIP3    H269263   1.347   5.533  11.364  0.5318 -0.6407 -0.4893
15950TIP3   OH269264   6.236   6.255  12.066  0.1121  0.5551  0.6506
15950TIP3    H169265   6.221   6.304  11.986 -0.0601  1.7453  1.3876
15950TIP3    H269266   6.303   6.306  12.113  0.7382 -0.5005  0.9483
15951TIP3   OH269267   6.555   3.068  12.899  0.5752 -0.6476 -0.2526
15951TIP3    H169268   6.618   3.016  12.848  0.3101 -1.1678 -0.0526
15951TIP3    H269269   6.473   3.019  12.894  0.3930 -0.3928  0.1726
15952TIP3   OH269270   1.388   3.492  13.933  0.3234 -0.1095  0.2198
15952TIP3    H169271   1.450   3.437  13.885 -1.0056 -1.8311  0.3642
15952TIP3    H269272   1.326   3.429  13.971  0.6685  1.2332  3.2663
15953TIP3   OH269273   0.833   0.833  10.902  0.4090 -0.0051  0.0865
15953TIP3    H169274   0.764   0.786  10.855 -0.1740  1.9102 -1.1054
15953TIP3    H269275   0.795   0.852  10.988 -0.1056  0.0072 -0.1383
15954TIP3   OH269276   5.135   1.320   2.329  0.1228 -0.1134 -0.2710
15954TIP3    H169277   5.126   1.414   2.309  0.6505 -0.3961 -2.0606
15954TIP3    H269278   5.229   1.308   2.345 -0.0743 -0.1874  0.8585
15955TIP3   OH269279   6.462   5.710  13.524 -0.1945 -0.2444  0.2897
15955TIP3    H169280   6.416   5.627  13.515 -0.4489  0.1277 -3.4273
15955TIP3    H269281   6.555   5.687  13.524 -0.2579 -0.5615 -1.0397
15956TIP3   OH269282   1.865   5.607  16.898 -0.4898  0.3520 -0.1187
15956TIP3    H169283   1.856   5.575  16.988 -1.3376 -0.8947 -0.6404
15956TIP3    H269284   1.959   5.600  16.880 -0.0405  2.1128  1.1787
15957TIP3   OH269285   4.876   1.498   1.167 -0.3264 -0.0263 -0.1303
15957TIP3    H169286   4.784   1.471   1.157  0.2033 -1.4288 -1.5308
15957TIP3    H269287   4.923   1.417   1.185  0.5629  0.7850  1.3186
15958TIP3   OH269288   3.479   4.679  14.914  0.0013  0.4213  0.0971
15958TIP3    H169289   3.518   4.755  14.872 -0.2606  0.5467  0.0736
15958TIP3    H269290   3.419   4.716  14.979 -1.1157  0.2563 -0.8105
15959TIP3   OH269291   3.796   2.602   3.493  0.7027 -0.3760 -0.0018
15959TIP3    H169292   3.781   2.543   3.419  1.0174 -2.1662  1.2925
15959TIP3    H269293   3.888   2.627   3.485  0.7084 -0.4716 -0.2628
15960TIP3   OH269294   2.792   5.730   1.386  0.2076  0.2472  0.2079
15960TIP3    H169295   2.785   5.817   1.424 -3.2277 -0.6507  2.0722
15960TIP3    H269296   2.727   5.730   1.315 -0.2283 -0.9302  0.5848
15961TIP3   OH269297   2.319   0.180   5.886  0.4685  0.2685  0.2962
15961TIP3    H169298   2.352   0.203   5.973  1.4179  0.1807 -0.0217
15961TIP3    H269299   2.228   0.154   5.900  1.0168 -1.1519  1.4937
15962TIP3   OH269300   4.111   6.161   5.624 -0.0527 -0.4965 -0.8070
15962TIP3    H169301   4.024   6.168   5.663  0.3710 -0.6661  0.1834
15962TIP3    H269302   4.095   6.173   5.530 -1.0324  0.3702 -0.5575
15963TIP3   OH269303   5.532   3.369   2.128 -0.0829  0.2238 -0.3027
15963TIP3    H169304   5.576   3.303   2.181 -1.9883 -0.7842  0.1047
15963TIP3    H269305   5.576   3.451   2.151  1.7009 -0.7332 -0.1102
15964TIP3   OH269306   0.675   5.841  13.003  0.1124 -0.2539 -0.6483
15964TIP3    H169307   0.617   5.898  13.054  0.4799 -0.8608  0.4763
15964TIP3    H269308   0.647   5.855  12.913 -0.5378  0.8760 -0.3070
15965TIP3   OH269309   5.274   3.122   2.809  0.6777  0.4241 -0.2850
15965TIP3    H169310   5.251   3.110   2.902 -0.6150  1.2363 -0.4713
15965TIP3    H269311   5.278   3.032   2.775  0.3528  0.1448  0.3765
15966TIP3   OH269312   4.664   1.321   2.262  0.1315  0.4588  0.4418
15966TIP3    H169313   4.591   1.378   2.239  0.6265  0.4421 -1.3210
15966TIP3    H269314   4.707   1.302   2.178  0.2143 -2.2217  1.0312
15967TIP3   OH269315   6.838   6.566  15.470 -0.0065 -1.2486  0.0228
15967TIP3    H169316   6.817   6.501  15.537 -0.9466  0.6601  1.6841
15967TIP3    H269317   6.756   6.615  15.457  0.9782  0.4462 -0.1655
15968TIP3   OH269318   4.045   6.781  11.608 -0.2269  0.2012  0.5611
15968TIP3    H169319   4.110   6.712  11.594 -0.5467 -0.0154  0.1175
15968TIP3    H269320   4.026   6.815  11.521 -1.0103 -0.0139  0.6360
15969TIP3   OH269321   2.964   4.457  14.474  0.1799 -0.4026 -0.3511
15969TIP3    H169322   2.983   4.544  14.440 -0.5712 -0.2149 -0.3141
15969TIP3    H269323   2.957   4.402  14.396  1.1442 -0.5442 -0.3524
15970TIP3   OH269324   0.138   5.428  11.007  0.1547  0.7851 -0.3554
15970TIP3    H169325   0.119   5.519  10.988  1.4470  1.3070  0.7360
15970TIP3    H269326   0.110   5.416  11.098 -1.3884 -0.3358 -0.9311
15971TIP3   OH269327   6.535   1.301   1.264 -0.0809  0.5468 -0.0797
15971TIP3    H169328   6.489   1.241   1.204 -1.2365  2.2073 -0.9258
15971TIP3    H269329   6.625   1.268   1.267 -1.0334 -2.3474  0.9809
15972TIP3   OH269330   6.766   2.659  13.543 -0.3858 -0.1390 -0.9607
15972TIP3    H169331   6.760   2.645  13.638 -0.4710 -0.9404 -1.0762
15972TIP3    H269332   6.775   2.754  13.534 -0.7754 -0.0095 -0.1682
15973TIP3   OH269333   5.022   6.770   0.863 -0.3311  0.1190 -0.1334
15973TIP3    H169334   4.993   6.839   0.923  1.6612  0.5168  0.4400
15973TIP3    H269335   5.111   6.796   0.838 -0.8207 -0.4183 -2.7320
15974TIP3   OH269336   3.262   2.922  15.740 -0.4004 -0.0788  0.3047
15974TIP3    H169337   3.193   2.858  15.756 -1.2982  1.1803  1.7077
15974TIP3    H269338   3.231   2.972  15.665  0.8978 -2.0054 -1.6397
15975TIP3   OH269339   3.071   0.408   5.013 -0.6236 -0.6934  0.2909
15975TIP3    H169340   3.121   0.456   5.079  0.5320 -3.2932  1.4643
15975TIP3    H269341   3.072   0.465   4.936  1.6196  0.6671  1.2148
15976TIP3   OH269342   2.315   0.007  15.222  0.5381  0.1947 -0.1357
15976TIP3    H169343   2.317   0.073  15.292 -0.9089  0.9021 -0.7138
15976TIP3    H269344   2.222  -0.008  15.206  0.8472 -0.6429 -1.2829
15977TIP3   OH269345   0.940   6.296  15.809  0.0774 -0.3344  0.1372
15977TIP3    H169346   0.972   6.387  15.803 -0.0832 -0.1414  1.8031
15977TIP3    H269347   0.987   6.259  15.884 -0.7919 -1.2325  0.2548
15978TIP3   OH269348   3.982   5.521   4.615  0.2879 -0.2882 -0.4933
15978TIP3    H169349   4.044   5.562   4.675 -0.7753 -0.7826  0.9983
15978TIP3    H269350   3.945   5.593   4.565  0.2612  0.2909  0.3458
15979TIP3   OH269351   5.112   2.969  14.239  0.2466  0.1860 -0.0563
15979TIP3    H169352   5.120   2.965  14.144 -0.6178 -0.4748 -0.1149
15979TIP3    H269353   5.039   3.028  14.255  0.8267  0.8440  0.2321
15980TIP3   OH269354   5.804   1.930  10.923  0.1076  0.6511 -0.1629
15980TIP3    H169355   5.778   1.937  11.014 -0.4292  0.1201 -0.2707
15980TIP3    H269356   5.899   1.923  10.925 -0.0411 -2.3895  0.5665
15981TIP3   OH269357   0.942   5.216   4.558 -0.3724  0.3724  0.2383
15981TIP3    H169358   0.856   5.228   4.518 -0.6273 -1.7930  0.0401
15981TIP3    H269359   0.927   5.152   4.628  1.3255 -1.2208 -0.7820
15982TIP3   OH269360   4.898   4.018   5.055 -0.2001  0.2503 -0.7052
15982TIP3    H169361   4.860   4.103   5.035  1.9713  1.5131  0.1082
15982TIP3    H269362   4.989   4.024   5.025 -0.0695 -1.9316 -0.9637
15983TIP3   OH269363   2.359   5.221  15.888 -0.1069  0.3990 -0.1184
15983TIP3    H169364   2.448   5.201  15.915  0.1814  0.8665 -0.7072
15983TIP3    H269365   2.352   5.317  15.896 -1.1498  0.2275  1.7143
15984TIP3   OH269366   5.975   2.456  15.701  0.8777  0.3324  1.0550
15984TIP3    H169367   6.037   2.425  15.767  1.3453  2.3438  1.6016
15984TIP3    H269368   5.976   2.551  15.708 -1.2152  0.4927  0.0784
15985TIP3   OH269369   0.502   6.807  10.157  0.4586  0.1244  0.5498
15985TIP3    H169370   0.505   6.756  10.076 -0.4752 -0.3361  0.7901
15985TIP3    H269371   0.511   6.898  10.128  1.3251 -0.1055  0.0457
15986TIP3   OH269372   0.885   2.291   5.567  0.3340 -0.5734  0.0674
15986TIP3    H169373   0.794   2.276   5.544  0.5269 -1.0273 -0.4368
15986TIP3    H269374   0.900   2.384   5.550  0.5601 -0.9579 -2.0505
15987TIP3   OH269375   2.724   2.672  10.908  0.4979 -0.1411  0.3928
15987TIP3    H169376   2.657   2.631  10.853 -0.4513 -0.3258  1.6635
15987TIP3    H269377   2.733   2.761  10.872 -0.1967 -0.2167  0.0186
15988TIP3   OH269378   4.025   4.273  16.603 -0.1704 -0.7271  0.1647
15988TIP3    H169379   3.965   4.316  16.664 -0.0761 -1.7619  1.0149
15988TIP3    H269380   4.104   4.255  16.655  0.3773 -0.5657 -0.5876
15989TIP3   OH269381   3.961   4.488   2.583 -0.0514  0.2457 -0.0793
15989TIP3    H169382   3.923   4.495   2.670 -1.0839 -0.0601 -0.4909
15989TIP3    H269383   4.039   4.434   2.595 -0.8636 -0.8565  0.4744
15990TIP3   OH269384   1.748   5.834  11.960 -0.1037 -0.1627  0.3631
15990TIP3    H169385   1.763   5.743  11.935 -1.3300  0.0183 -1.1630
15990TIP3    H269386   1.722   5.877  11.879 -0.7940  1.2805  1.3137
15991TIP3   OH269387   3.703   4.028   4.148 -0.0230 -0.1332  0.0893
15991TIP3    H169388   3.770   3.989   4.204  1.7026  1.5335 -0.7024
15991TIP3    H269389   3.647   4.077   4.208  1.9205  1.7909  0.4470
15992TIP3   OH269390   1.620   0.777   1.272  0.3487 -0.6773 -0.0691
15992TIP3    H169391   1.570   0.696   1.258 -0.1541 -0.4018  0.1166
15992TIP3    H269392   1.683   0.754   1.341  0.7970 -1.1573 -0.6241
15993TIP3   OH269393   4.144   6.626  13.783 -0.1722  0.0737  0.2405
15993TIP3    H169394   4.068   6.569  13.792  0.8972 -1.2909  0.9397
15993TIP3    H269395   4.157   6.663  13.870 -1.0734  1.7288 -0.2856
15994TIP3   OH269396   6.433   0.418  11.648  0.3029  0.3278  0.6751
15994TIP3    H169397   6.472   0.497  11.611  0.6252  0.1699  0.6760
15994TIP3    H269398   6.489   0.396  11.722  0.4663 -0.1481  0.4113
15995TIP3   OH269399   1.771   6.293  14.482 -0.4737  0.1755  0.0935
15995TIP3    H169400   1.802   6.377  14.449  0.9309 -0.2211  0.3201
15995TIP3    H269401   1.763   6.238  14.404  0.4338 -0.0184  0.1200
15996TIP3   OH269402   1.499   6.822   3.579 -0.4780  0.4227 -0.2727
15996TIP3    H169403   1.465   6.758   3.517 -0.2228  0.2225 -0.2110
15996TIP3    H269404   1.493   6.906   3.533  0.1501  0.2158 -0.7583
15997TIP3   OH269405   4.863   1.828  11.729 -0.0034 -0.1062 -0.3514
15997TIP3    H169406   4.932   1.876  11.773  0.1679  0.0557 -0.7867
15997TIP3    H269407   4.906   1.788  11.654 -0.5481  0.7156 -1.1276
15998TIP3   OH269408   0.638   6.279   2.767 -0.5352  0.2879  0.2411
15998TIP3    H169409   0.660   6.370   2.789 -2.4123  0.6371  0.8311
15998TIP3    H269410   0.685   6.263   2.685  0.8921  1.3218  0.7938
15999TIP3   OH269411   0.921   0.741   4.130  0.2365 -0.0847 -0.0395
15999TIP3    H169412   0.945   0.705   4.045 -0.6918 -1.5906  0.2939
15999TIP3    H269413   0.838   0.699   4.151 -0.2051  1.2575  1.0285
16000TIP3   OH269414   1.346   5.728  16.791 -0.2347  0.3860 -0.1212
16000TIP3    H169415   1.266   5.747  16.840  0.3540 -1.0978  1.5480
16000TIP3    H269416   1.386   5.814  16.777 -1.9650  1.1339 -0.7906
16001TIP3   OH269417   5.405   4.847  15.748 -0.1664  0.6998 -0.5504
16001TIP3    H169418   5.466   4.907  15.704  1.0614 -0.4931 -0.5561
16001TIP3    H269419   5.457   4.808  15.819 -0.6620 -0.9037 -1.0211
16002TIP3   OH269420   2.978   5.898  10.792 -0.0356  0.0311 -0.1436
16002TIP3    H169421   2.960   5.828  10.729  1.2550  0.9153 -1.5768
16002TIP3    H269422   2.899   5.951  10.792  0.3620  0.7247 -2.0512
16003TIP3   OH269423   3.073   2.664  16.599 -0.3058 -0.6060  0.3215
16003TIP3    H169424   3.103   2.728  16.664 -2.4818 -0.1041  0.8890
16003TIP3    H269425   3.035   2.593  16.651 -1.8607 -0.3039 -0.3524
16004TIP3   OH269426   0.990   5.732  10.616  0.0393  0.6607  0.0245
16004TIP3    H169427   0.928   5.659  10.619  0.3630  0.3600 -0.4864
16004TIP3    H269428   1.010   5.743  10.523 -0.3014  1.6550  0.0461
16005TIP3   OH269429   3.488   0.978  12.859  0.1412 -0.2154  0.5711
16005TIP3    H169430   3.467   1.060  12.815 -0.1077  0.6585  2.2181
16005TIP3    H269431   3.414   0.964  12.919  0.0181 -1.8301  0.0922
16006TIP3   OH269432   4.581   0.289   6.484 -0.4965  0.0712 -0.4970
16006TIP3    H169433   4.673   0.299   6.510 -0.8561 -1.5538  1.7139
16006TIP3    H269434   4.534   0.354   6.537 -0.9552 -1.4707  1.0608
16007TIP3   OH269435   1.931   4.774   3.416  0.2152 -0.5564 -0.8628
16007TIP3    H169436   2.022   4.799   3.397  0.1636 -0.6502 -1.2291
16007TIP3    H269437   1.931   4.753   3.509 -0.1482  2.8241  0.0423
16008TIP3   OH269438   4.645   0.189  11.470 -0.0098 -0.5598  0.0471
16008TIP3    H169439   4.554   0.195  11.497 -0.6934  1.0492 -2.2860
16008TIP3    H269440   4.677   0.279  11.473  1.0024 -0.8708 -0.7149
16009TIP3   OH269441   1.649   2.382   0.890 -0.3448  0.3255  0.0131
16009TIP3    H169442   1.708   2.456   0.876  0.2979 -0.3229 -0.8259
16009TIP3    H269443   1.706   2.312   0.923 -0.9273  0.1703  0.7118
16010TIP3   OH269444   6.688   1.100   3.589 -0.1788  0.4553  0.4890
16010TIP3    H169445   6.765   1.156   3.603 -0.6276  1.2639 -0.2257
16010TIP3    H269446   6.630   1.121   3.662  0.6714 -0.8992  1.6148
16011TIP3   OH269447   1.361   1.445  12.987  0.0739 -0.2790  0.3923
16011TIP3    H169448   1.446   1.413  13.018  0.2862 -0.1394 -0.0440
16011TIP3    H269449   1.379   1.480  12.900 -0.5733 -0.9455 -0.0253
16012TIP3   OH269450   6.239   5.305  14.582 -0.0700  0.2016 -0.4066
16012TIP3    H169451   6.185   5.327  14.658  0.1098  1.6877 -0.6779
16012TIP3    H269452   6.283   5.224  14.607 -0.9573 -0.0123  0.5730
16013TIP3   OH269453   6.479   0.452   4.305 -0.1012  0.5496  0.0662
16013TIP3    H169454   6.533   0.519   4.263 -0.1154  0.9438  0.6693
16013TIP3    H269455   6.519   0.369   4.277  0.6061  0.8282  0.2229
16014TIP3   OH269456   5.724   6.103   3.519  0.3028  0.8427  0.2703
16014TIP3    H169457   5.756   6.073   3.435 -0.0279  2.3821 -0.4475
16014TIP3    H269458   5.801   6.139   3.563  0.1312  1.8893 -0.2466
16015TIP3   OH269459   2.672   6.833  13.604  0.3516  0.2822  0.3880
16015TIP3    H169460   2.611   6.787  13.546  1.7415 -0.8054 -0.2674
16015TIP3    H269461   2.755   6.786  13.595  0.9566  0.8613  2.3052
16016TIP3   OH269462   6.222   0.533   5.768  0.3025  0.0717  0.3108
16016TIP3    H169463   6.190   0.444   5.755  0.0373  0.3290 -0.8234
16016TIP3    H269464   6.286   0.546   5.698 -1.0137  1.4100 -0.6970
16017TIP3   OH269465   5.811   0.402  15.081  0.4178 -0.7213  0.5814
16017TIP3    H169466   5.826   0.372  15.170  1.5906 -1.0583  0.2881
16017TIP3    H269467   5.824   0.497  15.086  0.1672 -0.6970  0.8215
16018TIP3   OH269468   2.880   6.030  12.956  0.9605  0.0592 -0.2323
16018TIP3    H169469   2.830   6.101  12.917  0.0146 -1.1203 -1.2530
16018TIP3    H269470   2.867   5.956  12.897  3.3173 -0.5115 -0.1395
16019TIP3   OH269471   4.592   0.505  11.187  0.5480  0.1436 -0.3128
16019TIP3    H169472   4.674   0.477  11.228  1.2645  2.0074 -0.4071
16019TIP3    H269473   4.577   0.593  11.220 -2.2020 -0.6314  0.8123
16020TIP3   OH269474   0.685   5.394   2.353 -0.1727 -0.4544 -0.5502
16020TIP3    H169475   0.750   5.414   2.286 -0.4949 -0.4030 -0.8500
16020TIP3    H269476   0.655   5.479   2.384  0.0933 -0.4773 -0.2207
16021TIP3   OH269477   2.637   1.020  15.434 -0.0575  0.1848  0.0849
16021TIP3    H169478   2.686   1.097  15.404  0.9152 -0.4663 -0.0740
16021TIP3    H269479   2.591   1.049  15.512  0.0031  1.0303 -0.1892
16022TIP3   OH269480   1.434   2.800   2.813  0.5417 -0.5626 -0.2739
16022TIP3    H169481   1.395   2.733   2.869 -3.9461  3.3292  1.8631
16022TIP3    H269482   1.481   2.858   2.873 -0.1859  1.0375 -1.1853
16023TIP3   OH269483   5.702   2.289  14.823  0.4690  0.3724  0.6324
16023TIP3    H169484   5.758   2.218  14.855  0.3362  0.9028  2.1107
16023TIP3    H269485   5.649   2.315  14.898 -1.1070  0.5410 -0.4768
16024TIP3   OH269486   6.827   5.898   5.944  0.2331  0.3991 -0.8496
16024TIP3    H169487   6.902   5.848   5.975  1.2893  2.5065  0.2368
16024TIP3    H269488   6.760   5.884   6.011 -0.7077 -2.0657 -2.1783
16025TIP3   OH269489   5.568   0.545   0.246 -0.0993 -0.4575 -0.2369
16025TIP3    H169490   5.645   0.597   0.267  0.0931 -0.4916 -0.8312
16025TIP3    H269491   5.544   0.573   0.157 -0.2842 -1.0277 -0.3717
16026TIP3   OH269492   3.322   2.246   0.686  0.4561 -0.6065  0.8137
16026TIP3    H169493   3.354   2.180   0.626 -0.1569 -0.7361  0.6335
16026TIP3    H269494   3.380   2.239   0.762  1.6652  0.0128 -0.0146
16027TIP3   OH269495   6.665   0.303   3.379 -0.0401 -0.0829  0.0061
16027TIP3    H169496   6.713   0.383   3.400 -0.6383  0.1542  0.5079
16027TIP3    H269497   6.730   0.245   3.341  0.2215  0.9928 -1.2625
16028TIP3   OH269498   0.897   5.702   1.178  0.3563  0.7456 -0.2376
16028TIP3    H169499   0.896   5.770   1.111  1.5874  2.1925  1.1433
16028TIP3    H269500   0.955   5.634   1.143  2.0351  2.0661 -0.1526
16029TIP3   OH269501   2.870   1.121  13.220  0.0574 -0.1010  0.2278
16029TIP3    H169502   2.873   1.168  13.136 -0.8645  2.1324  1.3604
16029TIP3    H269503   2.867   1.028  13.195 -0.6590  0.4997 -2.2207
16030TIP3   OH269504   0.271   2.365  16.587 -0.0609 -0.2639  0.8327
16030TIP3    H169505   0.282   2.451  16.547 -0.4127 -0.4833  0.2478
16030TIP3    H269506   0.248   2.307  16.514 -0.3183 -0.7554  1.2926
16031TIP3   OH269507   1.124   1.041  16.711  0.1073  0.5479 -0.3818
16031TIP3    H169508   1.206   1.073  16.748 -0.3964  0.0152  1.2905
16031TIP3    H269509   1.119   0.950  16.739 -0.3254  0.1328 -1.7763
16032TIP3   OH269510   2.478   2.762   4.898  0.6058 -0.0646  0.2952
16032TIP3    H169511   2.495   2.838   4.954  0.8765 -0.5731  0.9169
16032TIP3    H269512   2.475   2.688   4.959  1.7780 -0.7570 -0.4552
16033TIP3   OH269513   4.506   6.537   6.015  0.3419  0.3531  0.2602
16033TIP3    H169514   4.419   6.514   5.982  0.1303  1.5711 -0.0841
16033TIP3    H269515   4.488   6.581   6.098  0.5054  1.8054 -0.4391
16034TIP3   OH269516   3.379   3.111   4.481  0.0706  0.0032 -0.8031
16034TIP3    H169517   3.298   3.063   4.501 -0.3257  1.0459  0.2029
16034TIP3    H269518   3.447   3.044   4.487 -0.7763 -1.1373 -2.7461
16035TIP3   OH269519   2.754   1.578  14.938  0.2425 -0.4551  0.1423
16035TIP3    H169520   2.717   1.590  14.850 -3.4870 -0.3418  1.5648
16035TIP3    H269521   2.836   1.628  14.936  1.1339 -1.7030 -3.6537
16036TIP3   OH269522   2.170   1.636   4.774 -0.2056  0.5094  0.3493
16036TIP3    H169523   2.143   1.554   4.733  0.9094  0.0765  0.4439
16036TIP3    H269524   2.093   1.664   4.825 -0.7442 -0.2367 -0.0355
16037TIP3   OH269525   5.448   2.922   0.454  0.0829 -0.2996 -0.2673
16037TIP3    H169526   5.361   2.890   0.430  0.2399 -0.7187 -0.2798
16037TIP3    H269527   5.432   3.006   0.497 -0.1160  1.5621 -3.6022
16038TIP3   OH269528   1.358   4.446   2.529 -0.1383 -0.2906 -0.3790
16038TIP3    H169529   1.447   4.478   2.515 -0.1534  0.1035  0.3940
16038TIP3    H269530   1.302   4.523   2.518 -0.4447 -0.6307 -1.3562
16039TIP3   OH269531   0.124   1.355   5.118 -0.4010 -0.3253  0.0989
16039TIP3    H169532   0.075   1.355   5.201  0.5221 -0.0741  0.6569
16039TIP3    H269533   0.097   1.437   5.075  0.5469  0.5180  1.0449
16040TIP3   OH269534   0.293   5.870   2.390  0.5632 -0.0713  0.4187
16040TIP3    H169535   0.355   5.942   2.394  0.7047 -0.2279  1.4057
16040TIP3    H269536   0.270   5.853   2.482 -0.7410 -0.1846  0.1006
16041TIP3   OH269537   5.895   0.581   4.240 -0.1166 -0.0484  0.0897
16041TIP3    H169538   5.911   0.495   4.280  3.7021  1.4121  2.2864
16041TIP3    H269539   5.859   0.634   4.311 -0.4654  0.6817 -0.6299
16042TIP3   OH269540   3.564   5.392   3.233  0.1166  0.0765  0.7367
16042TIP3    H169541   3.561   5.486   3.251 -1.3667  0.3825 -0.9014
16042TIP3    H269542   3.589   5.353   3.317 -1.5482  1.7551  2.1201
16043TIP3   OH269543   1.574   5.688   0.317 -0.2409  0.4280 -0.2707
16043TIP3    H169544   1.610   5.715   0.402 -0.0427  0.6909 -0.4372
16043TIP3    H269545   1.525   5.608   0.337 -0.0109  0.3610  0.0542
16044TIP3   OH269546   5.747   5.154  11.435  0.1114  0.2170  0.2410
16044TIP3    H169547   5.725   5.247  11.442  0.9999  0.3682  1.1178
16044TIP3    H269548   5.822   5.152  11.376  1.6896  0.3215  2.1781
16045TIP3   OH269549   0.453   5.681   1.150  0.0865  0.6750 -0.0019
16045TIP3    H169550   0.492   5.630   1.221  2.1864  1.0910 -0.7682
16045TIP3    H269551   0.449   5.620   1.076 -1.2297  0.5008  0.1925
16046TIP3   OH269552   0.688   1.172   5.067  0.4940  0.5187  0.4341
16046TIP3    H169553   0.711   1.203   5.155  1.1049  0.6961  0.2132
16046TIP3    H269554   0.744   1.222   5.008 -0.9106  1.4515 -0.1759
16047TIP3   OH269555   4.742   3.434  15.979 -0.1366 -0.0246  0.4355
16047TIP3    H169556   4.697   3.375  15.918  0.7514  0.5978 -0.8745
16047TIP3    H269557   4.835   3.427  15.955  0.4195 -0.6358  2.5047
16048TIP3   OH269558   2.252   3.737   3.195  0.9345  0.1039 -0.3975
16048TIP3    H169559   2.235   3.651   3.232  1.1179  0.8764  1.6214
16048TIP3    H269560   2.342   3.757   3.222  0.6283  1.2337 -0.1455
16049TIP3   OH269561   3.272   3.753   1.163  0.3867  0.0497  0.0250
16049TIP3    H169562   3.279   3.747   1.068  0.4201 -0.5813  0.0638
16049TIP3    H269563   3.344   3.699   1.196  1.4691  1.6809  0.4096
16050TIP3   OH269564   4.660   6.564   1.721 -0.5916  0.2676 -0.7928
16050TIP3    H169565   4.729   6.621   1.689  0.1945 -0.5095 -0.5414
16050TIP3    H269566   4.677   6.480   1.678  0.8424 -0.9822  1.9156
16051TIP3   OH269567   5.984   3.828   0.300 -0.3601 -0.1379  0.8391
16051TIP3    H169568   6.069   3.870   0.308 -0.6026  0.4759  0.3449
16051TIP3    H269569   5.921   3.900   0.301 -0.6427 -0.1033 -2.9430
16052TIP3   OH269570   4.039   5.693  11.086 -0.3734 -0.1085  0.2695
16052TIP3    H169571   4.102   5.753  11.126 -0.2693  0.3966 -0.6055
16052TIP3    H269572   4.080   5.668  11.003 -0.9245 -0.4981  0.1057
16053TIP3   OH269573   3.419   6.452  11.354  0.0301  0.0246  0.2883
16053TIP3    H169574   3.385   6.527  11.305  0.7745  0.3042  0.1754
16053TIP3    H269575   3.502   6.431  11.310 -0.3770 -1.1485  0.0455
16054TIP3   OH269576   4.479   3.012   4.282  0.1751  0.7062  0.1301
16054TIP3    H169577   4.501   2.918   4.279  0.4758  0.7852 -2.4281
16054TIP3    H269578   4.460   3.029   4.374  0.3700 -1.8090  0.7166
16055TIP3   OH269579   3.619   6.518  14.736 -0.3021  0.1055 -0.3060
16055TIP3    H169580   3.702   6.472  14.722 -0.6596 -1.1763  1.4901
16055TIP3    H269581   3.554   6.461  14.695 -0.5536 -0.1003  0.3771
16056TIP3   OH269582   0.055   0.755  15.634 -0.4227  0.1982 -0.2844
16056TIP3    H169583  -0.010   0.782  15.699 -0.4797 -0.4344 -0.0690
16056TIP3    H269584   0.010   0.761  15.550 -1.4987 -2.2754  0.0269
16057TIP3   OH269585   1.087   2.213  16.244  0.6227 -0.2213  0.1016
16057TIP3    H169586   1.049   2.137  16.287 -3.5880  1.7088  0.3202
16057TIP3    H269587   1.125   2.264  16.315  0.1511 -0.4142  0.4961
16058TIP3   OH269588   3.145   4.844  11.533 -0.4490 -0.0564 -0.2052
16058TIP3    H169589   3.135   4.757  11.496  0.2493 -0.0292 -0.4697
16058TIP3    H269590   3.131   4.904  11.460 -0.9786  0.0593 -0.0142
16059TIP3   OH269591   0.825   4.252  14.710 -0.5432  0.3106  0.3969
16059TIP3    H169592   0.894   4.202  14.666  0.4503 -0.8013  3.0204
16059TIP3    H269593   0.744   4.214  14.678 -0.0302  1.3177 -2.3816
16060TIP3   OH269594   0.559   4.910  10.407 -0.3858  0.1852 -0.2418
16060TIP3    H169595   0.561   4.863  10.324  1.6032  1.4816 -0.9913
16060TIP3    H269596   0.559   4.841  10.473 -1.4803 -0.8693 -1.2752
16061TIP3   OH269597   5.647   1.823  14.581  0.1058  0.4012  0.0123
16061TIP3    H169598   5.726   1.777  14.553 -0.6285 -0.2928 -0.9804
16061TIP3    H269599   5.584   1.808  14.511 -0.6098  1.7574  0.3440
16062TIP3   OH269600   2.021   6.401  13.345  0.4081 -0.1105 -0.1612
16062TIP3    H169601   2.082   6.445  13.404  0.7107 -2.3908  1.3419
16062TIP3    H269602   2.075   6.339  13.296 -0.2673 -0.1360 -0.8847
16063TIP3   OH269603   5.472   0.927  14.024 -0.8181 -0.6051  0.1032
16063TIP3    H169604   5.394   0.982  14.017  0.4377  1.2330 -0.1916
16063TIP3    H269605   5.471   0.895  14.114 -0.3400  1.9998  1.1310
16064TIP3   OH269606   0.382   3.892  13.191 -0.2156 -0.2007  0.0557
16064TIP3    H169607   0.466   3.937  13.198 -0.7906  0.7181  1.2151
16064TIP3    H269608   0.405   3.799  13.190  0.9096  0.0632 -1.2985
16065TIP3   OH269609   3.293   4.345   3.595 -0.0287  0.0645  0.0076
16065TIP3    H169610   3.288   4.435   3.562  1.8687  0.3970  0.5232
16065TIP3    H269611   3.373   4.309   3.557 -0.0741 -0.9737  0.8322
16066TIP3   OH269612   2.758   5.307  13.079  0.4929  0.3061  0.5243
16066TIP3    H169613   2.807   5.388  13.090  0.5537  0.2974  0.3243
16066TIP3    H269614   2.826   5.240  13.068  0.4572  0.1612  1.1036
16067TIP3   OH269615   4.782   4.752   0.192  0.7297  0.1080  0.0782
16067TIP3    H169616   4.847   4.682   0.190  0.0523 -0.6490  1.9413
16067TIP3    H269617   4.706   4.715   0.148  1.1984  0.6525 -1.2494
16068TIP3   OH269618   2.599   1.316   1.005 -0.8284 -0.0917 -0.0848
16068TIP3    H169619   2.610   1.314   1.100  0.9513  1.6684 -0.1976
16068TIP3    H269620   2.650   1.392   0.976 -2.3395  0.1805 -2.3284
16069TIP3   OH269621   3.968   0.537  10.904 -0.8651  0.2587  0.3488
16069TIP3    H169622   3.896   0.556  10.844 -1.5095 -2.9263 -0.1002
16069TIP3    H269623   3.927   0.485  10.974  0.7619 -0.5283  0.7652
16070TIP3   OH269624   4.982   3.325  16.311 -0.4385 -0.2483  0.4996
16070TIP3    H169625   4.894   3.360  16.325 -1.4358 -1.6549 -1.7855
16070TIP3    H269626   4.988   3.312  16.217  1.4650 -2.1350  0.8133
16071TIP3   OH269627   2.309   6.794  14.137 -0.4747 -0.3154  0.1350
16071TIP3    H169628   2.360   6.875  14.147 -2.2065  0.6855  1.3973
16071TIP3    H269629   2.223   6.823  14.108 -0.2924 -2.0183 -2.3500
16072TIP3   OH269630   1.339   0.803  11.695  0.6114  0.2935 -0.5342
16072TIP3    H169631   1.295   0.738  11.641  0.0818  1.2961 -1.3566
16072TIP3    H269632   1.299   0.886  11.670  0.0086  0.7620  1.7445
16073TIP3   OH269633   2.131   6.490   4.858  0.3892 -0.1611 -0.3655
16073TIP3    H169634   2.058   6.429   4.860 -0.1195  0.4421 -0.2265
16073TIP3    H269635   2.189   6.455   4.790 -0.2800 -0.3630 -0.8442
16074TIP3   OH269636   0.951   2.151   2.562 -0.7065 -0.2588 -0.3640
16074TIP3    H169637   1.031   2.141   2.613 -0.3845  0.3983 -0.7216
16074TIP3    H269638   0.885   2.177   2.626 -1.2466 -3.0948  0.3505
16075TIP3   OH269639   5.683   0.511   1.729  0.2011  0.0923  0.2987
16075TIP3    H169640   5.651   0.464   1.652 -0.3286  0.3031  0.3836
16075TIP3    H269641   5.732   0.585   1.694 -0.1202  0.2419  0.1638
16076TIP3   OH269642   6.176   1.607   9.934 -0.4559  0.0116  0.0541
16076TIP3    H169643   6.222   1.536   9.980 -1.4367 -0.4202  0.4008
16076TIP3    H269644   6.100   1.626   9.990 -0.5181  0.9408 -0.3312
16077TIP3   OH269645   2.931   4.047  14.068 -0.1821  0.1230  0.1473
16077TIP3    H169646   2.902   3.985  14.136  2.0735 -1.3287 -0.0980
16077TIP3    H269647   2.876   4.026  13.992  0.7306 -1.8923 -0.0334
16078TIP3   OH269648   3.468   5.835  10.712  0.1944  0.3221 -0.2363
16078TIP3    H169649   3.453   5.776  10.638  0.8709  0.5006 -0.5182
16078TIP3    H269650   3.559   5.822  10.736 -0.6519 -1.7213  2.3290
16079TIP3   OH269651   4.644   1.404   3.655  0.2162  0.0593  0.5890
16079TIP3    H169652   4.583   1.339   3.690 -0.0971  0.6195  1.0937
16079TIP3    H269653   4.624   1.484   3.703  0.0371  0.7541 -0.6216
16080TIP3   OH269654   0.555   1.255  16.029  0.2538  0.1356 -0.3672
16080TIP3    H169655   0.463   1.271  16.051 -0.6628  2.3659 -4.6389
16080TIP3    H269656   0.592   1.343  16.017  2.8917 -0.7244  0.7629
16081TIP3   OH269657   5.079   4.423   1.479  0.6086  0.3439 -0.4664
16081TIP3    H169658   5.044   4.340   1.511 -0.0180 -0.5799 -3.2670
16081TIP3    H269659   5.171   4.405   1.463  1.0364  0.9498  1.1458
16082TIP3   OH269660   3.050   4.292  11.560  0.3259 -0.8595 -0.1051
16082TIP3    H169661   3.081   4.229  11.495  1.2134 -0.9616  0.3939
16082TIP3    H269662   2.991   4.242  11.617 -0.3294 -0.8068 -0.7320
16083TIP3   OH269663   1.896   2.041  12.651 -0.6952  0.2917  0.1973
16083TIP3    H169664   1.855   2.126  12.636  2.6523  2.0426  0.0499
16083TIP3    H269665   1.909   2.037  12.746 -2.6491 -1.0941  0.4783
16084TIP3   OH269666   2.447   3.609   0.257  0.1190 -0.3856  0.1481
16084TIP3    H169667   2.410   3.521   0.262  0.5315 -0.6439 -0.9595
16084TIP3    H269668   2.434   3.635   0.166 -0.1144  0.7627  0.4910
16085TIP3   OH269669   0.046   2.018   4.347 -0.2722 -0.0624  0.2367
16085TIP3    H169670   0.063   2.026   4.441  0.7941 -1.4090  0.1918
16085TIP3    H269671  -0.010   1.941   4.339  0.3353 -0.4571 -0.2900
16086TIP3   OH269672   1.574   2.582  16.562  0.1356 -0.3496 -0.1884
16086TIP3    H169673   1.653   2.632  16.584 -0.2507  0.0299  0.3522
16086TIP3    H269674   1.571   2.514  16.629 -0.9491  0.7013  0.8683
16087TIP3   OH269675   6.772   1.342   2.423  0.3318 -0.5358  0.1595
16087TIP3    H169676   6.693   1.296   2.394  0.8345 -0.6853 -1.0262
16087TIP3    H269677   6.743   1.432   2.439 -0.2019 -0.7388  0.3581
16088TIP3   OH269678   2.888   1.372  10.797 -0.2704  0.5166 -0.0438
16088TIP3    H169679   2.966   1.332  10.760 -0.2282  1.0769 -0.5816
16088TIP3    H269680   2.866   1.318  10.873  0.8098  0.5322  0.2940
16089TIP3   OH269681   3.713   2.584   4.168  0.0596 -0.4891 -0.1248
16089TIP3    H169682   3.741   2.512   4.112  1.2361 -0.6367  0.6078
16089TIP3    H269683   3.623   2.601   4.142  1.1680  0.9106 -3.6025
16090TIP3   OH269684   2.156   2.278  13.550 -0.0745  0.1350 -0.0231
16090TIP3    H169685   2.241   2.314  13.525 -0.9577  0.9851 -2.0294
16090TIP3    H269686   2.105   2.354  13.579 -0.9403  0.0817 -1.3021
16091TIP3   OH269687   4.340   3.253  14.869 -0.8555  0.3352 -0.0425
16091TIP3    H169688   4.342   3.281  14.961 -2.8939  0.9895 -0.1514
16091TIP3    H269689   4.319   3.159  14.873 -1.8046  0.5427  0.1716
16092TIP3   OH269690   0.692   5.824  14.641  0.2773 -0.2103  0.3985
16092TIP3    H169691   0.672   5.771  14.564 -2.1621  1.1257  0.0244
16092TIP3    H269692   0.770   5.784  14.678  0.4886 -1.9637 -1.7614
16093TIP3   OH269693   6.322   0.671   2.026 -0.2693  0.2584  0.0504
16093TIP3    H169694   6.297   0.713   2.108 -0.7806  0.3686 -0.1605
16093TIP3    H269695   6.374   0.595   2.053 -2.9940 -1.5306  0.6486
16094TIP3   OH269696   6.470   3.736   0.663  0.6389  0.1502  0.5892
16094TIP3    H169697   6.493   3.766   0.575  0.5726  0.2720  0.6122
16094TIP3    H269698   6.542   3.765   0.718  0.3328  0.7321  0.6998
16095TIP3   OH269699   2.437   6.319  14.851 -0.4327  0.0880 -0.0230
16095TIP3    H169700   2.421   6.227  14.829  1.4956  0.4360 -3.7325
16095TIP3    H269701   2.525   6.320  14.888 -1.3128  0.2916  2.2249
16096TIP3   OH269702   6.761   0.142   0.766 -0.2819 -0.4665 -0.5988
16096TIP3    H169703   6.747   0.141   0.861  0.8644 -2.3264 -0.4127
16096TIP3    H269704   6.784   0.233   0.747 -0.8106  0.0083  0.8455
16097TIP3   OH269705   1.584   3.980  16.779 -0.0798  0.0200 -0.1094
16097TIP3    H169706   1.528   3.946  16.849 -0.8020  2.4396  0.5927
16097TIP3    H269707   1.654   4.026  16.825 -0.5975  1.6944 -0.9199
16098TIP3   OH269708   5.140   1.319  11.027 -0.4924  0.1960  0.8756
16098TIP3    H169709   5.140   1.223  11.017 -0.5050  0.3072 -0.3467
16098TIP3    H269710   5.048   1.340  11.042 -0.3857 -0.0447  1.9257
16099TIP3   OH269711   6.395   3.153  12.575 -0.1434 -0.0751  0.3033
16099TIP3    H169712   6.390   3.160  12.670 -0.1454  0.2134  0.2842
16099TIP3    H269713   6.423   3.063  12.559  0.7027  0.1211  0.6069
16100TIP3   OH269714   5.917   5.454   1.987  0.3776  0.6377  0.5003
16100TIP3    H169715   5.877   5.369   2.006  1.2415  0.1280  0.0821
16100TIP3    H269716   5.883   5.478   1.901  0.1446  0.7106  0.6123
16101TIP3   OH269717   0.896   1.967   4.987 -0.0060  0.1445  0.2348
16101TIP3    H169718   0.939   2.029   4.927 -0.4097 -0.3153 -0.5325
16101TIP3    H269719   0.954   1.966   5.064  0.4644  0.8142 -0.0917
16102TIP3   OH269720   0.796   2.713  11.870  0.2282  0.0657  0.4467
16102TIP3    H169721   0.704   2.700  11.896 -0.0625 -0.8827 -0.9498
16102TIP3    H269722   0.797   2.694  11.776  2.0395 -0.8823  0.6186
16103TIP3   OH269723   5.816   1.855   1.202 -0.2711  0.1121  0.0357
16103TIP3    H169724   5.795   1.946   1.185 -1.6703 -0.1372  0.3024
16103TIP3    H269725   5.902   1.857   1.246 -0.2073  1.2665 -0.1304
16104TIP3   OH269726   4.693   5.079   3.012 -0.5128  0.4550 -0.3038
16104TIP3    H169727   4.761   5.015   2.992 -0.7222  0.1659 -0.1011
16104TIP3    H269728   4.651   5.097   2.928 -1.1058 -0.4285 -0.2075
16105TIP3   OH269729   3.587   1.599   5.096  0.1326  0.1366 -0.6783
16105TIP3    H169730   3.597   1.579   5.003 -0.6702  0.5215 -0.8590
16105TIP3    H269731   3.663   1.559   5.138  0.7066  0.2851 -1.5462
16106TIP3   OH269732   0.216   1.722  17.022 -0.0152 -0.1839  0.3274
16106TIP3    H169733   0.182   1.773  16.948  2.0081 -0.2223 -0.7175
16106TIP3    H269734   0.311   1.730  17.014  0.4454 -3.9576  0.2278
16107TIP3   OH269735   5.578   0.237  14.849  0.5442  0.2378 -0.3921
16107TIP3    H169736   5.664   0.271  14.824  0.7098 -0.7883 -1.3055
16107TIP3    H269737   5.582   0.144  14.828 -0.6957  0.1197 -0.1877
16108TIP3   OH269738   5.020   3.346   0.171 -0.4822 -0.3969 -0.2118
16108TIP3    H169739   5.065   3.376   0.092  2.3009 -0.3661  1.2351
16108TIP3    H269740   5.028   3.251   0.168  0.3460 -0.3619  0.3525
16109TIP3   OH269741   4.069   2.216   1.115  0.0842 -0.2735 -0.3955
16109TIP3    H169742   4.156   2.196   1.082  1.3624  0.1277  2.4103
16109TIP3    H269743   4.032   2.276   1.050  2.9469  1.6353 -0.4610
16110TIP3   OH269744   4.886   0.167  14.590 -0.3427  0.6590  0.6024
16110TIP3    H169745   4.981   0.169  14.574 -0.5119  1.4390 -0.4592
16110TIP3    H269746   4.858   0.258  14.577 -1.3510  0.2896  0.0702
16111TIP3   OH269747   3.131   5.908   2.126  0.5276 -0.0108  0.4142
16111TIP3    H169748   3.177   5.935   2.046 -1.0984  1.0281 -0.2281
16111TIP3    H269749   3.061   5.850   2.095 -1.1221  1.6425  0.8243
16112TIP3   OH269750   1.749   5.255  14.839  0.1242  0.3783  0.1927
16112TIP3    H169751   1.695   5.224  14.766 -0.9797  0.4359  0.9695
16112TIP3    H269752   1.771   5.176  14.887 -0.5519  0.5086  0.7306
16113TIP3   OH269753   1.156   3.071   0.357  0.2683  0.4250 -0.0589
16113TIP3    H169754   1.097   3.036   0.290  0.4625 -1.3753  0.6601
16113TIP3    H269755   1.242   3.068   0.316  0.2944 -0.0352  0.0222
16114TIP3   OH269756   3.484   5.609  11.621  0.4673 -0.1514 -0.2156
16114TIP3    H169757   3.414   5.558  11.580  0.5319 -0.7651  0.4277
16114TIP3    H269758   3.527   5.653  11.548 -0.2159 -0.2284 -0.6815
16115TIP3   OH269759   6.253   3.384   0.296  0.2075 -0.2124  0.0429
16115TIP3    H169760   6.221   3.473   0.283  1.4183  0.1991 -0.3314
16115TIP3    H269761   6.209   3.353   0.375 -0.9223  0.3700 -0.3351
16116TIP3   OH269762   6.045   2.313  15.484 -0.1741  0.5695  0.0260
16116TIP3    H169763   5.989   2.253  15.533  3.0269 -1.9414  0.9877
16116TIP3    H269764   6.049   2.392  15.537  1.6046 -1.3375  2.9815
16117TIP3   OH269765   4.002   0.026   4.669 -0.2726  0.1091 -0.1562
16117TIP3    H169766   3.928   0.085   4.680 -1.1235 -1.3693  3.6714
16117TIP3    H269767   3.962  -0.061   4.660  0.9713 -0.4908 -0.0662
16118TIP3   OH269768   6.526   0.606  13.005  0.5515  0.5963 -0.0343
16118TIP3    H169769   6.493   0.546  12.937  2.2850 -1.2525  0.6298
16118TIP3    H269770   6.562   0.680  12.956 -1.2728  0.9437 -0.9205
16119TIP3   OH269771   1.646   0.867   0.209 -0.3152  0.4211  0.1505
16119TIP3    H169772   1.603   0.940   0.165 -1.5049  2.2597  3.9486
16119TIP3    H269773   1.615   0.789   0.163 -3.6478  1.9992 -0.5229
16120TIP3   OH269774   2.794   5.140  12.253  0.2802 -0.3846 -0.4840
16120TIP3    H169775   2.879   5.106  12.225  0.8195  0.6799 -0.1945
16120TIP3    H269776   2.752   5.067  12.298  1.6132 -0.5329  0.5525
16121TIP3   OH269777   2.715   5.578  12.070  0.0019 -0.1065  0.5617
16121TIP3    H169778   2.733   5.649  12.131 -0.1523  0.1874  0.2648
16121TIP3    H269779   2.748   5.500  12.115  1.6265  0.3424  0.2254
16122TIP3   OH269780   2.412   1.804   0.043  0.2440  0.3088  0.4507
16122TIP3    H169781   2.319   1.822   0.052  0.5130  1.1682  1.9083
16122TIP3    H269782   2.443   1.871  -0.018 -0.0227  0.3153  0.3213
16123TIP3   OH269783   3.300   2.431  13.249 -0.2823 -0.2395 -0.5611
16123TIP3    H169784   3.362   2.500  13.226 -2.2764  1.3289 -1.4744
16123TIP3    H269785   3.218   2.456  13.207 -1.3554 -2.6959 -0.1480
16124TIP3   OH269786   0.128   1.263   2.730 -0.0980 -0.3025 -0.2916
16124TIP3    H169787   0.128   1.349   2.688  0.1580 -0.8858 -1.5520
16124TIP3    H269788   0.218   1.231   2.721  1.2753  1.2856  4.6165
16125TIP3   OH269789   6.375   5.440  12.134  0.5716 -0.2331  0.0657
16125TIP3    H169790   6.350   5.429  12.226  0.6759 -1.4534 -0.0355
16125TIP3    H269791   6.426   5.521  12.133  0.4198 -0.1075  1.0498
16126TIP3   OH269792   1.926   6.151   3.454  0.0099  0.3290 -0.2789
16126TIP3    H169793   1.857   6.189   3.400 -0.7153 -0.1325  0.2897
16126TIP3    H269794   1.911   6.056   3.448 -2.5616  0.2132  3.6614
16127TIP3   OH269795   1.885   5.250  12.404 -0.1495  0.3962 -0.0359
16127TIP3    H169796   1.813   5.297  12.447 -0.6337  0.8541 -1.3135
16127TIP3    H269797   1.887   5.164  12.447 -1.7614  0.2073 -0.2790
16128TIP3   OH269798   4.615   3.779  13.921  0.7551  0.2969  0.7746
16128TIP3    H169799   4.653   3.708  13.869 -0.8565  0.6566 -0.9991
16128TIP3    H269800   4.528   3.747  13.944  0.2279  1.4529  0.4468
16129TIP3   OH269801   3.387   3.463   5.490  0.2510  0.1459 -0.0499
16129TIP3    H169802   3.327   3.464   5.565  1.3853 -0.5669  0.9069
16129TIP3    H269803   3.442   3.386   5.505  1.2406  0.6358 -1.0381
16130TIP3   OH269804   1.221   0.937   1.852  0.2302  0.1936 -0.0751
16130TIP3    H169805   1.304   0.893   1.870  0.5077  0.6852 -0.1508
16130TIP3    H269806   1.226   0.959   1.759  0.0861  0.3732 -0.0396
16131TIP3   OH269807   4.822   1.143  13.614 -0.1355 -0.4272  0.2709
16131TIP3    H169808   4.917   1.148  13.599 -0.1807 -0.9273 -0.2339
16131TIP3    H269809   4.788   1.227  13.583 -0.0565 -0.9163 -1.2204
16132TIP3   OH269810   3.921   6.032  12.105 -0.0802  1.0436  0.2623
16132TIP3    H169811   3.891   6.122  12.102 -2.4918  0.2856 -1.2043
16132TIP3    H269812   3.883   5.996  12.185  1.3670  1.4247  1.1594
16133TIP3   OH269813   6.392   4.211   0.516  0.2447 -0.3410  0.1323
16133TIP3    H169814   6.321   4.268   0.547  0.6247 -0.2150  0.7734
16133TIP3    H269815   6.411   4.153   0.589 -0.2794 -1.4637 -0.5884
16134TIP3   OH269816   0.125   1.525   2.879 -0.5851  0.8172 -0.8206
16134TIP3    H169817   0.141   1.525   2.785  0.6033  0.8819 -0.6385
16134TIP3    H269818   0.038   1.488   2.889 -0.2319 -0.3552 -1.8751
16135TIP3   OH269819   1.966   4.061   2.576 -0.1932 -0.5778  0.4989
16135TIP3    H169820   1.985   4.096   2.489  0.6020  2.1296  1.6629
16135TIP3    H269821   1.875   4.088   2.593  0.2710  0.6379  1.2118
16136TIP3   OH269822   3.329   0.639  16.969  0.2708  0.2691  0.2081
16136TIP3    H169823   3.241   0.671  16.986  0.3853  0.6170  0.1687
16136TIP3    H269824   3.343   0.570  17.033 -0.1283  0.0283  0.0378
16137TIP3   OH269825   0.605   0.299  13.308  0.1730  0.4466  0.7726
16137TIP3    H169826   0.684   0.254  13.280  1.6242  1.1630  3.3675
16137TIP3    H269827   0.614   0.388  13.273  1.1163  0.8413  1.9421
16138TIP3   OH269828   3.611   6.564  16.098  0.3228  0.4228  0.6154
16138TIP3    H169829   3.688   6.617  16.118  2.1064 -1.1996 -1.4264
16138TIP3    H269830   3.614   6.552  16.003 -3.1435  1.1835  0.2658
16139TIP3   OH269831   2.577   0.612   4.476  0.3913  0.5331 -0.7248
16139TIP3    H169832   2.666   0.641   4.497  0.8721  0.9329 -3.0488
16139TIP3    H269833   2.580   0.517   4.488  0.8389  0.6467  0.1435
16140TIP3   OH269834   3.577   6.121  16.102 -0.0781  0.4573 -0.1664
16140TIP3    H169835   3.640   6.192  16.092 -0.6280  1.0797  0.5747
16140TIP3    H269836   3.493   6.166  16.118 -0.1479 -0.3217  1.9756
16141TIP3   OH269837   4.595   3.333  13.880  0.0375  0.0372 -0.0550
16141TIP3    H169838   4.558   3.375  13.957 -1.0340  0.1833 -0.6305
16141TIP3    H269839   4.649   3.262  13.915 -0.3622  0.1523  0.8241
16142TIP3   OH269840   2.854   1.980  15.204  0.0257  0.0542 -0.2334
16142TIP3    H169841   2.759   1.993  15.199  0.2403  1.4288 -1.8941
16142TIP3    H269842   2.865   1.898  15.252 -2.0690 -1.0549 -1.5061
16143TIP3   OH269843   1.968   3.283   1.782 -0.0199 -0.2406  0.2471
16143TIP3    H169844   2.020   3.258   1.705  0.0564  1.0805 -0.1489
16143TIP3    H269845   1.883   3.242   1.768 -0.0255  0.0368 -0.5724
16144TIP3   OH269846   6.371   5.483   1.214 -0.4507  0.4751 -0.5142
16144TIP3    H169847   6.367   5.409   1.153 -0.1089 -0.0278  0.0679
16144TIP3    H269848   6.414   5.552   1.164 -0.9283  0.3462 -1.1222
16145TIP3   OH269849   6.340   3.365   0.799  0.0058  0.4122 -0.1190
16145TIP3    H169850   6.343   3.448   0.845 -2.3870  0.7255 -0.3921
16145TIP3    H269851   6.256   3.326   0.826  0.7645 -1.6131 -0.5044
16146TIP3   OH269852   1.923   5.734  14.471  0.4959  0.9195 -0.1938
16146TIP3    H169853   1.869   5.743  14.392  0.7962  1.3920 -0.3507
16146TIP3    H269854   1.873   5.674  14.527  0.5802  0.0820 -0.9886
16147TIP3   OH269855   6.080   1.865   1.292 -0.3771 -0.8709 -0.5675
16147TIP3    H169856   6.101   1.919   1.368  0.2764 -1.0061 -0.6534
16147TIP3    H269857   6.155   1.876   1.233  0.0182 -2.3073 -0.3485
16148TIP3   OH269858   0.690   6.481   3.707 -0.1232  0.1233  0.3529
16148TIP3    H169859   0.600   6.475   3.737  0.4597  1.0639  2.5524
16148TIP3    H269860   0.722   6.563   3.746  1.5343  0.0642 -0.7870
16149TIP3   OH269861   3.360   6.492  16.550  0.0576 -0.3309  0.5983
16149TIP3    H169862   3.332   6.582  16.566 -0.1550 -0.5525  1.4811
16149TIP3    H269863   3.399   6.495  16.462  2.0374  1.0822  1.4601
16150TIP3   OH269864   4.078   6.718  10.690  0.2208 -0.2967 -0.1015
16150TIP3    H169865   4.068   6.625  10.670  2.6514 -0.6214 -0.0529
16150TIP3    H269866   4.147   6.749  10.631 -0.7247  1.5698 -0.3197
16151TIP3   OH269867   3.777   2.473  15.349  0.3121  0.3977  0.2747
16151TIP3    H169868   3.733   2.542  15.299  1.8362  1.7471  0.7210
16151TIP3    H269869   3.843   2.519  15.400  4.1343 -1.6916 -2.2985
16152TIP3   OH269870   3.855   0.101  15.934  0.0830  0.2849 -0.0688
16152TIP3    H169871   3.787   0.108  15.868 -0.9522 -1.1493  0.7795
16152TIP3    H269872   3.817   0.139  16.013  0.0346 -0.9369  0.5321
16153TIP3   OH269873   4.740   0.596  11.488  0.9167  0.0428  0.6791
16153TIP3    H169874   4.673   0.650  11.446 -0.3957 -0.5283  1.9457
16153TIP3    H269875   4.717   0.598  11.581  1.3758 -1.9081  0.8787
16154TIP3   OH269876   4.125   4.529  11.745  0.1502  0.9263 -0.5367
16154TIP3    H169877   4.141   4.436  11.761 -1.1942  0.6644 -0.6428
16154TIP3    H269878   4.156   4.572  11.824  0.0215  0.3169 -0.1467
16155TIP3   OH269879   1.361   2.867  10.766  0.3329 -0.2392 -0.0544
16155TIP3    H169880   1.411   2.847  10.687 -1.3825 -0.2403 -1.1915
16155TIP3    H269881   1.418   2.923  10.817  2.4036 -2.1097 -0.1830
16156TIP3   OH269882   5.195   0.618  10.341 -0.4682  0.4779  0.2098
16156TIP3    H169883   5.133   0.690  10.342  0.3280  1.2170 -1.2272
16156TIP3    H269884   5.193   0.585  10.251  0.3220 -0.2723  0.4500
16157TIP3   OH269885   1.768   3.430   4.653  0.3473  0.0637  0.3983
16157TIP3    H169886   1.786   3.494   4.722  0.0053 -0.5620  1.0765
16157TIP3    H269887   1.816   3.352   4.679 -0.2873 -0.3830  0.2560
16158TIP3   OH269888   2.680   4.767  14.472 -0.2825 -0.5877  0.3626
16158TIP3    H169889   2.597   4.810  14.451 -1.1520 -2.0681  0.5558
16158TIP3    H269890   2.660   4.715  14.550  1.4359  0.6948  1.7047
16159TIP3   OH269891   2.912   0.199  12.774 -0.4373 -0.1517 -0.4851
16159TIP3    H169892   2.877   0.144  12.844 -0.3980 -0.1573 -0.4698
16159TIP3    H269893   2.953   0.137  12.714  1.1331 -0.0177  0.3971
16160TIP3   OH269894   4.447   0.941  10.633 -0.1030 -0.3040  0.2071
16160TIP3    H169895   4.427   1.012  10.694 -0.6108 -0.3054  0.0501
16160TIP3    H269896   4.541   0.927  10.643 -0.1048 -0.0235  0.6839
16161TIP3   OH269897   6.155   0.386   2.861 -0.8457  0.2157 -0.2187
16161TIP3    H169898   6.116   0.471   2.882 -1.3649 -0.1993  0.5248
16161TIP3    H269899   6.238   0.408   2.819 -0.8409  1.0895  0.2208
16162TIP3   OH269900   6.741   3.138   0.555  0.2293  0.1799 -0.7124
16162TIP3    H169901   6.745   3.124   0.460 -2.8167  0.8799 -1.0475
16162TIP3    H269902   6.770   3.228   0.567 -0.2442  0.3978 -1.1301
16163TIP3   OH269903   2.643   3.400  12.610 -0.0304  0.2881  0.4887
16163TIP3    H169904   2.724   3.409  12.560 -0.3711  0.0704 -0.1104
16163TIP3    H269905   2.598   3.484  12.597 -0.1911  0.1727  0.3018
16164TIP3   OH269906   6.362   2.480   1.957  0.3220  0.3170 -0.2058
16164TIP3    H169907   6.287   2.518   2.003 -0.7596 -2.7457  0.7899
16164TIP3    H269908   6.420   2.449   2.026  1.7494  1.1640 -0.9810
16165TIP3   OH269909   5.659   1.417  15.414 -0.1000 -0.6438 -0.0920
16165TIP3    H169910   5.743   1.382  15.384  0.8559  0.8153  0.7743
16165TIP3    H269911   5.666   1.512  15.402 -1.3713 -0.4313  0.6096
16166TIP3   OH269912   2.823   6.099   0.326 -0.3892  0.5849  0.4478
16166TIP3    H169913   2.784   6.017   0.298 -2.6388  1.2431  1.4028
16166TIP3    H269914   2.875   6.129   0.252 -1.7025 -0.3891 -0.9039
16167TIP3   OH269915   2.573   3.576   1.128  0.6823 -0.0638 -0.9919
16167TIP3    H169916   2.546   3.499   1.178 -1.0913  1.2266  0.1938
16167TIP3    H269917   2.636   3.620   1.185  0.7398 -0.0031 -1.1033
16168TIP3   OH269918   1.606   1.516   0.540 -0.1029  0.0497  0.5667
16168TIP3    H169919   1.561   1.548   0.617 -0.4672  0.1178  0.3279
16168TIP3    H269920   1.657   1.591   0.508 -1.2029  0.5120 -0.1777
16169TIP3   OH269921   4.355   5.919  16.793 -0.1382  0.6130 -0.9809
16169TIP3    H169922   4.300   5.987  16.753 -0.2430  2.1075  1.5091
16169TIP3    H269923   4.392   5.961  16.871  0.5925 -1.9002  0.1168
16170TIP3   OH269924   1.523   6.156   3.249  0.0724  0.1919  0.0081
16170TIP3    H169925   1.600   6.212   3.256 -0.5700  1.4174 -1.7303
16170TIP3    H269926   1.553   6.069   3.273  2.1529  0.5322 -1.1607
16171TIP3   OH269927   4.151   3.989  14.895 -0.1292  0.0804  0.1378
16171TIP3    H169928   4.164   3.915  14.953  0.5004  0.1147  0.0448
16171TIP3    H269929   4.230   4.042  14.906 -0.1501  0.2487 -0.5081
16172TIP3   OH269930   0.276   3.494  12.682 -0.5465 -0.0056 -0.1873
16172TIP3    H169931   0.273   3.475  12.588  0.4490 -1.1535 -0.0199
16172TIP3    H269932   0.354   3.447  12.713 -1.4114 -0.4641  1.3874
16173TIP3   OH269933   5.097   1.511   0.469 -0.0845 -0.2849 -0.2938
16173TIP3    H169934   5.043   1.484   0.544  0.4472 -0.0728  0.1681
16173TIP3    H269935   5.101   1.432   0.414 -1.5356 -0.0740 -0.7527
16174TIP3   OH269936   4.219   4.235  16.102  0.1980 -0.3222  0.3855
16174TIP3    H169937   4.301   4.219  16.056  0.4190 -0.2729  0.7572
16174TIP3    H269938   4.169   4.155  16.091 -0.4175  0.2558 -1.3005
16175TIP3   OH269939   6.257   1.037  12.348 -0.5158  0.2267 -0.2930
16175TIP3    H169940   6.302   1.012  12.429  0.1346 -0.2485 -0.7919
16175TIP3    H269941   6.226   1.126  12.365  0.3598  0.4588  0.1779
16176TIP3   OH269942   2.496   4.914   3.013  0.2110  0.7740 -0.1938
16176TIP3    H169943   2.552   4.853   3.061  0.6452 -0.6747 -2.4018
16176TIP3    H269944   2.459   4.861   2.942 -2.2036  2.2526 -0.1393
16177TIP3   OH269945   3.170   1.219   0.778  0.0766 -0.0620  0.0998
16177TIP3    H169946   3.248   1.248   0.730 -0.3471 -0.3754 -0.7930
16177TIP3    H269947   3.160   1.285   0.847 -1.3960  2.6055 -2.4214
16178TIP3   OH269948   4.014   2.025  14.298 -0.3621 -0.3702 -0.2106
16178TIP3    H169949   3.988   1.966  14.227  2.9492 -1.0883 -1.0238
16178TIP3    H269950   4.109   2.034  14.288 -0.3917  3.6410  1.0237
16179TIP3   OH269951   3.322   0.369   1.458  0.5466 -0.3263 -0.2004
16179TIP3    H169952   3.320   0.451   1.410  0.7503 -1.0469 -1.4744
16179TIP3    H269953   3.412   0.363   1.490  0.2941  0.3654  0.6784
16180TIP3   OH269954   6.060   2.345   3.069 -0.4644 -0.2436  0.4681
16180TIP3    H169955   6.006   2.315   2.996 -0.3899 -0.2197  0.4029
16180TIP3    H269956   6.123   2.404   3.028 -0.2619 -0.4287  0.5160
16181TIP3   OH269957   5.784   6.183   3.075  0.2582  0.6313 -0.1643
16181TIP3    H169958   5.698   6.161   3.112 -0.1305  0.9623 -0.8613
16181TIP3    H269959   5.837   6.206   3.152 -0.4546  1.0248  0.2290
16182TIP3   OH269960   5.823   5.096   3.262 -0.4942  0.0826  0.3951
16182TIP3    H169961   5.816   5.123   3.353 -0.2297  1.6269 -0.0138
16182TIP3    H269962   5.752   5.143   3.218  0.5331  0.8547 -0.4992
16183TIP3   OH269963   5.240   1.926   5.502  0.3939  0.2645 -0.1688
16183TIP3    H169964   5.221   1.838   5.536  1.4607 -0.3668 -1.1102
16183TIP3    H269965   5.333   1.940   5.522  0.0459  1.5126  0.6393
16184TIP3   OH269966   2.452   5.928  13.458  0.9407 -0.5040 -0.4285
16184TIP3    H169967   2.459   5.976  13.540  0.6290 -0.1635 -0.5984
16184TIP3    H269968   2.482   5.840  13.479  0.9086 -0.4042  0.0406
16185TIP3   OH269969   5.570   5.620  12.206 -0.0903  0.5536 -0.6322
16185TIP3    H169970   5.479   5.639  12.186 -1.3436 -2.7982  1.0386
16185TIP3    H269971   5.592   5.546  12.149  0.3127 -0.9990  1.4205
16186TIP3   OH269972   1.700   2.865  13.973  0.0669 -0.1383  0.4125
16186TIP3    H169973   1.690   2.786  13.920  2.9448  0.3866 -1.1535
16186TIP3    H269974   1.692   2.835  14.063 -1.8022 -1.6419 -0.1830
16187TIP3   OH269975   1.084   1.411   2.430  0.0848 -0.2298 -0.7432
16187TIP3    H169976   1.116   1.354   2.500 -1.1239 -0.7707 -0.6170
16187TIP3    H269977   1.042   1.484   2.475 -2.2483 -1.4390 -0.8358
16188TIP3   OH269978   1.645   6.508   3.802 -0.7131 -0.1334  0.1855
16188TIP3    H169979   1.736   6.499   3.775 -0.8803  0.0208 -0.4317
16188TIP3    H269980   1.645   6.481   3.894 -0.0741 -0.2756  0.1482
16189TIP3   OH269981   6.217   3.025   5.156 -0.8799  0.1583  0.7939
16189TIP3    H169982   6.150   3.031   5.088 -1.1527  0.6055  1.0895
16189TIP3    H269983   6.168   3.029   5.238 -0.4769  0.8199  1.0168
16190TIP3   OH269984   6.483   4.929   4.576  0.2677 -0.1459  0.7528
16190TIP3    H169985   6.394   4.929   4.541  0.0563 -1.5151  1.2225
16190TIP3    H269986   6.490   4.847   4.624  2.7626 -1.5693 -1.7383
16191TIP3   OH269987   3.097   0.921   4.054 -0.2744  0.8900 -0.1569
16191TIP3    H169988   3.081   1.006   4.015 -1.5139  1.2027  0.9598
16191TIP3    H269989   3.025   0.866   4.023  0.3031  0.3456 -0.5647
16192TIP3   OH269990   0.347   6.632  12.710  0.2850 -0.1087 -0.0391
16192TIP3    H169991   0.385   6.662  12.792 -0.6203 -0.5770  0.5772
16192TIP3    H269992   0.260   6.599  12.735 -0.0824 -0.0788 -1.2132
16193TIP3   OH269993   5.554   3.136  12.570  0.2119 -0.0441  0.0705
16193TIP3    H169994   5.497   3.189  12.514  0.4951 -1.3599 -1.5733
16193TIP3    H269995   5.598   3.077  12.508  1.0657 -1.1083  1.6425
16194TIP3   OH269996   1.084   0.838  16.452  0.4561 -0.3629 -0.2030
16194TIP3    H169997   1.035   0.757  16.439 -0.2305  0.0990 -0.4965
16194TIP3    H269998   1.098   0.873  16.364  1.4392 -0.5506 -0.1399
16195TIP3   OH269999   5.124   5.748  14.906  0.0787 -0.4155 -0.2803
16195TIP3    H170000   5.168   5.663  14.907 -0.2405 -0.6215 -1.3969
16195TIP3    H270001   5.043   5.732  14.857  0.5593  0.7760 -1.5355
16196TIP3   OH270002   5.466   2.651  13.221 -0.1784  0.7051  0.0153
16196TIP3    H170003   5.424   2.686  13.300 -1.3213  1.5806 -0.9436
16196TIP3    H270004   5.418   2.570  13.202 -0.7694  1.1722 -0.5042
16197TIP3   OH270005   6.761   3.394  12.456 -0.1000 -0.0866 -0.5025
16197TIP3    H170006   6.760   3.300  12.438  1.8297 -0.3642  0.5540
16197TIP3    H270007   6.685   3.408  12.513 -0.8484 -0.8506 -1.2823
16198TIP3   OH270008   3.415   0.911   5.294  0.6528  0.2544  0.4870
16198TIP3    H170009   3.365   0.842   5.249  2.4259  0.6234 -2.3270
16198TIP3    H270010   3.354   0.985   5.298 -0.2292 -0.4543  0.5859
16199TIP3   OH270011   0.880   3.974  12.278  0.2431 -0.6699 -0.3212
16199TIP3    H170012   0.932   4.037  12.328 -1.3671  0.6469 -0.2199
16199TIP3    H270013   0.923   3.890  12.293  2.2600  0.3131 -0.1678
16200TIP3   OH270014   0.037   3.841  14.731 -0.2761 -0.0527  1.0396
16200TIP3    H170015   0.005   3.793  14.655 -0.9727  2.3819 -0.3137
16200TIP3    H270016   0.048   3.775  14.799  0.5842 -2.3763 -1.2174
16201TIP3   OH270017   6.323   3.036   0.709  0.3231 -0.4744 -0.1011
16201TIP3    H170018   6.338   3.076   0.795 -0.5660 -3.1769  1.4218
16201TIP3    H270019   6.411   3.019   0.675  0.7203 -0.9709  1.1145
16202TIP3   OH270020   5.466   0.841   6.347 -0.5532  0.3982  0.5123
16202TIP3    H170021   5.486   0.782   6.275  0.3310  0.7233  0.4725
16202TIP3    H270022   5.552   0.874   6.376 -1.0122  1.7084  0.4802
16203TIP3   OH270023   5.560   3.778   5.902  0.0587  0.1131  0.5439
16203TIP3    H170024   5.629   3.716   5.926  0.0112 -0.0768  0.1942
16203TIP3    H270025   5.544   3.827   5.983  0.1732 -0.2536  0.7963
16204TIP3   OH270026   2.217   0.051   0.486  0.8832 -0.1955 -0.4702
16204TIP3    H170027   2.260   0.094   0.560  1.5724 -1.0364 -0.3643
16204TIP3    H270028   2.188   0.123   0.430 -0.1023  0.4863  0.8502
16205TIP3   OH270029   4.854   0.871  13.074 -0.1097  0.1812  0.3849
16205TIP3    H170030   4.784   0.899  13.133  0.8340  0.5064  1.3736
16205TIP3    H270031   4.927   0.929  13.093  0.2705  0.2159 -1.0396
16206TIP3   OH270032   6.783   1.165   2.086 -0.7361 -0.5536  0.8569
16206TIP3    H170033   6.719   1.094   2.084 -2.0422  0.6065 -0.1694
16206TIP3    H270034   6.731   1.245   2.085  0.6934  0.4523  2.0801
16207TIP3   OH270035   1.593   4.421  11.538 -0.5883 -0.4625  0.4303
16207TIP3    H170036   1.515   4.473  11.517 -0.1449 -0.2864 -0.8779
16207TIP3    H270037   1.654   4.482  11.579 -0.8682 -0.4466  0.8306
16208TIP3   OH270038   4.501   4.851  12.314  0.1746  0.0122 -0.5167
16208TIP3    H170039   4.477   4.896  12.233  0.0745  0.8205 -0.0511
16208TIP3    H270040   4.500   4.758  12.292  0.7509  0.2501 -1.6057
16209TIP3   OH270041   2.508   4.217  12.964 -0.0588 -0.1670 -0.1146
16209TIP3    H170042   2.577   4.256  12.910  2.0826  0.0746  2.5415
16209TIP3    H270043   2.453   4.291  12.990 -0.2803 -0.0756 -0.8379
16210TIP3   OH270044   4.426   4.656  10.727  0.9904 -0.1174  0.3669
16210TIP3    H170045   4.412   4.570  10.688 -0.9365 -0.1579  1.0587
16210TIP3    H270046   4.494   4.696  10.673  0.7964 -1.4600 -0.9329
16211TIP3   OH270047   0.429   0.042   5.338 -0.1608 -0.5994 -1.3419
16211TIP3    H170048   0.355   0.031   5.397  1.5453  0.3598  1.1014
16211TIP3    H270049   0.507   0.025   5.391  1.5569  1.7524 -2.8697
16212TIP3   OH270050   6.566   0.614  11.552  0.3964 -0.2506  0.1937
16212TIP3    H170051   6.483   0.660  11.537  0.3945  0.5294  2.3460
16212TIP3    H270052   6.633   0.673  11.516  0.1351 -0.2456 -0.2960
16213TIP3   OH270053   3.459   5.160   1.340 -0.4534 -0.5504  0.1525
16213TIP3    H170054   3.533   5.216   1.318 -1.7776  0.6998 -1.4445
16213TIP3    H270055   3.395   5.176   1.270 -2.6114 -0.8229  1.9217
16214TIP3   OH270056   0.558   4.734  12.698 -0.1232  0.2659  0.1825
16214TIP3    H170057   0.612   4.678  12.754 -0.0610  0.4752  0.3305
16214TIP3    H270058   0.478   4.748  12.749  0.0486  0.6863  0.3364
16215TIP3   OH270059   6.398   5.391   0.776  0.7097  0.5302 -0.5370
16215TIP3    H170060   6.351   5.460   0.824  1.1710  0.8735 -0.5661
16215TIP3    H270061   6.461   5.358   0.839 -0.8158 -1.2722  0.1426
16216TIP3   OH270062   2.440   0.948  12.057  0.2933 -0.0896 -0.1142
16216TIP3    H170063   2.355   0.972  12.020  1.0208  3.5190  0.1899
16216TIP3    H270064   2.497   0.937  11.981 -0.2028 -1.8225 -0.2865
16217TIP3   OH270065   2.608   4.613  12.619  0.0336  0.6653 -0.3264
16217TIP3    H170066   2.682   4.582  12.567 -0.2093  0.3662 -0.4966
16217TIP3    H270067   2.634   4.701  12.648  0.8826  0.1738  0.4584
16218TIP3   OH270068   5.756   3.426  11.836  0.1456 -0.2956 -0.4912
16218TIP3    H170069   5.832   3.439  11.893  0.2438  0.1317 -0.7069
16218TIP3    H270070   5.794   3.409  11.750 -0.0004 -1.1128 -0.3968
16219TIP3   OH270071   2.094   6.293   3.100  0.7893 -0.6399 -0.7990
16219TIP3    H170072   2.073   6.333   3.015  0.1680 -0.7399 -0.6997
16219TIP3    H270073   2.130   6.365   3.152 -2.9308  0.6415  0.3697
16220TIP3   OH270074   1.947   6.180   2.729 -0.0132 -0.2135 -0.0672
16220TIP3    H170075   1.878   6.203   2.667 -1.4477 -0.8792  1.2285
16220TIP3    H270076   1.972   6.264   2.769 -1.3117 -0.1697  0.6888
16221TIP3   OH270077   2.918   2.619   5.176  0.2258 -0.4561  0.3984
16221TIP3    H170078   2.862   2.606   5.253  0.6416  1.1082  1.0194
16221TIP3    H270079   3.005   2.632   5.212  0.2221  1.6577 -0.1716
16222TIP3   OH270080   5.142   6.310   2.829 -0.5762  0.0784  0.4627
16222TIP3    H170081   5.196   6.334   2.904 -0.5752 -1.1307  0.8759
16222TIP3    H270082   5.202   6.311   2.755 -0.8597  2.6132  0.1822
16223TIP3   OH270083   2.594   1.011   1.788 -0.2192 -0.1017  0.3578
16223TIP3    H170084   2.644   1.089   1.766  0.2081 -0.6589 -0.7134
16223TIP3    H270085   2.626   0.985   1.875 -0.2162  0.7781  0.6294
16224TIP3   OH270086   4.041   2.312   4.960  0.5238 -0.4462 -0.3658
16224TIP3    H170087   3.994   2.229   4.964 -1.7903  0.8342  1.2756
16224TIP3    H270088   3.999   2.367   5.026  2.6291  1.7296 -0.6934
16225TIP3   OH270089   1.927   5.057  12.601 -0.0840 -0.2456 -0.6102
16225TIP3    H170090   1.884   4.972  12.607 -0.0510 -0.2028  0.5359
16225TIP3    H270091   1.867   5.118  12.644  0.3236  0.1317 -0.5687
16226TIP3   OH270092   6.631   6.796  11.504 -0.0043 -0.4611  0.3752
16226TIP3    H170093   6.663   6.706  11.500  0.0903 -0.4102 -0.1069
16226TIP3    H270094   6.544   6.793  11.466  0.5831 -0.1022 -1.0897
16227TIP3   OH270095   0.402   4.442   0.088 -0.5260  0.4049 -0.0243
16227TIP3    H170096   0.496   4.458   0.086 -0.5893  0.7277 -0.4230
16227TIP3    H270097   0.367   4.491   0.014 -0.9196 -0.2704 -0.2939
16228TIP3   OH270098   1.412   3.415   4.275 -0.0681 -0.0197  0.8002
16228TIP3    H170099   1.439   3.395   4.365  1.1825  0.2361  0.4937
16228TIP3    H270100   1.468   3.487   4.248  0.8997 -1.3213 -0.8404
16229TIP3   OH270101   3.831   0.250   3.192 -0.3579 -0.5431 -0.6185
16229TIP3    H170102   3.860   0.161   3.211  1.4519 -0.1995 -1.5475
16229TIP3    H270103   3.818   0.290   3.278 -1.4941 -1.7591 -0.1843
16230TIP3   OH270104   6.603   5.927   0.809  0.3631 -0.1996  0.1095
16230TIP3    H170105   6.679   5.930   0.750  0.7188 -0.7868  0.5204
16230TIP3    H270106   6.641   5.934   0.897 -0.0681 -0.4185  0.3152
16231TIP3   OH270107   5.397   1.341  13.061  0.1808  0.5664  0.2766
16231TIP3    H170108   5.411   1.363  12.969  1.9806 -1.3060  0.0323
16231TIP3    H270109   5.302   1.346  13.073 -0.2333 -0.4526 -2.0640
16232TIP3   OH270110   5.651   3.840   1.946 -0.1719  0.6880  0.2477
16232TIP3    H170111   5.694   3.775   1.891  0.3010  0.3320  1.0304
16232TIP3    H270112   5.634   3.914   1.887 -1.1136 -0.2954 -0.7565
16233TIP3   OH270113   6.072   2.716  15.754  0.4664 -0.1400  0.8518
16233TIP3    H170114   6.144   2.727  15.816  2.0539  1.6274 -1.1475
16233TIP3    H270115   6.026   2.800  15.757 -0.4038 -0.6073  0.7724
16234TIP3   OH270116   5.002   3.782   2.746 -0.0920 -0.1266  0.2393
16234TIP3    H170117   5.092   3.772   2.715 -0.5430 -0.2141 -1.1316
16234TIP3    H270118   4.951   3.796   2.666 -1.4877 -1.3570  0.8658
16235TIP3   OH270119   5.718   5.095  14.879  0.0459  0.0951  0.5048
16235TIP3    H170120   5.665   5.115  14.802  0.0898  0.1714  0.4935
16235TIP3    H270121   5.732   5.181  14.921  0.9199  0.2003  0.0189
16236TIP3   OH270122   2.610   6.182   2.789 -0.0448 -0.2524  0.4155
16236TIP3    H170123   2.676   6.197   2.721  0.6531 -0.9451  0.9290
16236TIP3    H270124   2.645   6.227   2.866 -1.4416  1.6429  0.0257
16237TIP3   OH270125   4.329   2.412   2.514 -0.5777  0.3422  0.0124
16237TIP3    H170126   4.400   2.410   2.577 -1.2909  0.6978  0.8449
16237TIP3    H270127   4.303   2.505   2.510 -0.2142  0.4085 -1.1777
16238TIP3   OH270128   4.467   2.327   0.277  0.2509 -0.3776  0.0389
16238TIP3    H170129   4.399   2.384   0.313  0.0423  0.0284 -0.9657
16238TIP3    H270130   4.433   2.238   0.292  0.4663 -0.2527  1.3844
16239TIP3   OH270131   6.636   3.414   2.737 -0.3375 -0.1600  0.2527
16239TIP3    H170132   6.591   3.350   2.792  2.5357 -0.8435  2.0181
16239TIP3    H270133   6.574   3.487   2.729 -2.3524 -1.6764  1.0911
16240TIP3   OH270134   5.482   6.163  11.526 -0.4026 -0.3743 -0.5250
16240TIP3    H170135   5.544   6.100  11.490 -0.4318 -1.3128  0.9792
16240TIP3    H270136   5.437   6.200  11.450  0.7578 -0.9677 -1.5222
16241TIP3   OH270137   1.868   3.448  14.492 -0.4523  0.4680 -0.1637
16241TIP3    H170138   1.842   3.377  14.551  0.1110 -0.0156 -0.4822
16241TIP3    H270139   1.840   3.528  14.536 -1.0355  0.0516  0.2350
16242TIP3   OH270140   4.432   3.299  15.141  0.0831 -0.3811  0.2492
16242TIP3    H170141   4.442   3.306  15.236  0.9078 -1.1274  0.2288
16242TIP3    H270142   4.516   3.264  15.110  0.2645  0.9274 -0.8935
16243TIP3   OH270143   5.793   0.039   5.595 -0.2232  0.0265  0.4357
16243TIP3    H170144   5.751  -0.036   5.636  3.0152 -1.1810  1.8971
16243TIP3    H270145   5.847   0.002   5.525  2.1701  0.7199  1.7881
16244TIP3   OH270146   2.307   5.469  12.532 -0.4188 -0.1686 -0.0391
16244TIP3    H170147   2.245   5.398  12.517 -0.6446 -0.2342  1.1245
16244TIP3    H270148   2.294   5.494  12.623  0.8434  0.2373  0.0521
16245TIP3   OH270149   0.724   4.572  13.680  0.3566 -0.7512  0.1206
16245TIP3    H170150   0.777   4.494  13.694  1.4102 -0.0769  0.0640
16245TIP3    H270151   0.738   4.594  13.588  1.4570  0.4593  0.5468
16246TIP3   OH270152   0.729   6.479  15.192  0.0533 -0.2488 -0.0988
16246TIP3    H170153   0.794   6.550  15.184  0.2796 -0.2200  1.6934
16246TIP3    H270154   0.767   6.418  15.254 -0.9479 -1.0468 -0.2416
16247TIP3   OH270155   0.225   6.070   2.902  0.3352  0.5130 -0.8444
16247TIP3    H170156   0.316   6.081   2.927  0.5402  0.2285 -1.4447
16247TIP3    H270157   0.181   6.149   2.935  1.0588  1.3148 -1.7486
16248TIP3   OH270158   5.043   2.206  15.099  0.2232  0.0773 -0.3720
16248TIP3    H170159   4.964   2.227  15.148 -0.3255  0.9210 -1.5501
16248TIP3    H270160   5.114   2.218  15.162 -0.5397 -0.2557  0.5847
16249TIP3   OH270161   0.982   3.920   3.961 -0.4276 -0.2397 -1.1559
16249TIP3    H170162   1.055   3.880   4.008  1.1757 -1.4341 -4.2833
16249TIP3    H270163   0.903   3.885   4.003  0.8239 -0.8306  0.8080
16250TIP3   OH270164   0.592   3.772  14.896  0.1020  0.3253 -0.3075
16250TIP3    H170165   0.658   3.704  14.911  0.3483  0.6435  0.0892
16250TIP3    H270166   0.523   3.754  14.961 -0.5527 -0.4365 -1.1986
16251TIP3   OH270167   4.014   6.666  16.951  0.8566 -0.4280  0.1598
16251TIP3    H170168   4.096   6.697  16.990  1.6920 -0.8536 -1.1925
16251TIP3    H270169   4.035   6.654  16.858 -1.0740  0.6444 -0.4795
16252TIP3   OH270170   2.378   4.885   2.306 -0.8242 -0.2867  0.0097
16252TIP3    H170171   2.382   4.872   2.212 -0.3265 -1.5978  0.1957
16252TIP3    H270172   2.336   4.971   2.317  0.1647  0.4081 -1.4100
16253TIP3   OH270173   1.687   5.408   1.474  0.3505 -0.3082 -0.0368
16253TIP3    H170174   1.748   5.431   1.404 -0.2434 -1.7710 -1.0934
16253TIP3    H270175   1.736   5.348   1.531  1.4052  2.1985  1.8646
16254TIP3   OH270176   3.832   6.189  15.505 -0.1661 -0.0020  0.4023
16254TIP3    H170177   3.882   6.261  15.543  0.1808 -0.2912  0.5029
16254TIP3    H270178   3.745   6.225  15.488 -0.4627  0.0277  1.8425
16255TIP3   OH270179   4.318   3.633   2.854  0.1834  0.2903 -0.1386
16255TIP3    H170180   4.408   3.658   2.875  1.2653 -2.6433 -0.9449
16255TIP3    H270181   4.279   3.609   2.938  0.4715  0.5312  0.0647
16256TIP3   OH270182   6.810   0.721  10.460  0.1913 -0.0787  0.9746
16256TIP3    H170183   6.739   0.658  10.449  0.1105  0.0928  0.4943
16256TIP3    H270184   6.881   0.686  10.405 -0.8543  1.7675 -1.7187
16257TIP3   OH270185   1.340   5.048  16.112 -0.3188  0.1748  0.4836
16257TIP3    H170186   1.305   5.087  16.032  0.6185  0.2255  0.0852
16257TIP3    H270187   1.344   5.121  16.175 -1.7783 -0.0303  0.8344
16258TIP3   OH270188   5.328   6.337   4.756 -0.4119  0.1014  0.3879
16258TIP3    H170189   5.290   6.252   4.776 -2.5175  0.1378 -2.7403
16258TIP3    H270190   5.287   6.397   4.820  0.3359 -1.0060  1.9656
16259TIP3   OH270191   5.490   0.934  16.729 -0.3126  0.0069  0.1103
16259TIP3    H170192   5.559   0.903  16.788  0.1993  1.3908  0.2856
16259TIP3    H270193   5.421   0.869  16.736 -0.1155 -0.0550  1.9818
16260TIP3   OH270194   6.447   6.769   5.168 -0.0895 -0.0964  0.4797
16260TIP3    H170195   6.371   6.735   5.216 -0.6753 -1.0545 -1.0785
16260TIP3    H270196   6.416   6.850   5.128 -0.3038 -0.5069 -0.1873
16261TIP3   OH270197   5.313   2.876  10.516 -0.4214  0.6039  0.1173
16261TIP3    H170198   5.272   2.867  10.430  0.8298  0.2716 -0.4574
16261TIP3    H270199   5.332   2.787  10.543  1.0734  0.8063 -0.2042
16262TIP3   OH270200   5.832   1.107   4.559 -0.1034  0.0972  0.2051
16262TIP3    H170201   5.916   1.153   4.549  0.5229 -0.8799  0.8622
16262TIP3    H270202   5.766   1.177   4.553  0.7466  0.8821 -0.3193
16263TIP3   OH270203   6.443   4.844   2.430  0.1570  0.3208 -0.0023
16263TIP3    H170204   6.365   4.820   2.381  0.2416 -1.8616  0.8094
16263TIP3    H270205   6.512   4.854   2.364 -0.4029  0.5441 -0.5617
16264TIP3   OH270206   6.712   5.445  14.673 -0.4066 -0.0867  0.4377
16264TIP3    H170207   6.717   5.352  14.693 -0.4814 -0.1860  0.0063
16264TIP3    H270208   6.797   5.480  14.697 -0.4356 -0.2373  0.7569
16265TIP3   OH270209   1.553   4.992   0.957  0.2208 -0.2089 -0.3386
16265TIP3    H170210   1.540   4.908   1.001  2.3521 -0.1959  0.4361
16265TIP3    H270211   1.643   4.989   0.925  1.2677  2.6825  1.8532
16266TIP3   OH270212   1.183   4.910  13.972  0.3417 -0.2219  0.3833
16266TIP3    H170213   1.111   4.935  14.030  1.5575 -2.7866  3.2501
16266TIP3    H270214   1.140   4.864  13.899 -1.0082 -1.1501  1.6949
16267TIP3   OH270215   4.930   6.474   2.788  0.2766  0.0812  0.5274
16267TIP3    H170216   4.854   6.422   2.763 -0.5327  0.4312  2.1076
16267TIP3    H270217   4.997   6.409   2.811 -0.2215 -0.2669  1.0274
16268TIP3   OH270218   5.780   0.875   3.107  0.2035  0.7993 -0.0793
16268TIP3    H170219   5.853   0.846   3.162 -0.2425  0.9569  0.6149
16268TIP3    H270220   5.741   0.794   3.074  0.9181  0.7252 -0.7710
16269TIP3   OH270221   2.318   3.737  12.022 -0.1025  0.3465  0.5221
16269TIP3    H170222   2.261   3.661  12.016 -0.3626  0.5976 -0.3064
16269TIP3    H270223   2.271   3.797  12.080  0.0772 -0.0939  1.1286
16270TIP3   OH270224   6.122   1.227  14.867  0.3948  0.0615 -0.4868
16270TIP3    H170225   6.089   1.161  14.927  1.2016  0.5276  0.5076
16270TIP3    H270226   6.129   1.306  14.920  1.5074  0.3837 -1.0777
16271TIP3   OH270227   5.116   4.166   0.901  0.1027  0.9697  0.4552
16271TIP3    H170228   5.174   4.237   0.875  1.0290  0.2240  0.4294
16271TIP3    H270229   5.157   4.087   0.867 -2.0470  0.5881 -1.5080
16272TIP3   OH270230   4.201   2.537  12.543 -0.2119 -0.2425  0.2839
16272TIP3    H170231   4.264   2.492  12.599  0.9910  0.6844 -0.2712
16272TIP3    H270232   4.140   2.469  12.516  0.5472 -1.1784  0.8474
16273TIP3   OH270233   2.478   4.312   4.260  0.0226  0.0440 -0.3892
16273TIP3    H170234   2.505   4.272   4.343  0.0839 -0.5308 -0.6888
16273TIP3    H270235   2.391   4.278   4.243  0.4227 -0.6593 -1.0900
16274TIP3   OH270236   4.419   0.515   3.654  0.3199 -0.7264  0.2372
16274TIP3    H170237   4.392   0.492   3.743  0.2539 -1.1112  0.1203
16274TIP3    H270238   4.350   0.479   3.598 -1.1260  1.8916  0.1633
16275TIP3   OH270239   6.004   0.281  15.593  0.8662  0.4625  0.0011
16275TIP3    H170240   5.932   0.266  15.532  0.5176  0.1195  0.4890
16275TIP3    H270241   6.024   0.374  15.584  0.2648  0.5947 -0.0425
16276TIP3   OH270242   4.449   0.145   2.586  0.6070  0.3869  0.5296
16276TIP3    H170243   4.421   0.180   2.670 -1.4520  2.6339 -0.9555
16276TIP3    H270244   4.523   0.200   2.560  0.3455  0.6165  0.2623
16277TIP3   OH270245   5.752   3.331  13.159 -0.5397 -0.3568 -0.0627
16277TIP3    H170246   5.693   3.258  13.140 -0.9560  0.1853 -0.9410
16277TIP3    H270247   5.805   3.339  13.079  0.9122 -0.9873  0.8006
16278TIP3   OH270248   6.534   2.415  16.650 -0.6096 -0.1953 -0.4358
16278TIP3    H170249   6.552   2.458  16.567  0.6577  0.0159 -0.0721
16278TIP3    H270250   6.519   2.487  16.711 -1.1081 -0.3399 -0.3845
16279TIP3   OH270251   5.945   1.411  10.854 -0.2985 -0.5819  0.4634
16279TIP3    H170252   5.879   1.466  10.898  1.0780 -0.4041  2.4235
16279TIP3    H270253   5.946   1.444  10.764 -1.0618  1.1475  1.0291
16280TIP3   OH270254   6.560   1.536  14.008 -0.1133  0.1017 -0.6288
16280TIP3    H170255   6.648   1.564  14.032 -0.6489 -0.1279  1.8982
16280TIP3    H270256   6.559   1.442  14.030 -1.1750  0.2670  0.1111
16281TIP3   OH270257   1.156   1.776   3.215  0.0774 -0.0702 -0.3643
16281TIP3    H170258   1.198   1.842   3.159 -1.0553  0.3460 -0.7536
16281TIP3    H270259   1.155   1.817   3.302 -0.1680  0.2161 -0.5008
16282TIP3   OH270260   3.954   2.322  12.853  0.1518 -0.2526 -0.1772
16282TIP3    H170261   3.889   2.325  12.782  0.2582 -0.8629 -0.3057
16282TIP3    H270262   3.944   2.235  12.890  0.3355 -0.0546  0.3432
16283TIP3   OH270263   6.438   1.257  12.180 -0.1609 -0.0191 -0.6837
16283TIP3    H170264   6.376   1.331  12.178  0.3541  0.4084 -1.6417
16283TIP3    H270265   6.387   1.183  12.149 -0.6030 -0.0090 -0.0028
16284TIP3   OH270266   3.681   4.376  14.566  0.4405  0.1614  0.3880
16284TIP3    H170267   3.720   4.298  14.606  0.1907  0.6447  1.5950
16284TIP3    H270268   3.695   4.446  14.629  1.5362  1.3534 -1.0935
16285TIP3   OH270269   1.846   5.982   3.784  0.1123  0.0770  0.7145
16285TIP3    H170270   1.798   6.024   3.855  0.8310  1.3093  0.5127
16285TIP3    H270271   1.840   5.888   3.802 -1.7044  0.2317  1.0923
16286TIP3   OH270272   2.941   2.711  13.439  0.4928  0.0492 -0.1584
16286TIP3    H170273   2.887   2.637  13.466 -1.6197  1.7426  0.5713
16286TIP3    H270274   2.927   2.717  13.344  1.4162 -0.9884 -0.3847
16287TIP3   OH270275   6.282   6.294   4.232 -0.2038 -0.0130  0.5948
16287TIP3    H170276   6.219   6.225   4.255  0.3454 -0.2953  1.2736
16287TIP3    H270277   6.303   6.276   4.140 -1.5550  0.4432  0.1764
16288TIP3   OH270278   6.186   1.798  16.886  0.9333  0.5114  0.0391
16288TIP3    H170279   6.255   1.855  16.922  1.3814  0.5078 -0.7889
16288TIP3    H270280   6.207   1.791  16.793 -0.9893  1.6543 -0.5307
16289TIP3   OH270281   0.438   1.959  15.442  0.3798  0.1208 -0.0040
16289TIP3    H170282   0.430   1.969  15.537 -1.4565  3.9236 -0.3396
16289TIP3    H270283   0.347   1.951  15.412  0.7975  0.7901 -1.5263
16290TIP3   OH270284   4.946   3.649  11.311  0.5044  0.6871 -0.2232
16290TIP3    H170285   5.024   3.666  11.364 -0.5295  0.9924  1.2854
16290TIP3    H270286   4.874   3.653  11.374 -0.5596 -1.4705 -1.2207
16291TIP3   OH270287   0.789   0.175  12.531  0.2618 -0.7407  0.7172
16291TIP3    H170288   0.881   0.148  12.542 -0.3286 -2.3831  1.9364
16291TIP3    H270289   0.742   0.093  12.516 -0.9462  0.1483 -0.6152
16292TIP3   OH270290   1.536   1.027  12.092  0.2214 -0.4197  0.2956
16292TIP3    H170291   1.602   1.005  12.158  1.7940 -0.4726 -1.2296
16292TIP3    H270292   1.521   0.945  12.045  1.3694  0.2666 -1.3245
16293TIP3   OH270293   4.794   0.829  15.979  0.0431 -0.3711  0.4837
16293TIP3    H170294   4.749   0.883  16.044 -0.7187 -0.2853 -0.1066
16293TIP3    H270295   4.730   0.816  15.910  0.6967 -0.8454 -0.0456
16294TIP3   OH270296   4.394   1.588   3.595  0.2930  0.1203  0.2434
16294TIP3    H170297   4.346   1.513   3.629 -0.0048  0.3382  0.3055
16294TIP3    H270298   4.424   1.635   3.673 -0.8413  0.9112  0.2210
16295TIP3   OH270299   2.891   5.737   2.058 -0.1128  0.4743 -0.6545
16295TIP3    H170300   2.920   5.668   2.118 -2.2109  1.2524  1.4319
16295TIP3    H270301   2.876   5.692   1.975  0.4083 -1.1827  0.1024
16296TIP3   OH270302   2.336   0.375  14.924  0.0813 -0.6744  0.1493
16296TIP3    H170303   2.271   0.313  14.958  1.2072 -1.5381  0.7894
16296TIP3    H270304   2.368   0.335  14.844 -0.3396 -0.1261 -0.3006
16297TIP3   OH270305   4.839   3.608   3.867 -0.0746  0.1929 -0.2359
16297TIP3    H170306   4.795   3.531   3.903  0.0248 -0.2936 -1.1251
16297TIP3    H270307   4.908   3.628   3.931  0.2844 -0.8195 -0.2790
16298TIP3   OH270308   3.184   3.902  13.892  0.6083  0.2736  0.5632
16298TIP3    H170309   3.250   3.946  13.945  0.0977 -0.0597  1.4981
16298TIP3    H270310   3.153   3.831  13.947 -0.1898  0.1317 -0.0556
16299TIP3   OH270311   6.389   6.640   5.441  0.7634 -0.8994  0.3657
16299TIP3    H170312   6.298   6.661   5.462  0.1892 -2.3168 -0.4958
16299TIP3    H270313   6.437   6.653   5.523  0.7567  4.3350 -0.1224
16300TIP3   OH270314   6.464   3.360   0.563 -0.2322 -0.1588  0.9292
16300TIP3    H170315   6.400   3.341   0.631 -1.7386  0.8936 -0.1185
16300TIP3    H270316   6.467   3.281   0.509 -2.3765  0.5230 -0.2883
16301TIP3   OH270317   1.070   3.002   4.137  0.6961 -0.1987 -0.5824
16301TIP3    H170318   1.101   2.922   4.178 -1.8866 -1.1754 -0.3068
16301TIP3    H270319   1.068   3.067   4.208 -0.1650 -0.8198 -0.0137
16302TIP3   OH270320   4.294   2.869  15.752 -0.0174 -0.0603 -0.3167
16302TIP3    H170321   4.247   2.895  15.831 -0.0532 -0.4386 -0.2141
16302TIP3    H270322   4.226   2.864  15.685 -0.3007 -1.6119  0.0620
16303TIP3   OH270323   4.472   3.960   0.623  0.1389 -0.1307 -0.1639
16303TIP3    H170324   4.425   3.962   0.706  0.8081  1.1727  0.2237
16303TIP3    H270325   4.422   3.901   0.567 -0.6553 -0.5536  0.9696
16304TIP3   OH270326   5.707   0.419  10.700 -0.0248 -0.3237 -0.0122
16304TIP3    H170327   5.683   0.506  10.669 -0.1995 -0.8746 -1.4664
16304TIP3    H270328   5.778   0.391  10.643 -0.6971 -1.5689 -0.2713
16305TIP3   OH270329   1.443   5.995  16.781  0.0373 -0.4648  0.4462
16305TIP3    H170330   1.530   6.004  16.742 -0.0694 -3.7421 -0.8418
16305TIP3    H270331   1.455   6.019  16.873  2.7654 -2.3403  0.6915
16306TIP3   OH270332   4.047   1.864   2.480 -0.3996 -0.8603  0.3159
16306TIP3    H170333   4.116   1.930   2.486 -0.1800 -1.1836  1.7993
16306TIP3    H270334   3.981   1.892   2.543 -1.6033 -0.6098 -1.0107
16307TIP3   OH270335   5.915   0.916  16.549  0.1480 -0.2268  0.1519
16307TIP3    H170336   5.912   0.997  16.601 -0.9309 -0.3217  0.2627
16307TIP3    H270337   6.007   0.890  16.551  0.3390  0.4596  0.9514
16308TIP3   OH270338   5.903   1.747   0.157 -0.0567  0.5148 -0.0428
16308TIP3    H170339   5.908   1.777   0.248 -0.6254 -0.0171  0.1680
16308TIP3    H270340   5.882   1.826   0.107  1.4440  1.0489  0.1261
16309TIP3   OH270341   0.731   2.482  13.216 -0.1296 -0.4549 -0.1558
16309TIP3    H170342   0.746   2.432  13.296  0.7219 -0.1058 -0.0946
16309TIP3    H270343   0.725   2.415  13.147 -1.9572 -0.8426  0.3177
16310TIP3   OH270344   6.014   6.675  14.229  0.5677 -0.2462  0.3146
16310TIP3    H170345   5.921   6.652  14.231  0.6589 -0.5613  1.9259
16310TIP3    H270346   6.058   6.593  14.204  0.4087  0.0135 -0.8907
16311TIP3   OH270347   1.479   3.526   1.106 -0.5533 -0.0294 -0.8505
16311TIP3    H170348   1.427   3.459   1.062 -3.0402  0.6734  0.8037
16311TIP3    H270349   1.458   3.515   1.199  3.4676 -0.6075  0.1694
16312TIP3   OH270350   2.873   6.471  11.804  0.8171 -0.5167  0.8511
16312TIP3    H170351   2.939   6.430  11.860  0.2043 -2.0777  0.4965
16312TIP3    H270352   2.922   6.505  11.730  1.3625 -0.5898  1.1689
16313TIP3   OH270353   5.316   3.084   0.918 -0.4486 -0.0602  0.6171
16313TIP3    H170354   5.247   3.108   0.981  0.5535 -2.6192  2.9174
16313TIP3    H270355   5.391   3.062   0.973  1.2888 -0.1628 -1.6664
16314TIP3   OH270356   2.299   0.207   2.217 -0.4482  0.6866  0.1623
16314TIP3    H170357   2.307   0.286   2.163 -0.0271 -0.3285 -1.2982
16314TIP3    H270358   2.386   0.168   2.217 -0.3942  0.7269  1.7330
16315TIP3   OH270359   0.689   1.282   4.189  0.3714 -0.0530 -0.5486
16315TIP3    H170360   0.627   1.236   4.245 -0.4809  1.4014 -0.2510
16315TIP3    H270361   0.747   1.213   4.157 -1.0877 -1.3886 -0.4565
16316TIP3   OH270362   1.608   4.400   3.553  0.2286  0.4525  0.2131
16316TIP3    H170363   1.683   4.452   3.582  1.0069 -0.8222  0.5701
16316TIP3    H270364   1.647   4.325   3.507 -0.8411 -0.0439  0.0916
16317TIP3   OH270365   0.809   3.459   5.496 -0.5424  0.9202  0.0979
16317TIP3    H170366   0.856   3.415   5.567 -1.0589  0.6969  0.3081
16317TIP3    H270367   0.873   3.465   5.425  0.2989  1.9936  0.8949
16318TIP3   OH270368   2.408   6.678  12.535 -0.1069  0.0239  0.0003
16318TIP3    H170369   2.443   6.591  12.555  0.2966  0.0802 -0.4349
16318TIP3    H270370   2.366   6.706  12.616  1.7712  0.3945  0.9172
16319TIP3   OH270371   3.315   6.188   2.246 -0.5399  0.2418 -0.2685
16319TIP3    H170372   3.283   6.102   2.274 -2.2454  1.0109  0.2866
16319TIP3    H270373   3.340   6.233   2.327  0.4498  0.2537 -0.5649
16320TIP3   OH270374   1.032   2.149   4.507  0.3439  0.2684 -0.7460
16320TIP3    H170375   1.096   2.150   4.436  2.7252 -0.1480  1.2525
16320TIP3    H270376   1.029   2.058   4.536 -1.5460  0.1966 -1.0773
16321TIP3   OH270377   0.862   1.630   2.222 -0.0206 -0.9126  0.0117
16321TIP3    H170378   0.799   1.558   2.230  1.8157 -2.4737  1.5460
16321TIP3    H270379   0.859   1.673   2.307 -1.8210  1.5821 -1.2027
16322TIP3   OH270380   2.230   5.797   1.931 -0.4583 -0.3523 -0.4583
16322TIP3    H170381   2.281   5.864   1.885  0.4303 -1.0957 -0.5732
16322TIP3    H270382   2.209   5.732   1.864  1.5701 -1.8716  0.2934
16323TIP3   OH270383   4.613   2.949  11.245 -0.0757 -0.0039  0.1862
16323TIP3    H170384   4.654   2.863  11.251 -0.9926 -0.4191  0.6397
16323TIP3    H270385   4.679   3.009  11.282  0.3740 -0.5692  0.3211
16324TIP3   OH270386   2.821   6.342   4.075  0.5947 -0.0518 -0.0033
16324TIP3    H170387   2.846   6.392   4.154  1.5914 -1.0139  0.3113
16324TIP3    H270388   2.876   6.378   4.006 -0.1055  0.6263 -0.2133
16325TIP3   OH270389   6.146   5.873   0.484 -0.3466 -0.5852 -0.3135
16325TIP3    H170390   6.069   5.924   0.456 -1.0395 -1.4220  0.0391
16325TIP3    H270391   6.177   5.919   0.563  0.0248  0.2295 -0.9137
16326TIP3   OH270392   2.409   1.973  14.769  0.9581  0.6294 -0.0793
16326TIP3    H170393   2.316   1.976  14.792  0.9243  2.1193 -0.2934
16326TIP3    H270394   2.435   1.883  14.787 -0.2771  0.4448  0.9529
16327TIP3   OH270395   4.189   2.628   5.111 -0.1867  0.1644 -0.1630
16327TIP3    H170396   4.150   2.644   5.197  2.0381  0.6936  0.8175
16327TIP3    H270397   4.248   2.555   5.124  0.5647  0.5703 -1.1182
16328TIP3   OH270398   2.495   5.491   2.165  0.0569  0.7985  0.2470
16328TIP3    H170399   2.530   5.537   2.241 -0.3420  1.1561  0.2177
16328TIP3    H270400   2.400   5.498   2.174 -0.0240 -0.3837  0.4651
16329TIP3   OH270401   1.565   5.046   5.359  0.3376 -0.2858 -0.2066
16329TIP3    H170402   1.578   4.955   5.386  2.9340  0.6240  2.0801
16329TIP3    H270403   1.619   5.056   5.281 -2.0719 -1.2648 -2.1414
16330TIP3   OH270404   5.873   1.660   2.398  0.4322 -0.3840 -0.3323
16330TIP3    H170405   5.795   1.646   2.453  0.2076 -0.7552 -0.7423
16330TIP3    H270406   5.932   1.711   2.454 -0.9734  1.8615 -0.7906
16331TIP3   OH270407   5.040   1.584   4.668 -0.3624 -0.7207 -0.1405
16331TIP3    H170408   5.136   1.587   4.665 -0.2503 -1.6075  1.5429
16331TIP3    H270409   5.012   1.663   4.621  1.1914 -0.2041 -0.2448
16332TIP3   OH270410   3.967   0.276  11.552  0.3330  0.5742 -0.4931
16332TIP3    H170411   3.881   0.240  11.572 -0.4159  1.5934 -1.8048
16332TIP3    H270412   3.994   0.320  11.633 -0.8631  1.1817 -0.4087
16333TIP3   OH270413   1.851   4.281   4.579  0.1224  0.0312 -0.2935
16333TIP3    H170414   1.766   4.319   4.557 -0.1111 -0.2706  0.0766
16333TIP3    H270415   1.907   4.303   4.504 -0.4514 -0.3178 -0.8357
16334TIP3   OH270416   4.344   1.403   2.396  0.3216 -0.5123 -0.2963
16334TIP3    H170417   4.311   1.363   2.316 -1.1044  0.5605 -0.2784
16334TIP3    H270418   4.430   1.438   2.372  1.3953 -3.0138 -0.4457
16335TIP3   OH270419   1.580   2.304  11.937  0.2004 -0.7147 -0.7886
16335TIP3    H170420   1.642   2.232  11.944 -0.3849 -1.0483  4.0006
16335TIP3    H270421   1.635   2.383  11.938  0.7283 -1.0477  1.4954
16336TIP3   OH270422   0.302   1.510   0.687 -0.2400 -1.0322  0.9569
16336TIP3    H170423   0.335   1.551   0.607  1.5055 -3.7473  0.1186
16336TIP3    H270424   0.361   1.541   0.756 -0.0507 -0.7727  0.6833
16337TIP3   OH270425   5.891   5.968  16.215  0.3995  0.2955 -0.1743
16337TIP3    H170426   5.852   6.048  16.251 -2.3049 -0.9368 -0.1176
16337TIP3    H270427   5.946   5.999  16.143  0.2702  2.2750  0.5074
16338TIP3   OH270428   0.107   5.161   2.909 -0.0466 -0.1238  0.0799
16338TIP3    H170429   0.181   5.188   2.854  0.7457 -1.2851  0.5194
16338TIP3    H270430   0.053   5.107   2.851 -1.4165  1.9347 -0.6823
16339TIP3   OH270431   1.670   1.881  13.720 -0.6140  0.0283  0.1672
16339TIP3    H170432   1.639   1.876  13.810  1.8382 -0.4611  1.0865
16339TIP3    H270433   1.609   1.828  13.670 -1.7677 -0.0868  1.6292
16340TIP3   OH270434   3.677   2.295   5.203  0.3073  0.5124  0.2045
16340TIP3    H170435   3.770   2.302   5.224 -0.0588  0.4625  1.9919
16340TIP3    H270436   3.633   2.295   5.288 -1.4189  1.6976 -0.6281
16341TIP3   OH270437   4.574   0.317   0.415 -0.7448  0.2549  0.2629
16341TIP3    H170438   4.525   0.236   0.419 -0.2785 -0.1289 -1.2252
16341TIP3    H270439   4.572   0.343   0.323 -0.1919  1.4924  0.5696
16342TIP3   OH270440   2.237   1.335  15.708 -0.1131  0.1525 -0.4392
16342TIP3    H170441   2.272   1.416  15.672 -0.5205  0.6973  0.3636
16342TIP3    H270442   2.143   1.342  15.696 -0.0119 -1.1509 -2.2677
16343TIP3   OH270443   2.577   5.987   3.497  0.1911 -0.1654 -0.2719
16343TIP3    H170444   2.502   5.929   3.482 -0.3306  0.0330  1.3741
16343TIP3    H270445   2.567   6.015   3.588  1.9866  0.2878 -0.1929
16344TIP3   OH270446   1.159   3.164  15.483 -0.0211  0.1911  0.5117
16344TIP3    H170447   1.085   3.182  15.425  0.0306 -0.3599  0.2768
16344TIP3    H270448   1.169   3.245  15.534  0.0832  0.7601 -0.3999
16345TIP3   OH270449   3.987   4.874   4.991 -0.2312  0.3802 -0.1565
16345TIP3    H170450   3.927   4.812   5.033 -1.5988  1.6610 -0.1296
16345TIP3    H270451   3.952   4.883   4.902  0.4062  0.5589 -0.3918
16346TIP3   OH270452   2.788   3.441  14.722 -0.0702 -0.9016  0.3709
16346TIP3    H170453   2.793   3.532  14.692  1.0934 -1.3220 -0.7911
16346TIP3    H270454   2.877   3.408  14.715 -0.3607 -1.9825  1.3364
16347TIP3   OH270455   2.088   5.875  16.521 -0.1392 -0.1885  0.5772
16347TIP3    H170456   2.026   5.809  16.490  0.1348 -1.0879  1.8481
16347TIP3    H270457   2.159   5.872  16.457 -1.5577  1.2150 -1.1831
16348TIP3   OH270458   4.128   0.848   1.684 -0.2801 -0.0142  0.1865
16348TIP3    H170459   4.162   0.816   1.600 -1.0251 -2.1265  0.6448
16348TIP3    H270460   4.189   0.814   1.749  2.0648  4.0449  0.4945
16349TIP3   OH270461   0.590   5.320  13.586  0.2427  0.3321 -0.0069
16349TIP3    H170462   0.556   5.242  13.542  0.0203  0.3387  0.1528
16349TIP3    H270463   0.512   5.366  13.617  0.4415 -0.8902  2.5185
16350TIP3   OH270464   2.988   5.158  11.655  0.2346  0.7553  0.3184
16350TIP3    H170465   2.980   5.254  11.650  2.1649  1.0964  2.4136
16350TIP3    H270466   2.952   5.135  11.740  1.5692 -0.1464  0.6550
16351TIP3   OH270467   0.739   4.473   3.728  0.0809 -0.0316 -0.6396
16351TIP3    H170468   0.781   4.550   3.768 -0.7846 -0.2488  0.7677
16351TIP3    H270469   0.759   4.481   3.635  1.7921  0.7673 -0.2604
16352TIP3   OH270470   0.956   1.252  17.007  0.2199 -0.8219 -0.1003
16352TIP3    H170471   0.868   1.278  17.034  0.2713  0.5526 -1.1522
16352TIP3    H270472   0.957   1.157  17.017 -1.3842 -0.8574 -0.0585
16353TIP3   OH270473   1.864   4.514   2.196  0.2573 -0.0487 -0.8708
16353TIP3    H170474   1.790   4.462   2.228  0.4841  0.5760  0.7359
16353TIP3    H270475   1.917   4.452   2.145  0.6208 -1.4704  1.1342
16354TIP3   OH270476   2.991   5.491  11.993 -0.5386 -0.1352  0.1469
16354TIP3    H170477   3.031   5.424  12.049 -1.1457 -0.2910  0.3980
16354TIP3    H270478   2.908   5.452  11.965 -0.0039 -0.2904 -1.3075
16355TIP3   OH270479   6.729   4.463   0.250 -0.0739  0.5258  0.1897
16355TIP3    H170480   6.642   4.422   0.248  0.2376 -0.1087 -0.4265
16355TIP3    H270481   6.785   4.404   0.200  0.9394  0.4346  1.3721
16356TIP3   OH270482   0.558   0.005   0.908 -0.3897 -0.1792 -0.4573
16356TIP3    H170483   0.521  -0.010   0.995  0.2345  0.2233 -0.1141
16356TIP3    H270484   0.526   0.092   0.883  0.1885  0.1052 -0.2235
16357TIP3   OH270485   3.853   3.821  14.283  0.0832  0.1822  1.0083
16357TIP3    H170486   3.870   3.902  14.235  0.7907 -0.1928  0.6064
16357TIP3    H270487   3.796   3.770  14.226  0.0576  0.1859  1.0304
16358TIP3   OH270488   2.801   5.995   5.596 -0.4746  0.1864  0.1587
16358TIP3    H170489   2.833   6.058   5.531  0.0625  0.3502  0.5677
16358TIP3    H270490   2.714   6.026   5.619 -0.1450  0.8952  0.4918
16359TIP3   OH270491   2.404   3.703   4.192  0.4837 -0.0651 -0.0189
16359TIP3    H170492   2.415   3.790   4.229 -0.5444 -0.5437  1.4962
16359TIP3    H270493   2.319   3.706   4.148  0.7586 -0.1170 -0.5718
16360TIP3   OH270494   0.203   3.460   4.168  0.2602  0.1608 -0.0418
16360TIP3    H170495   0.208   3.465   4.263 -1.3544 -0.7325  0.1162
16360TIP3    H270496   0.250   3.379   4.146 -1.0186 -0.6782  0.1966
16361TIP3   OH270497   1.820   2.762   2.205 -0.1946 -0.2135  0.3021
16361TIP3    H170498   1.866   2.841   2.234 -1.9711  1.4440 -1.1063
16361TIP3    H270499   1.829   2.761   2.110  0.4881 -2.2172  0.3443
16362TIP3   OH270500   1.166   2.912   4.832  0.1521 -0.6239 -0.3664
16362TIP3    H170501   1.136   2.847   4.768  0.0034  1.0010 -2.0584
16362TIP3    H270502   1.225   2.969   4.782  0.7936  0.1519  1.2145
16363TIP3   OH270503   0.060   0.248  15.052 -0.2923  0.7340  0.6628
16363TIP3    H170504   0.060   0.153  15.061  3.3389  0.3274 -1.4211
16363TIP3    H270505   0.075   0.281  15.140  0.0683 -0.7356  1.1801
16364TIP3   OH270506   2.678   0.047   6.299  0.5633  0.3163  0.2149
16364TIP3    H170507   2.706   0.117   6.358  0.8824  2.3117 -2.1880
16364TIP3    H270508   2.760   0.003   6.275  0.7726  1.2213 -0.7876
16365TIP3   OH270509   6.601   3.814  16.088 -0.7500 -0.3602 -0.2859
16365TIP3    H170510   6.659   3.883  16.054 -1.9393  1.6883  1.5451
16365TIP3    H270511   6.525   3.816  16.030 -1.0111  0.2823  0.0649
16366TIP3   OH270512   3.391   4.537  13.776  0.0324  0.2188 -0.4821
16366TIP3    H170513   3.304   4.571  13.800 -0.5102 -1.7122  0.4143
16366TIP3    H270514   3.381   4.508  13.686  0.5096  2.2903 -1.2779
16367TIP3   OH270515   6.801   5.538  14.984  0.1195 -0.3741  0.5510
16367TIP3    H170516   6.867   5.539  14.915  0.5902  3.2777  0.8494
16367TIP3    H270517   6.851   5.527  15.065 -0.2930 -3.1188  0.5345
16368TIP3   OH270518   2.167   4.273   6.194 -0.3803 -0.2837  0.5176
16368TIP3    H170519   2.158   4.178   6.195  1.6741 -0.5110  1.9631
16368TIP3    H270520   2.131   4.299   6.109  1.3171 -2.6350 -1.0576
16369TIP3   OH270521   5.237   6.119  12.691  0.4906 -0.0168  0.1561
16369TIP3    H170522   5.277   6.155  12.612  3.2438 -2.3428  0.3026
16369TIP3    H270523   5.174   6.054  12.659  0.9353 -0.3003 -0.1570
16370TIP3   OH270524   1.244   1.719   4.084  0.1864 -0.0915  0.3423
16370TIP3    H170525   1.334   1.694   4.108  0.1758 -1.6247 -1.0232
16370TIP3    H270526   1.254   1.765   4.000 -0.2466  0.3255  0.5170
16371TIP3   OH270527   4.360   6.691  15.727 -0.1763 -0.2305  0.2002
16371TIP3    H170528   4.338   6.599  15.713  0.6653 -0.4951  0.5357
16371TIP3    H270529   4.313   6.737  15.657  2.4235 -1.3132 -2.4867
16372TIP3   OH270530   5.753   2.091  11.537  0.4814  0.3221 -0.2800
16372TIP3    H170531   5.750   2.067  11.630  1.0347  1.4226  0.0455
16372TIP3    H270532   5.789   2.014  11.493  2.5980  0.6200  0.7708
16373TIP3   OH270533   5.706   0.714   1.918  0.1523 -0.1833 -0.3648
16373TIP3    H170534   5.721   0.785   1.856  0.0785 -0.1385 -0.3310
16373TIP3    H270535   5.688   0.637   1.863  1.9759 -0.5912 -0.4615
16374TIP3   OH270536   3.465   4.064   5.023 -0.0100  0.0505  0.3134
16374TIP3    H170537   3.471   4.013   5.104 -0.6638 -1.0657 -0.3216
16374TIP3    H270538   3.409   4.139   5.046 -2.2315 -1.5115  0.3219
16375TIP3   OH270539   2.685   4.306  12.458  0.0307 -0.4791 -0.0963
16375TIP3    H170540   2.742   4.383  12.462  0.6953 -1.0166  1.9647
16375TIP3    H270541   2.600   4.338  12.491 -0.6338  0.0603 -2.1634
16376TIP3   OH270542   2.796   6.337  12.593  0.1808  0.2455  0.0661
16376TIP3    H170543   2.742   6.409  12.627  1.4877  0.8172  1.0005
16376TIP3    H270544   2.867   6.380  12.546 -0.8306 -0.5240 -2.2970
16377TIP3   OH270545   0.437   5.639  14.236 -0.0341  0.0787 -0.1112
16377TIP3    H170546   0.432   5.728  14.273 -0.0152  0.2576 -0.5298
16377TIP3    H270547   0.400   5.648  14.148 -0.7990 -0.5024  0.1421
16378TIP3   OH270548   3.375   2.095  12.967 -0.1351  0.3235 -0.0419
16378TIP3    H170549   3.284   2.064  12.967 -0.2101  0.4185  1.6298
16378TIP3    H270550   3.370   2.186  12.938 -0.5822  0.3221  0.0283
16379TIP3   OH270551   2.928   3.316   5.996  0.5441  0.0870  0.2438
16379TIP3    H170552   2.837   3.327   6.024  0.0418  0.2774 -1.3719
16379TIP3    H270553   2.979   3.361   6.062 -0.5099 -0.2377  1.3182
16380TIP3   OH270554   0.953   1.958   5.274  0.1396 -0.2685  0.1180
16380TIP3    H170555   0.894   1.904   5.327 -0.4676  0.5070  0.2581
16380TIP3    H270556   0.991   2.020   5.337 -0.6890  0.7485 -0.3659
16381TIP3   OH270557   4.855   4.649   3.048  0.6543 -0.1376  0.1362
16381TIP3    H170558   4.892   4.561   3.050 -1.6988 -1.1966  0.3253
16381TIP3    H270559   4.833   4.668   3.139  0.5776  0.3857  0.0110
16382TIP3   OH270560   1.191   2.855  11.594  0.4145 -0.0011  0.0345
16382TIP3    H170561   1.189   2.815  11.681  1.8024 -0.2366 -0.0232
16382TIP3    H270562   1.126   2.926  11.599 -1.7864 -1.9132  0.2814
16383TIP3   OH270563   4.293   1.809  15.509 -0.3381 -0.1696  0.2833
16383TIP3    H170564   4.222   1.863  15.475  1.5886  1.4356 -1.5045
16383TIP3    H270565   4.293   1.732  15.453 -1.0133 -0.4500  0.6619
16384TIP3   OH270566   3.944   0.253   1.866 -0.1059 -0.5173  0.1828
16384TIP3    H170567   3.928   0.332   1.815 -0.7847  0.4603  1.8384
16384TIP3    H270568   3.869   0.246   1.925  0.6109 -1.6265  1.0179
16385TIP3   OH270569   2.059   4.797  15.712 -0.4326  0.2365 -0.1144
16385TIP3    H170570   2.098   4.718  15.676  1.1554 -0.1106  2.1506
16385TIP3    H270571   2.133   4.856  15.727 -1.3377  1.3337  0.2264
16386TIP3   OH270572   2.583   1.343   1.426  0.3736 -0.4489  0.1265
16386TIP3    H170573   2.504   1.314   1.380 -0.4437 -0.1334  1.2774
16386TIP3    H270574   2.655   1.308   1.374 -0.5256 -1.1785 -0.6756
16387TIP3   OH270575   6.384   6.735  14.355 -0.2752  0.8596 -0.3145
16387TIP3    H170576   6.294   6.751  14.382 -2.4547 -1.7159 -4.8464
16387TIP3    H270577   6.392   6.640  14.351  2.8102  0.9794  0.1401
16388TIP3   OH270578   1.024   4.743   6.182  0.0540  0.1726  0.0206
16388TIP3    H170579   0.961   4.814   6.165  0.9256  1.0221  0.2918
16388TIP3    H270580   1.021   4.730   6.276 -0.9897 -1.0217 -0.1328
16389TIP3   OH270581   5.476   0.532   5.366 -0.5954  0.3860 -0.1646
16389TIP3    H170582   5.428   0.563   5.289  1.6292  2.7093 -0.7801
16389TIP3    H270583   5.422   0.560   5.440 -0.8579  1.7910 -0.8442
16390TIP3   OH270584   2.447   2.186   5.257  0.1123  0.4424 -0.0282
16390TIP3    H170585   2.415   2.161   5.170  0.2167 -1.0950  0.3573
16390TIP3    H270586   2.505   2.260   5.240 -0.7088  0.8652 -1.1442
16391TIP3   OH270587   3.957   5.904   4.020 -0.0114  0.8511  0.0924
16391TIP3    H170588   4.042   5.903   3.976  0.0902  1.0096  0.2840
16391TIP3    H270589   3.976   5.875   4.110 -0.4839 -1.2615 -0.4252
16392TIP3   OH270590   5.239   2.203   1.225  0.3222  0.1042  1.2087
16392TIP3    H170591   5.154   2.163   1.209 -0.6587  2.9089 -1.6129
16392TIP3    H270592   5.303   2.138   1.196 -1.0499 -0.4560 -0.6882
16393TIP3   OH270593   1.153   3.905  16.846  0.6962 -0.4549 -0.1606
16393TIP3    H170594   1.211   3.843  16.802  0.5491 -2.0255  1.7153
16393TIP3    H270595   1.132   3.863  16.929 -3.7018 -0.3711 -0.9640
16394TIP3   OH270596   6.794   1.197  16.309  0.2277 -0.1414 -0.5651
16394TIP3    H170597   6.724   1.131  16.314 -1.3617  1.5122  0.4210
16394TIP3    H270598   6.809   1.222  16.400  0.1909  1.4147 -0.9581
16395TIP3   OH270599   2.480   0.743  14.751 -0.6832 -0.3874 -0.2651
16395TIP3    H170600   2.479   0.750  14.655 -0.0657 -0.0795 -0.2519
16395TIP3    H270601   2.419   0.672  14.770 -0.9285 -0.3467 -0.8790
16396TIP3   OH270602   4.266   3.727  12.821  0.3136 -0.0754 -0.2873
16396TIP3    H170603   4.356   3.700  12.800  1.0061  1.6524  0.2693
16396TIP3    H270604   4.211   3.657  12.786  1.9135 -1.6131  0.1102
16397TIP3   OH270605   1.245   5.121  12.400  0.1962  0.2497 -0.2010
16397TIP3    H170606   1.270   5.043  12.350 -1.3746 -0.3999 -0.0270
16397TIP3    H270607   1.318   5.182  12.387  0.7490 -0.6597 -1.6111
16398TIP3   OH270608   5.186   3.035   3.960 -0.0247 -0.0796 -0.1506
16398TIP3    H170609   5.130   2.982   3.903  1.1510 -0.8366 -0.6239
16398TIP3    H270610   5.196   2.982   4.039  2.0649 -1.1551 -1.0526
16399TIP3   OH270611   0.028   6.460  12.169 -0.4154 -0.5568  0.1701
16399TIP3    H170612   0.051   6.502  12.086  0.5015 -0.3701  0.5119
16399TIP3    H270613   0.107   6.412  12.195 -0.7357 -0.7238  0.8678
16400TIP3   OH270614   4.643   3.711   0.446  0.3800  0.1624  0.4068
16400TIP3    H170615   4.605   3.676   0.526 -0.4515 -0.0654 -0.0759
16400TIP3    H270616   4.622   3.646   0.379  0.3800  0.7317 -0.1537
16401TIP3   OH270617   3.078   5.704   0.283  0.2121  0.5175 -0.3823
16401TIP3    H170618   3.148   5.725   0.345  1.5591  0.5568 -1.8650
16401TIP3    H270619   3.084   5.771   0.215 -0.8857  0.1759 -0.8444
16402TIP3   OH270620   0.046   5.387  14.284 -0.2141 -0.1705  0.1267
16402TIP3    H170621   0.113   5.367  14.219 -0.2632  1.0361 -0.3304
16402TIP3    H270622   0.064   5.329  14.357  0.2713 -1.0599 -0.6899
16403TIP3   OH270623   3.292   2.176   4.988 -0.2119  0.2229  0.3883
16403TIP3    H170624   3.270   2.268   4.972  1.0388  0.6343  0.9266
16403TIP3    H270625   3.329   2.175   5.076 -2.0387 -1.1372  1.2124
16404TIP3   OH270626   0.034   6.323  16.438  0.0097  0.1866  0.0459
16404TIP3    H170627  -0.030   6.269  16.484 -1.3423 -0.7111 -2.7246
16404TIP3    H270628   0.009   6.413  16.460 -1.1953 -0.1937  0.2615
16405TIP3   OH270629   5.063   4.737  14.582 -0.0467  0.8731 -0.4470
16405TIP3    H170630   4.992   4.675  14.568  0.8364 -0.2434 -0.1743
16405TIP3    H270631   5.021   4.817  14.614 -1.0697 -0.1061  0.6956
16406TIP3   OH270632   5.617   2.636   1.607  0.8796  0.1835  0.3909
16406TIP3    H170633   5.698   2.589   1.589 -0.3175 -1.7364 -0.3453
16406TIP3    H270634   5.574   2.583   1.674  0.0519  0.9138  0.4450
16407TIP3   OH270635   6.232   0.418   4.654  0.2837  0.3464  0.5149
16407TIP3    H170636   6.148   0.389   4.689  0.7477 -0.6655  0.8501
16407TIP3    H270637   6.296   0.360   4.696  0.9940 -0.0202 -1.0038
16408TIP3   OH270638   4.331   3.231   6.542  0.5832  0.1659  0.8810
16408TIP3    H170639   4.409   3.281   6.517 -0.3620  0.5097 -1.7073
16408TIP3    H270640   4.258   3.291   6.529 -0.2859 -0.7367  1.4001
16409TIP3   OH270641   2.490   4.162  11.036  0.2908 -0.0546 -0.1221
16409TIP3    H170642   2.551   4.116  10.979 -1.6453 -2.7732 -0.1662
16409TIP3    H270643   2.467   4.099  11.104  0.7919  2.3493  2.4960
16410TIP3   OH270644   4.053   3.154   2.221 -0.0842 -0.0618 -0.0723
16410TIP3    H170645   4.028   3.113   2.138 -0.1439  0.0807 -0.1238
16410TIP3    H270646   4.097   3.084   2.269  0.6247  0.0640 -0.5269
16411TIP3   OH270647   1.934   3.559   5.422  0.0974  0.5715  0.4260
16411TIP3    H170648   1.936   3.465   5.438  2.7788  0.6587  1.1074
16411TIP3    H270649   1.903   3.597   5.504 -0.3094  0.3264  0.3882
16412TIP3   OH270650   3.200   5.473   1.657 -0.5518 -0.2215 -0.0446
16412TIP3    H170651   3.269   5.422   1.614 -0.9425 -0.4930 -0.3537
16412TIP3    H270652   3.119   5.428   1.634 -0.9347  0.7001 -0.5721
16413TIP3   OH270653   4.311   1.953  12.252 -0.1079  0.2922 -0.1340
16413TIP3    H170654   4.309   2.003  12.171 -0.1436 -0.5250 -0.6392
16413TIP3    H270655   4.301   1.862  12.225 -1.4888  0.1086  0.8669
16414TIP3   OH270656   2.466   1.557   3.019 -0.6193  0.2407  0.2962
16414TIP3    H170657   2.398   1.607   2.974 -1.1167 -0.3497  0.3828
16414TIP3    H270658   2.478   1.479   2.965  2.1990  1.7149 -1.4539
16415TIP3   OH270659   6.409   0.072   1.627 -0.2806  0.0825  0.1828
16415TIP3    H170660   6.468   0.129   1.576 -0.9095  0.0237 -0.6298
16415TIP3    H270661   6.368   0.016   1.562  0.7403 -1.7247  1.0150
16416TIP3   OH270662   2.481   1.456  11.029 -0.2134  0.4562  0.1672
16416TIP3    H170663   2.477   1.547  11.058  1.6088 -0.0329  2.2109
16416TIP3    H270664   2.534   1.412  11.096  1.0502 -1.5932 -2.0443
16417TIP3   OH270665   2.565   2.452  15.700 -0.5034 -0.0927 -0.3164
16417TIP3    H170666   2.576   2.480  15.791 -0.0484 -2.2450  0.3596
16417TIP3    H270667   2.536   2.361  15.707 -0.2984 -0.3590 -2.3432
16418TIP3   OH270668   1.701   6.397   1.768 -0.0201  0.7397  0.3254
16418TIP3    H170669   1.641   6.360   1.703  0.6886 -2.0424  1.1380
16418TIP3    H270670   1.645   6.453   1.822 -1.3665  0.2280 -0.4753
16419TIP3   OH270671   3.436   5.432  16.363 -0.1388  0.1081  0.1409
16419TIP3    H170672   3.488   5.500  16.404 -1.9407  3.1992 -2.2571
16419TIP3    H270673   3.379   5.399  16.432 -0.2653  2.1499  1.0659
16420TIP3   OH270674   3.592   6.286  14.394  0.3754  0.7048 -0.5260
16420TIP3    H170675   3.686   6.271  14.398  0.0837 -1.1270  1.1173
16420TIP3    H270676   3.576   6.315  14.304  2.5682  1.7521 -0.6393
16421TIP3   OH270677   4.477   3.216  12.156  0.6631  0.0410  0.0264
16421TIP3    H170678   4.421   3.292  12.176 -0.5968 -0.9833  0.5860
16421TIP3    H270679   4.428   3.166  12.091  1.2252 -0.5619  0.0525
16422TIP3   OH270680   4.800   4.786   3.649 -0.2609 -0.2738 -0.3417
16422TIP3    H170681   4.798   4.752   3.738  0.8453  0.3061 -0.0722
16422TIP3    H270682   4.764   4.875   3.656  0.9589  0.2308 -0.2335
16423TIP3   OH270683   1.028   3.500   5.343  0.2893 -0.2839  0.7008
16423TIP3    H170684   1.064   3.535   5.425 -0.8208  0.1617  1.0189
16423TIP3    H270685   1.035   3.572   5.281 -0.2914 -0.0936  0.8452
16424TIP3   OH270686   4.707   3.426   1.103  0.2262  0.6734  0.2733
16424TIP3    H170687   4.686   3.451   1.192 -1.7181  2.6427 -0.6483
16424TIP3    H270688   4.736   3.507   1.061  0.8259 -0.1472 -0.9759
16425TIP3   OH270689   0.720   1.801  14.957 -0.6337  0.0330  0.2987
16425TIP3    H170690   0.642   1.753  14.931 -0.1994 -1.4586  1.5992
16425TIP3    H270691   0.689   1.890  14.973 -1.5804  0.0592 -1.5050
16426TIP3   OH270692   4.062   5.677  12.548  0.1964 -0.6851  0.2159
16426TIP3    H170693   4.024   5.765  12.556 -1.3044 -1.2216 -0.5833
16426TIP3    H270694   3.993   5.619  12.581  0.5575 -1.6617 -0.7161
16427TIP3   OH270695   3.859   2.666  12.656  0.5606  0.4333 -0.5202
16427TIP3    H170696   3.789   2.724  12.628  3.6706  4.1387 -1.5527
16427TIP3    H270697   3.886   2.620  12.576 -0.4407 -0.7798 -0.1816
16428TIP3   OH270698   2.157   6.196  13.598  0.2931  0.4015  0.1017
16428TIP3    H170699   2.231   6.254  13.579  0.2554  0.5801  0.4898
16428TIP3    H270700   2.175   6.117  13.546  1.2948  0.0223  0.9920
16429TIP3   OH270701   0.881   5.774  15.680  0.0462 -0.7978  0.0836
16429TIP3    H170702   0.950   5.828  15.642  1.2084 -1.3194  1.3495
16429TIP3    H270703   0.814   5.835  15.709 -0.7353 -0.3630 -2.4208
16430TIP3   OH270704   4.794   5.255  14.190 -0.4300  0.3065 -0.4435
16430TIP3    H170705   4.840   5.258  14.106 -1.6120  1.2781 -1.0833
16430TIP3    H270706   4.863   5.262  14.255  0.3468  2.0898 -1.3817
16431TIP3   OH270707   1.619   1.072  11.687  0.4483  0.3225 -0.0498
16431TIP3    H170708   1.667   1.076  11.604 -1.2505  1.1661 -1.0398
16431TIP3    H270709   1.533   1.038  11.663  0.7036 -1.8203  1.7915
16432TIP3   OH270710   4.632   5.027  14.291  0.1209 -0.0568  0.0506
16432TIP3    H170711   4.585   5.093  14.342 -1.4501  0.3799 -1.8378
16432TIP3    H270712   4.689   5.078  14.233  0.8169 -0.4815  0.3511
16433TIP3   OH270713   0.182   3.359   0.082 -0.2493 -0.3816  0.0584
16433TIP3    H170714   0.245   3.363   0.011 -1.1114  0.5217 -0.6815
16433TIP3    H270715   0.111   3.417   0.055 -0.4705  0.2183  1.7922
16434TIP3   OH270716   2.166   2.213  12.176  0.4775  0.3786  0.1003
16434TIP3    H170717   2.108   2.205  12.252  0.0681  1.6949 -0.0553
16434TIP3    H270718   2.192   2.305  12.175 -0.1902  0.5928 -1.8268
16435TIP3   OH270719   3.220   6.620   0.389 -0.2127  0.2674 -0.4036
16435TIP3    H170720   3.153   6.564   0.350  0.1246 -0.0105 -0.5960
16435TIP3    H270721   3.298   6.564   0.395  0.3912  0.9590 -1.4311
16436TIP3   OH270722   0.176   3.239  16.361 -0.2819 -0.2325 -0.3189
16436TIP3    H170723   0.131   3.163  16.323 -0.9594 -1.8352  3.2382
16436TIP3    H270724   0.105   3.294  16.393  0.2380  1.4941 -1.9938
16437TIP3   OH270725   5.909   1.349   3.696  0.0769  1.0356 -0.1184
16437TIP3    H170726   5.990   1.314   3.732 -0.5148 -2.4145 -1.7126
16437TIP3    H270727   5.843   1.331   3.764 -0.4130 -2.3560 -1.2750
16438TIP3   OH270728   0.574   1.824   0.821  0.3846  0.4874 -0.6276
16438TIP3    H170729   0.628   1.897   0.852  2.9344 -1.0737 -1.0625
16438TIP3    H270730   0.637   1.755   0.802 -2.0200 -2.5186  1.4523
16439TIP3   OH270731   3.420   0.913  13.494  0.3530  0.3701  0.3164
16439TIP3    H170732   3.333   0.875  13.504 -0.5506  2.4609  0.7931
16439TIP3    H270733   3.405   0.999  13.455  2.2634  0.5262 -0.1667
16440TIP3   OH270734   1.501   5.982  10.776  0.0432  0.2554 -0.4554
16440TIP3    H170735   1.513   6.077  10.768  0.2821  0.0969 -2.8597
16440TIP3    H270736   1.447   5.959  10.700  0.0780 -1.5515  0.0261
16441TIP3   OH270737   6.040   5.917  12.922  0.1354 -0.5359 -0.2677
16441TIP3    H170738   5.985   5.863  12.979  1.9288 -1.0454  1.0400
16441TIP3    H270739   6.013   6.006  12.940  0.0959 -0.7486  0.7656
16442TIP3   OH270740   0.558   1.307   0.347  0.0082  0.4146 -0.1617
16442TIP3    H170741   0.464   1.299   0.359  0.3065  0.2049  2.9265
16442TIP3    H270742   0.576   1.400   0.363  0.5433 -0.0400  2.4558
16443TIP3   OH270743   1.311   6.555  11.669 -0.5155 -0.0738 -0.1391
16443TIP3    H170744   1.384   6.610  11.638 -0.1595 -0.3119  0.2655
16443TIP3    H270745   1.253   6.548  11.593  0.5432 -0.9816 -0.9016
16444TIP3   OH270746   3.254   6.352  10.512 -0.0759  0.6725  0.1885
16444TIP3    H170747   3.158   6.352  10.513 -0.1429 -1.0490 -1.4891
16444TIP3    H270748   3.278   6.438  10.478 -1.1001  0.3957 -1.3179
16445TIP3   OH270749   0.146   1.190   2.403 -0.3065 -0.0215  0.1039
16445TIP3    H170750   0.216   1.249   2.375 -0.4199  0.1242  0.1258
16445TIP3    H270751   0.073   1.248   2.423  0.2145  0.0460  2.1032
16446TIP3   OH270752   0.431   3.781   5.511 -0.2040 -0.2132 -0.1447
16446TIP3    H170753   0.526   3.775   5.521 -0.4325 -0.9610  2.2027
16446TIP3    H270754   0.396   3.745   5.593 -2.5340 -0.5658 -1.2248
16447TIP3   OH270755   1.822   6.103  10.887 -0.1764 -0.2833  0.5756
16447TIP3    H170756   1.810   6.155  10.808  0.9254 -0.2542  0.4068
16447TIP3    H270757   1.806   6.013  10.860  0.7575 -0.3385  0.1646
16448TIP3   OH270758   4.900   4.634   4.132  0.3887  0.5248  0.1868
16448TIP3    H170759   4.949   4.696   4.187 -0.3886  1.1493  0.1974
16448TIP3    H270760   4.865   4.570   4.194 -1.9505  2.1848  0.7422
16449TIP3   OH270761   2.474   5.950  15.682 -0.9553 -0.0992 -0.1024
16449TIP3    H170762   2.560   5.909  15.687 -0.7799  0.3863  1.2558
16449TIP3    H270763   2.490   6.033  15.636 -0.9106 -0.5286 -0.8692
16450TIP3   OH270764   4.065   3.017  13.899  0.0898  0.4022 -0.0431
16450TIP3    H170765   4.149   2.980  13.872  0.2766 -0.9569  2.1792
16450TIP3    H270766   4.000   2.955  13.868  0.0009  0.6989 -0.4669
16451TIP3   OH270767   2.584   6.584  14.013  0.2118  0.1559  0.1294
16451TIP3    H170768   2.511   6.534  14.048  0.5991 -0.6489 -0.1878
16451TIP3    H270769   2.658   6.523  14.015 -0.1360 -0.6936 -3.8948
16452TIP3   OH270770   5.307   4.028   4.611  0.8319 -0.0234 -0.4373
16452TIP3    H170771   5.217   4.050   4.638  0.8902  0.3809 -0.5676
16452TIP3    H270772   5.352   4.113   4.607  0.9520 -0.1268 -1.3592
16453TIP3   OH270773   0.708   4.247   2.198  0.2862  0.2269  0.2781
16453TIP3    H170774   0.657   4.325   2.174 -0.0399 -0.5575 -1.8628
16453TIP3    H270775   0.784   4.281   2.244 -0.7322  1.6644  0.9817
16454TIP3   OH270776   2.041   4.983  12.079  0.4724 -0.2473  0.2518
16454TIP3    H170777   2.013   4.926  12.151 -1.9999  0.0672 -0.3710
16454TIP3    H270778   2.068   4.924  12.010  0.3803 -0.6162  0.5298
16455TIP3   OH270779   0.541   1.236  12.187  0.8613  0.2522 -0.0117
16455TIP3    H170780   0.526   1.326  12.160  0.5798 -0.0141 -0.7570
16455TIP3    H270781   0.577   1.243  12.276 -0.5732  1.0303  0.5263
16456TIP3   OH270782   4.649   0.684   3.872  0.1489 -0.3725 -0.8732
16456TIP3    H170783   4.637   0.757   3.933  1.9139 -0.6832 -0.0717
16456TIP3    H270784   4.663   0.726   3.787 -1.0602  0.1176 -0.8491
16457TIP3   OH270785   0.859   3.032  16.235 -0.3298 -0.0094  0.2611
16457TIP3    H170786   0.773   3.057  16.270 -0.1181 -0.5266  1.2036
16457TIP3    H270787   0.896   3.112  16.200 -2.0625 -0.1493 -2.1115
16458TIP3   OH270788   4.133   2.492  13.326  0.6272  0.0757 -0.0376
16458TIP3    H170789   4.043   2.471  13.351  0.2985 -0.4391 -1.5578
16458TIP3    H270790   4.142   2.585  13.346  0.1132 -0.0921  1.0871
16459TIP3   OH270791   0.762   3.898   0.948 -0.0241 -0.5684  0.3785
16459TIP3    H170792   0.823   3.928   1.016  0.6787  0.1663 -0.5316
16459TIP3    H270793   0.711   3.976   0.926 -0.8622 -1.0259  0.6910
16460TIP3   OH270794   6.121   4.516   5.591 -0.0442 -0.2397 -0.4444
16460TIP3    H170795   6.156   4.544   5.675  0.7492 -1.5707 -0.3104
16460TIP3    H270796   6.191   4.533   5.528  0.2346 -1.3280 -0.4519
16461TIP3   OH270797   4.993   5.626  13.939  0.1057  0.4067  0.3218
16461TIP3    H170798   5.087   5.641  13.949  0.4300 -1.4811  0.5106
16461TIP3    H270799   4.982   5.532  13.954 -1.9278  0.7129  1.1317
16462TIP3   OH270800   6.537   2.149   0.088 -0.2756  0.2147  0.2248
16462TIP3    H170801   6.453   2.195   0.090 -0.2497  0.3073 -0.6189
16462TIP3    H270802   6.599   2.213   0.125 -0.0579  1.2828 -1.8458
16463TIP3   OH270803   5.791   4.070   1.322  0.3383  0.0979  0.3512
16463TIP3    H170804   5.802   3.986   1.278 -1.4562  0.1988 -0.3800
16463TIP3    H270805   5.797   4.135   1.251  2.2574  0.6709  0.9783
16464TIP3   OH270806   0.208   3.582   1.696 -0.0092 -0.2484  0.0781
16464TIP3    H170807   0.185   3.491   1.712 -2.1639  0.3407  0.6343
16464TIP3    H270808   0.247   3.612   1.778  2.3528 -1.0762 -0.6590
16465TIP3   OH270809   2.308   0.557  12.203 -0.1535 -0.3040 -0.9124
16465TIP3    H170810   2.358   0.629  12.164  0.2498 -0.0341  0.0770
16465TIP3    H270811   2.221   0.592  12.216  0.3300  0.4026  0.6080
16466TIP3   OH270812   5.782   4.061   2.234 -0.7373 -0.6068  0.0861
16466TIP3    H170813   5.727   3.983   2.241 -2.8995  0.6480 -1.6637
16466TIP3    H270814   5.740   4.115   2.167  2.2793  0.7938 -0.9039
16467TIP3   OH270815   3.313   0.172   1.231 -0.1664  0.0057  0.0965
16467TIP3    H170816   3.279   0.153   1.318 -2.2303  0.7099 -0.4859
16467TIP3    H270817   3.299   0.266   1.219 -2.0714 -0.4312 -1.7828
16468TIP3   OH270818   6.236   1.152   4.270  0.5969  0.5612 -0.3055
16468TIP3    H170819   6.174   1.121   4.203 -0.5495  0.6568  0.6812
16468TIP3    H270820   6.242   1.246   4.254 -0.9353  0.8630  0.6892
16469TIP3   OH270821   1.665   6.071  15.604  0.1854  0.1535  0.0438
16469TIP3    H170822   1.707   6.094  15.687 -0.8432  0.1882  0.5768
16469TIP3    H270823   1.600   6.005  15.628  0.6482 -0.6734 -0.9193
16470TIP3   OH270824   4.621   6.049   4.790 -0.5099  0.0905 -0.2786
16470TIP3    H170825   4.616   5.954   4.802 -1.1665  0.1705  0.0971
16470TIP3    H270826   4.606   6.062   4.696  0.3152 -0.2193 -0.4712
16471TIP3   OH270827   1.225   6.367  16.661 -0.0009 -0.2709 -0.4409
16471TIP3    H170828   1.299   6.359  16.601  0.2178  0.0062 -0.2118
16471TIP3    H270829   1.155   6.404  16.607 -0.3526 -1.6364 -0.9602
16472TIP3   OH270830   2.607   0.334   5.398  0.4442 -0.2076  0.7243
16472TIP3    H170831   2.599   0.415   5.449 -1.3348  0.5231 -0.6259
16472TIP3    H270832   2.517   0.310   5.377  0.8572 -2.9493  1.6210
16473TIP3   OH270833   3.752   4.403  12.957  0.0667 -0.0509 -0.3107
16473TIP3    H170834   3.798   4.398  12.873  1.3100  0.5472  0.3177
16473TIP3    H270835   3.713   4.316  12.967 -0.1340 -0.1170 -1.5204
16474TIP3   OH270836   0.467   4.689   4.250  0.0526  0.5338 -0.2184
16474TIP3    H170837   0.378   4.695   4.284 -0.0052  0.2803 -0.3271
16474TIP3    H270838   0.457   4.695   4.155  0.0923 -0.1478 -0.2679
16475TIP3   OH270839   0.084   5.344  12.049  0.4688  0.1102 -0.2558
16475TIP3    H170840   0.050   5.308  11.967  1.4229  1.0058 -1.0613
16475TIP3    H270841   0.006   5.375  12.096 -0.0613 -0.2387 -0.8875
16476TIP3   OH270842   2.877   3.378   3.681  0.0384 -0.1603  0.5049
16476TIP3    H170843   2.804   3.347   3.627  0.5744 -0.8061  0.1294
16476TIP3    H270844   2.945   3.403   3.618  0.1529  0.4043  0.8478
16477TIP3   OH270845   5.156   5.684  16.978 -0.1491  0.0501  0.0174
16477TIP3    H170846   5.079   5.731  16.948  0.5347  1.6928  0.7422
16477TIP3    H270847   5.210   5.674  16.899 -0.1812  0.7113 -0.0891
16478TIP3   OH270848   6.688   1.512   4.947 -0.4761 -0.4616  0.2942
16478TIP3    H170849   6.761   1.569   4.968 -1.2577 -0.2827  2.8557
16478TIP3    H270850   6.707   1.479   4.859  3.1293 -1.1990  1.2245
16479TIP3   OH270851   4.945   3.711  12.849  0.2723 -0.0438 -0.1348
16479TIP3    H170852   4.956   3.781  12.784 -1.4329 -1.5863 -2.2198
16479TIP3    H270853   5.021   3.655  12.836  0.9619  0.6666  0.6447
16480TIP3   OH270854   5.227   0.957  11.202  0.0919  0.1144  0.2051
16480TIP3    H170855   5.170   0.979  11.128 -1.3305 -1.5720  0.7511
16480TIP3    H270856   5.240   0.863  11.196  0.1663 -0.0197  1.9382
16481TIP3   OH270857   2.802   2.712   6.016  0.0595 -0.2068  0.0811
16481TIP3    H170858   2.736   2.763   5.970  1.6965  1.0942 -0.9563
16481TIP3    H270859   2.878   2.771   6.022  1.0181 -1.5142  1.5052
16482TIP3   OH270860   4.589   3.887  15.272 -0.1526  0.2697 -0.1535
16482TIP3    H170861   4.670   3.884  15.222  0.6072  1.6923  0.9165
16482TIP3    H270862   4.527   3.932  15.215  0.2937  0.6178 -0.3658
16483TIP3   OH270863   2.052   1.021  15.260 -0.5294  0.1968 -0.1103
16483TIP3    H170864   2.072   1.112  15.239  1.6031  0.5405  2.7441
16483TIP3    H270865   2.136   0.984  15.288 -1.6049 -2.2572  0.1106
16484TIP3   OH270866   5.630   0.126  13.959 -0.0888 -0.1190  0.0180
16484TIP3    H170867   5.671   0.212  13.964  2.1720 -1.0848 -0.6312
16484TIP3    H270868   5.632   0.093  14.049 -0.4311  0.2717  0.1692
16485TIP3   OH270869   6.774   5.080   5.057 -0.5565  0.3754 -0.2066
16485TIP3    H170870   6.832   5.051   5.128  0.4329  1.7005 -0.4376
16485TIP3    H270871   6.720   5.004   5.038 -0.9681  0.0196  2.0836
16486TIP3   OH270872   0.916   2.232   0.117 -0.1117 -0.0097 -0.2031
16486TIP3    H170873   0.890   2.150   0.076  0.8188 -0.5648  0.2891
16486TIP3    H270874   0.980   2.270   0.058  1.6946 -1.1093  0.9627
16487TIP3   OH270875   5.483   5.136  14.097  0.1131  0.2438 -0.3863
16487TIP3    H170876   5.565   5.138  14.147  0.1016  0.7801 -0.3845
16487TIP3    H270877   5.504   5.083  14.019  0.2607 -0.2018 -0.0486
16488TIP3   OH270878   0.790   3.136  16.878  0.2041 -0.0334 -0.0143
16488TIP3    H170879   0.809   3.131  16.785 -0.9081  0.3042 -0.2723
16488TIP3    H270880   0.845   3.208  16.910 -0.1252  0.4945 -0.6090
16489TIP3   OH270881   2.486   0.366  13.776 -0.0041 -0.2207 -0.2609
16489TIP3    H170882   2.462   0.442  13.829  0.9153 -0.6055  0.7468
16489TIP3    H270883   2.407   0.344  13.728 -1.0597 -0.1804  1.3680
16490TIP3   OH270884   6.461   2.390  14.725  0.1810  0.0659  0.1422
16490TIP3    H170885   6.397   2.438  14.673  1.0103  2.7031  1.3404
16490TIP3    H270886   6.425   2.302  14.734 -1.9824  0.7367 -1.3344
16491TIP3   OH270887   4.471   1.143  11.061 -0.2013 -0.8866  0.0370
16491TIP3    H170888   4.433   1.061  11.030 -0.7867 -0.7154  0.2888
16491TIP3    H270889   4.491   1.191  10.981 -0.5976 -0.9456 -0.1007
16492TIP3   OH270890   4.117   5.771  16.676 -0.2388 -0.4133 -0.4916
16492TIP3    H170891   4.200   5.812  16.701 -0.0384  0.1588 -1.9620
16492TIP3    H270892   4.087   5.726  16.755  0.9792  0.1883  0.3434
16493TIP3   OH270893   1.580   1.943  16.288 -0.4981  0.1511  0.3148
16493TIP3    H170894   1.582   2.027  16.241  0.6316  0.5866  1.1106
16493TIP3    H270895   1.622   1.881  16.229  0.6103  0.6241  0.5827
16494TIP3   OH270896   6.020   3.454  11.264 -0.0671 -0.3667  0.0229
16494TIP3    H170897   6.001   3.363  11.286  1.9047 -0.9531 -0.5097
16494TIP3    H270898   6.042   3.495  11.348  0.6507 -0.8160  0.0628
16495TIP3   OH270899   0.900   4.233   3.855  0.2597 -0.0865 -0.4061
16495TIP3    H170900   0.832   4.278   3.805  0.6955  2.1596  0.8479
16495TIP3    H270901   0.929   4.162   3.799 -2.2678 -0.3778 -1.4606
16496TIP3   OH270902   3.469   3.482  13.801  0.5021 -0.3176 -0.3712
16496TIP3    H170903   3.413   3.405  13.810  0.0686  0.0673  0.3557
16496TIP3    H270904   3.468   3.501  13.707 -1.9369  0.6316 -0.2272
16497TIP3   OH270905   6.037   6.742   4.489 -0.0454 -0.4939  0.7038
16497TIP3    H170906   6.071   6.653   4.477 -1.0233 -1.2480  2.9101
16497TIP3    H270907   6.111   6.790   4.528 -0.1273 -0.9330  1.4264
16498TIP3   OH270908   4.364   3.485   4.032  0.7021  0.4104  0.3657
16498TIP3    H170909   4.358   3.579   4.046 -0.6346  0.2327  1.1607
16498TIP3    H270910   4.288   3.464   3.978  0.1215 -0.4222  1.4658
16499TIP3   OH270911   6.585   1.909   0.293 -0.1261  0.1069  0.8438
16499TIP3    H170912   6.590   1.991   0.342  0.7525  0.6182 -0.0623
16499TIP3    H270913   6.543   1.932   0.211  1.0006 -0.1196  0.1705
16500TIP3   OH270914   2.756   0.544   1.234 -0.7099  0.2060 -0.2898
16500TIP3    H170915   2.697   0.613   1.203 -0.0883  0.8593 -0.0502
16500TIP3    H270916   2.843   0.574   1.210 -0.3721 -0.1581  0.4439
16501TIP3   OH270917   0.386   2.603  15.888  0.1426 -0.2312  0.1979
16501TIP3    H170918   0.345   2.517  15.900  0.4451 -0.4084 -0.0310
16501TIP3    H270919   0.372   2.648  15.972 -1.6811  0.2136 -0.3024
16502TIP3   OH270920   2.143   4.704   2.261 -0.1630 -0.3628 -0.4778
16502TIP3    H170921   2.227   4.746   2.244 -0.2030  1.0375  2.2807
16502TIP3    H270922   2.079   4.757   2.214  0.1643  0.6802  0.2243
16503TIP3   OH270923   0.413   1.088   0.146 -0.2484  0.0726 -0.0875
16503TIP3    H170924   0.434   1.018   0.207  0.6176  0.3349 -0.0690
16503TIP3    H270925   0.450   1.167   0.187 -0.1284  0.3357 -0.6891
16504TIP3   OH270926   5.348   6.361  14.220 -0.2048 -0.0888  0.4606
16504TIP3    H170927   5.434   6.348  14.180 -0.9653  0.3061 -1.3933
16504TIP3    H270928   5.360   6.436  14.279  0.3664  1.1079 -1.0937
16505TIP3   OH270929   0.126   2.077   5.462 -0.7714  0.3285 -0.0136
16505TIP3    H170930   0.075   2.043   5.536  1.9710 -2.0296  0.9771
16505TIP3    H270931   0.116   2.010   5.394 -1.2919  1.2889 -0.9136
16506TIP3   OH270932   3.660   4.333   0.257 -0.1064  0.0768 -0.6404
16506TIP3    H170933   3.626   4.342   0.168  2.0803  1.5707 -1.4157
16506TIP3    H270934   3.639   4.415   0.300 -0.8106 -0.4879  0.1332
16507TIP3   OH270935   2.110   5.838   0.831 -0.1001 -0.5199  0.1699
16507TIP3    H170936   2.150   5.811   0.748 -2.3247  0.0987 -1.1792
16507TIP3    H270937   2.169   5.905   0.866  0.8859 -0.8123 -0.8738
16508TIP3   OH270938   6.246   0.610  15.162 -0.5438 -0.0444 -0.0556
16508TIP3    H170939   6.332   0.583  15.130 -1.0879 -2.3425  0.2876
16508TIP3    H270940   6.230   0.554  15.238 -0.4373  3.3621  2.7892
16509TIP3   OH270941   5.697   5.680  12.774 -0.4198 -0.2543 -0.8691
16509TIP3    H170942   5.735   5.605  12.820 -0.5999 -0.6114 -1.2998
16509TIP3    H270943   5.669   5.645  12.690  0.4130  0.5103 -1.4833
16510TIP3   OH270944   1.296   4.970  10.839  0.6025  0.1745 -0.6328
16510TIP3    H170945   1.297   4.985  10.745 -1.9289  1.5417 -0.5407
16510TIP3    H270946   1.227   4.904  10.851 -0.1693  1.1276  0.3443
16511TIP3   OH270947   0.302   0.974   2.474 -0.4045  0.1361  0.2089
16511TIP3    H170948   0.251   0.908   2.428 -1.3932  0.8156  0.3113
16511TIP3    H270949   0.253   1.055   2.463  0.8393  0.8912 -0.0045
16512TIP3   OH270950   3.442   1.572   1.634 -0.0316  0.1175  0.0001
16512TIP3    H170951   3.483   1.489   1.658  1.1999  0.6144 -0.2940
16512TIP3    H270952   3.474   1.591   1.546 -0.7158  0.6476 -0.1463
16513TIP3   OH270953   5.265   1.265  14.974 -0.1697 -0.0760  0.2565
16513TIP3    H170954   5.208   1.317  14.918  0.5597  0.4662  0.0036
16513TIP3    H270955   5.316   1.330  15.023  1.0267 -0.5476 -0.3390
16514TIP3   OH270956   5.937   1.387  16.931 -1.1187  0.1192 -0.1773
16514TIP3    H170957   5.912   1.400  17.023 -0.3600 -0.7339  0.1609
16514TIP3    H270958   5.959   1.475  16.900 -1.2327  0.3956  0.4984
16515TIP3   OH270959   2.714   1.574   1.084  0.6755  0.1011  0.9617
16515TIP3    H170960   2.736   1.647   1.026 -0.4408 -0.3041 -0.0110
16515TIP3    H270961   2.648   1.610   1.143  0.3893 -0.0113  0.7143
16516TIP3   OH270962   1.303   0.723  14.734  0.0055 -0.3242 -0.1521
16516TIP3    H170963   1.265   0.691  14.652  0.7445 -0.0852 -0.6074
16516TIP3    H270964   1.234   0.776  14.774 -0.3284 -0.3507 -0.6825
16517TIP3   OH270965   6.209   0.647  10.976  0.6951  0.1403 -0.1550
16517TIP3    H170966   6.283   0.640  11.037 -0.0070  0.5269  0.7592
16517TIP3    H270967   6.140   0.593  11.016  0.5959 -0.5195 -1.1855
16518TIP3   OH270968   5.126   4.195   5.623  0.0376  0.5326 -0.9211
16518TIP3    H170969   5.144   4.143   5.545  0.0082  0.5572 -0.9440
16518TIP3    H270970   5.114   4.284   5.590 -1.6880  0.2612 -1.0805
16519TIP3   OH270971   4.898   1.838  10.427 -0.3015 -0.3496 -0.4548
16519TIP3    H170972   4.807   1.833  10.457 -0.4116 -1.7912 -0.9751
16519TIP3    H270973   4.891   1.868  10.336 -0.2874 -0.7588 -0.5937
16520TIP3   OH270974   6.530   6.068  10.999 -0.3533 -0.3292 -0.1379
16520TIP3    H170975   6.447   6.034  10.965 -0.3909  0.7002 -1.1261
16520TIP3    H270976   6.543   6.021  11.081 -2.2668 -0.0013  0.4034
16521TIP3   OH270977   2.092   0.808  16.205 -0.1480  0.2842  0.0961
16521TIP3    H170978   2.045   0.840  16.281  2.0901  2.8310  0.5763
16521TIP3    H270979   2.088   0.881  16.142 -0.4873 -1.1057 -1.5698
16522TIP3   OH270980   6.554   1.165   3.908 -0.0991 -0.2868  0.3570
16522TIP3    H170981   6.615   1.215   3.853  0.3129 -0.0405  1.0370
16522TIP3    H270982   6.508   1.231   3.959 -2.2268 -0.2942 -1.3674
16523TIP3   OH270983   5.870   6.205   4.205 -0.3063  0.0177  0.0015
16523TIP3    H170984   5.866   6.300   4.192 -0.5421  0.2209  1.3833
16523TIP3    H270985   5.961   6.188   4.230 -0.5636  0.0707  1.0035
16524TIP3   OH270986   4.169   0.067  16.199 -0.0003  0.0378  0.2662
16524TIP3    H170987   4.258   0.089  16.172  0.3252 -1.4716  0.0572
16524TIP3    H270988   4.128   0.152  16.216  0.7459  0.9097 -1.8950
16525TIP3   OH270989   3.527   2.251   2.101  0.4462  0.9245  0.2869
16525TIP3    H170990   3.574   2.234   2.183  0.8717 -1.2191 -0.3332
16525TIP3    H270991   3.537   2.170   2.051 -1.5364  1.4495 -1.0535
16526TIP3   OH270992   1.491   6.104   5.420  0.9638  0.3637  0.1452
16526TIP3    H170993   1.513   6.157   5.343  0.1330  0.5335  0.0146
16526TIP3    H270994   1.401   6.074   5.404  0.2655  1.5091  1.6399
16527TIP3   OH270995   3.952   4.184  14.989 -0.0494  0.6680  0.4869
16527TIP3    H170996   4.014   4.111  14.982 -1.0709 -0.0529 -2.2085
16527TIP3    H270997   3.920   4.179  15.079  2.7386  0.2297  1.5566
16528TIP3   OH270998   6.590   4.384   4.224 -0.1511  0.4203  0.3341
16528TIP3    H170999   6.554   4.388   4.313 -0.4818  0.9390  0.1821
16528TIP3    H271000   6.647   4.460   4.217  1.0445 -0.4304  0.5892
16529TIP3   OH271001   3.524   3.975   3.369  0.6766  0.0825 -0.5089
16529TIP3    H171002   3.514   3.885   3.338 -0.4935  0.3334 -0.9133
16529TIP3    H271003   3.446   4.020   3.337  0.9259  1.0865  0.2486
16530TIP3   OH271004   1.933   2.656  15.890  0.3041  0.1272 -0.2700
16530TIP3    H171005   1.838   2.655  15.884  0.3312  0.5042 -0.7505
16530TIP3    H271006   1.953   2.593  15.960 -0.2024 -1.4628 -1.5072
16531TIP3   OH271007   2.691   3.201  14.559 -0.2199 -0.0423 -0.2198
16531TIP3    H171008   2.699   3.290  14.591 -0.9085 -0.7148  1.9896
16531TIP3    H271009   2.781   3.170  14.551 -0.0017  0.6031 -0.3290
16532TIP3   OH271010   4.479   0.931  14.238 -0.2946  0.1704 -0.3921
16532TIP3    H171011   4.419   0.955  14.167 -1.4420 -0.0119  0.5019
16532TIP3    H271012   4.553   0.991  14.226 -0.5232  0.2377 -1.6565
16533TIP3   OH271013   5.937   4.028   5.323 -0.3139  0.2530 -0.1458
16533TIP3    H171014   5.966   4.120   5.326 -2.0916  0.8673 -0.8615
16533TIP3    H271015   5.957   4.000   5.234 -2.4563  0.9194 -0.8978
16534TIP3   OH271016   3.740   1.665  12.341  0.1200  0.4389  0.4958
16534TIP3    H171017   3.753   1.756  12.314 -0.9052  0.2745 -0.6322
16534TIP3    H271018   3.804   1.616  12.290 -2.4721  0.0046 -2.6533
16535TIP3   OH271019   5.981   6.826   5.794 -0.5661  0.0929 -0.0375
16535TIP3    H171020   5.919   6.878   5.743 -0.4714  0.4098  0.1708
16535TIP3    H271021   5.931   6.795   5.870 -0.6393 -0.1745 -0.1925
16536TIP3   OH271022   1.721   6.030  11.358 -0.1530 -0.2759  0.5085
16536TIP3    H171023   1.682   5.942  11.355 -0.0848 -0.4621  2.8556
16536TIP3    H271024   1.774   6.029  11.438  0.8899  1.5133 -0.1052
16537TIP3   OH271025   2.544   1.478   4.538  0.0339 -0.5516  0.0849
16537TIP3    H171026   2.506   1.451   4.621  0.1007  0.5426  0.4800
16537TIP3    H271027   2.504   1.563   4.519  0.7167 -0.3569 -0.5328
16538TIP3   OH271028   2.227   6.174  14.045 -0.2306  0.1707 -0.0990
16538TIP3    H171029   2.284   6.239  14.003 -0.9637  1.1819  0.4435
16538TIP3    H271030   2.185   6.129  13.971  0.7292 -0.0980 -0.4890
16539TIP3   OH271031   2.192   4.674  16.803  0.0549 -0.8051 -0.4785
16539TIP3    H171032   2.266   4.641  16.853  0.6495  0.5048 -0.4539
16539TIP3    H271033   2.230   4.738  16.743 -0.9257 -0.8282 -1.1531
16540TIP3   OH271034   0.798   1.085   2.238  0.1086  0.3106  0.2642
16540TIP3    H171035   0.771   1.137   2.313  1.0500  0.7731  0.3033
16540TIP3    H271036   0.805   0.996   2.271  0.4116  0.4939  0.7005
16541TIP3   OH271037   2.077   5.119   5.617 -0.0083  0.0575 -0.1228
16541TIP3    H171038   2.132   5.152   5.688  3.4127 -0.1704 -2.4333
16541TIP3    H271039   2.102   5.027   5.607 -1.7759 -0.4221 -0.4917
16542TIP3   OH271040   2.365   6.657   1.774  0.4244  0.4747 -0.3120
16542TIP3    H171041   2.287   6.605   1.753  1.3870 -1.4562  0.6221
16542TIP3    H271042   2.336   6.717   1.842 -0.6141  0.8720 -1.0844
16543TIP3   OH271043   0.809   3.442   5.173  0.1151 -0.0196  0.0447
16543TIP3    H171044   0.874   3.511   5.181 -0.1953  0.3093 -0.2583
16543TIP3    H271045   0.847   3.368   5.221  0.3735  0.4075  0.5050
16544TIP3   OH271046   5.723   5.301   2.272 -0.2789  0.0944 -0.1023
16544TIP3    H171047   5.633   5.270   2.285 -0.0490 -0.2350  0.7994
16544TIP3    H271048   5.748   5.267   2.187 -1.9798  2.5792 -1.7383
16545TIP3   OH271049   1.393   2.501   6.298  0.3892  0.2514 -0.2505
16545TIP3    H171050   1.408   2.407   6.306 -0.6550  0.2360  2.9703
16545TIP3    H271051   1.299   2.509   6.282 -0.3549  0.6719  3.4473
16546TIP3   OH271052   0.879   1.439  15.284  0.2109  0.6767  0.3605
16546TIP3    H171053   0.961   1.409  15.245 -0.8943 -0.5825 -1.1456
16546TIP3    H271054   0.882   1.406  15.373  1.6797  1.3647  0.5919
16547TIP3   OH271055   5.964   2.179  15.962 -0.4154 -0.0642 -0.4497
16547TIP3    H171056   6.041   2.235  15.961  1.7323 -2.6073  2.2190
16547TIP3    H271057   5.983   2.111  15.898 -2.8884  1.8550 -3.4918
16548TIP3   OH271058   1.709   1.934  14.673 -0.0679 -0.1719  0.0415
16548TIP3    H171059   1.656   2.007  14.640  0.5626 -0.2689 -1.2490
16548TIP3    H271060   1.789   1.975  14.704 -0.1670 -0.2052  0.3404
16549TIP3   OH271061   3.716   1.122   1.198 -0.4112 -0.3049  0.8779
16549TIP3    H171062   3.712   1.096   1.290  0.4732  1.2009  1.3681
16549TIP3    H271063   3.800   1.166   1.188 -1.9066  2.6289  0.2146
16550TIP3   OH271064   3.992   0.939   3.473 -0.6789 -0.5311  0.1735
16550TIP3    H171065   4.066   0.909   3.527 -1.0226 -0.0579  0.9294
16550TIP3    H271066   4.027   0.943   3.385 -0.1400 -1.4749  0.3287
16551TIP3   OH271067   3.065   5.686  14.558  0.1845  0.5349 -0.2907
16551TIP3    H171068   2.996   5.668  14.621  1.0456  0.5778  0.7014
16551TIP3    H271069   3.138   5.631  14.586  1.2285  1.9635 -0.0861
16552TIP3   OH271070   4.215   1.684   1.644  0.3537 -0.5945 -0.5044
16552TIP3    H171071   4.142   1.638   1.602 -0.0053  0.1155 -0.6834
16552TIP3    H271072   4.291   1.662   1.589  0.0702 -0.4733 -0.9572
16553TIP3   OH271073   5.870   1.828   1.628  0.1592  0.4191 -0.5357
16553TIP3    H171074   5.896   1.765   1.561 -0.0118 -0.3772  0.1271
16553TIP3    H271075   5.843   1.774   1.703  0.0787  1.2808  0.0756
16554TIP3   OH271076   0.610   6.256   4.973  0.8621 -0.1428  1.0964
16554TIP3    H171077   0.694   6.211   4.983  1.1217 -0.0786 -0.5073
16554TIP3    H271078   0.615   6.329   5.035  2.6232  0.7008  0.0682
16555TIP3   OH271079   0.082   4.948   0.391  0.4247  0.0501  0.2721
16555TIP3    H171080   0.072   4.856   0.369  0.1821  0.1445 -0.0259
16555TIP3    H271081  -0.000   4.971   0.434  0.6945 -0.0035  0.8264
16556TIP3   OH271082   1.160   6.021  16.740 -0.2395  0.1253 -0.3871
16556TIP3    H171083   1.106   6.067  16.804 -0.2519  0.0342 -0.3330
16556TIP3    H271084   1.250   6.034  16.770 -0.1770  0.9087 -0.8850
16557TIP3   OH271085   0.994   2.895   0.233 -0.3860  0.7555 -0.3198
16557TIP3    H171086   1.031   2.813   0.266  3.1783  2.1315 -0.4082
16557TIP3    H271087   1.001   2.888   0.138  0.1102  1.2153 -0.3197
16558TIP3   OH271088   1.143   0.521  14.587  0.6019 -0.1890  0.1812
16558TIP3    H171089   1.096   0.575  14.523 -0.1060  0.3467  1.1224
16558TIP3    H271090   1.075   0.465  14.624  1.2380 -1.3727 -0.4087
16559TIP3   OH271091   5.773   1.898   3.581  0.2108  0.6362 -0.5410
16559TIP3    H171092   5.684   1.932   3.572  0.1611  0.2030 -2.0958
16559TIP3    H271093   5.800   1.921   3.669 -1.3801  0.9414 -0.1142
16560TIP3   OH271094   0.800   3.818   3.733  0.1125 -0.9109 -0.9409
16560TIP3    H171095   0.846   3.880   3.790 -0.4434 -1.6397  0.3396
16560TIP3    H271096   0.866   3.752   3.711 -0.2379 -1.9597  0.8987
16561TIP3   OH271097   4.616   2.669   3.182 -0.4435 -0.2517  0.3483
16561TIP3    H171098   4.598   2.759   3.210 -1.0432 -0.3346  0.2345
16561TIP3    H271099   4.617   2.618   3.263 -0.0238 -0.1327  0.4211
16562TIP3   OH271100   4.445   4.131  15.956  0.2133  0.3282 -0.6561
16562TIP3    H171101   4.506   4.057  15.952 -0.5198 -0.3128 -0.2891
16562TIP3    H271102   4.421   4.147  15.865  1.4128  1.0113 -0.8720
16563TIP3   OH271103   1.226   2.262  13.325 -0.6744  0.0707  0.2620
16563TIP3    H171104   1.210   2.355  13.338  0.8303  0.2978  0.6874
16563TIP3    H271105   1.214   2.248  13.231 -2.3587  0.3652  0.4056
16564TIP3   OH271106   5.277   2.815  13.744 -0.3487  0.1557 -0.3445
16564TIP3    H171107   5.349   2.877  13.758 -2.1654  2.2980  0.0859
16564TIP3    H271108   5.210   2.867  13.698 -2.7567 -0.8748  1.7960
16565TIP3   OH271109   3.025   4.995   0.234 -0.3551  0.3452 -0.3065
16565TIP3    H171110   3.019   4.929   0.165  1.6614  1.2923 -1.4932
16565TIP3    H271111   3.076   4.953   0.303 -1.0822 -0.1069 -0.0441
16566TIP3   OH271112   1.485   5.146  10.607 -0.0633  0.1766  0.5636
16566TIP3    H171113   1.517   5.109  10.524 -0.6610 -0.4018  0.5765
16566TIP3    H271114   1.563   5.178  10.651  0.2996  0.2021 -0.0888
16567TIP3   OH271115   6.144   0.667  14.602  0.1948 -0.5345 -0.0084
16567TIP3    H171116   6.084   0.624  14.665 -0.6759  0.2262 -0.3038
16567TIP3    H271117   6.226   0.618  14.611 -0.9405 -2.7100 -0.7984
16568TIP3   OH271118   3.072   4.201   0.972 -0.0725 -0.6151 -0.3182
16568TIP3    H171119   3.160   4.184   1.004 -0.1323  0.5328  0.5089
16568TIP3    H271120   3.041   4.276   1.022 -1.4359 -0.8304 -0.7666
16569TIP3   OH271121   4.183   5.254  10.749  0.2113 -0.4407 -0.2144
16569TIP3    H171122   4.226   5.315  10.690  0.7369  0.7545  1.3438
16569TIP3    H271123   4.106   5.224  10.700  1.6058 -0.9773 -2.2152
16570TIP3   OH271124   6.047   1.667  10.675  0.3408  0.1877  0.1258
16570TIP3    H171125   6.112   1.602  10.702 -2.0717 -1.7564  1.7940
16570TIP3    H271126   5.978   1.615  10.633 -1.1263  1.8157  0.4175
16571TIP3   OH271127   3.152   3.424   0.742 -0.1483 -0.7314  0.0787
16571TIP3    H171128   3.164   3.450   0.651 -0.4147  0.3957  0.3406
16571TIP3    H271129   3.202   3.344   0.752  0.4343 -0.4959 -0.8851
16572TIP3   OH271130   0.022   5.929  15.984 -0.2356  0.2580 -0.0512
16572TIP3    H171131   0.057   5.958  16.068 -0.7983 -1.1152  0.6839
16572TIP3    H271132   0.071   5.849  15.963 -2.2729 -1.2543  0.6083
16573TIP3   OH271133   5.895   0.377  15.850 -0.1325  0.2542  0.1942
16573TIP3    H171134   5.870   0.443  15.785  0.2791 -0.6236 -0.9016
16573TIP3    H271135   5.816   0.326  15.864 -0.2475  0.5039  0.4632
16574TIP3   OH271136   0.431   2.288  13.230 -0.9891  0.7505  0.1624
16574TIP3    H171137   0.379   2.277  13.310 -0.5164 -1.0323  0.2659
16574TIP3    H271138   0.473   2.203  13.218 -1.8802  0.6140 -2.5650
16575TIP3   OH271139   4.949   4.780  10.755 -0.2718 -0.2676  0.5029
16575TIP3    H171140   4.955   4.873  10.733 -2.1925 -0.1646  0.2754
16575TIP3    H271141   5.031   4.743  10.722  0.4902  1.3184  0.5224
16576TIP3   OH271142   6.704   2.789  11.430  0.0763  0.0874  0.3437
16576TIP3    H171143   6.704   2.712  11.487 -1.8341 -1.4891 -1.6033
16576TIP3    H271144   6.760   2.763  11.357 -0.9023  0.3499 -0.5185
16577TIP3   OH271145   0.061   2.814  12.062 -0.3749 -0.4399 -0.0655
16577TIP3    H171146   0.100   2.776  12.140  1.9114  0.5252 -0.6559
16577TIP3    H271147   0.116   2.889  12.041 -2.4673  0.9122 -1.1246
16578TIP3   OH271148   6.678   2.133  10.977  0.1310  0.2684 -0.2494
16578TIP3    H171149   6.588   2.143  10.946 -0.3897 -0.0219  1.1014
16578TIP3    H271150   6.714   2.222  10.974 -0.2815  0.4264 -0.5643
16579TIP3   OH271151   3.991   1.267   5.104 -0.2165  0.3671  0.2381
16579TIP3    H171152   4.029   1.306   5.183  1.2501  1.4342 -0.9326
16579TIP3    H271153   3.901   1.299   5.103 -0.3552  0.0845  1.6174
16580TIP3   OH271154   3.362   6.442   4.742 -0.8188 -0.8558 -0.3860
16580TIP3    H171155   3.354   6.454   4.837  1.1019 -0.0717 -0.2692
16580TIP3    H271156   3.325   6.522   4.705  1.0170  0.1732 -0.1254
16581TIP3   OH271157   3.436   4.616  12.013  0.2968  0.0470 -0.1451
16581TIP3    H171158   3.413   4.706  11.989  2.7303  1.0910  1.0565
16581TIP3    H271159   3.504   4.591  11.951 -0.0098 -0.7795 -0.1551
16582TIP3   OH271160   3.283   4.559   1.259  0.2211 -0.3251  0.2616
16582TIP3    H171161   3.319   4.539   1.346 -0.6772 -0.9944  0.4867
16582TIP3    H271162   3.352   4.532   1.199 -0.2390 -2.5364  0.6428
16583TIP3   OH271163   2.646   2.569   3.382  0.2429  0.1614  0.6561
16583TIP3    H171164   2.736   2.589   3.358  0.5675 -1.6399  0.2561
16583TIP3    H271165   2.651   2.483   3.423 -1.4551 -0.5529 -0.5299
16584TIP3   OH271166   3.729   2.306  12.689 -0.1794 -0.0578 -0.0391
16584TIP3    H171167   3.729   2.308  12.593 -2.5392 -0.1380 -0.0971
16584TIP3    H271168   3.649   2.351  12.714 -0.8050 -2.0598  1.8216
16585TIP3   OH271169   2.796   3.313   5.060 -0.0628 -0.4135 -0.0633
16585TIP3    H171170   2.830   3.235   5.016 -1.2535 -1.2458  0.4489
16585TIP3    H271171   2.702   3.312   5.042 -0.3577 -0.0207  1.3288
16586TIP3   OH271172   6.289   2.433   0.420  0.0089 -0.6147  0.3005
16586TIP3    H171173   6.197   2.407   0.408  0.3284 -2.1775  0.9306
16586TIP3    H271174   6.296   2.451   0.514 -0.0824  1.4114 -0.0527
16587TIP3   OH271175   1.755   4.145  16.632 -0.2445 -0.5132  0.2018
16587TIP3    H171176   1.778   4.209  16.699  0.6774 -0.3978 -0.2021
16587TIP3    H271177   1.696   4.084  16.675  0.8894 -0.8496  1.3417
16588TIP3   OH271178   1.100   5.544  11.050  0.2813  0.0581  0.3386
16588TIP3    H171179   1.031   5.600  11.084  0.3498  1.1301 -1.2337
16588TIP3    H271180   1.173   5.603  11.031  0.2992 -0.4956 -1.4996
16589TIP3   OH271181   0.162   5.093   4.042 -0.4768 -0.4565  0.4546
16589TIP3    H171182   0.133   5.044   3.965 -1.2511  0.9006 -0.1427
16589TIP3    H271183   0.200   5.173   4.006  0.2645 -0.3568  1.4389
16590TIP3   OH271184   4.294   6.540  11.783 -0.0349 -0.5706  0.7861
16590TIP3    H171185   4.208   6.507  11.808 -0.2747 -0.7870 -0.2826
16590TIP3    H271186   4.276   6.608  11.718  0.6299 -1.4284 -0.3262
16591TIP3   OH271187   6.171   2.136  14.572 -0.2382 -0.0363 -0.5703
16591TIP3    H171188   6.175   2.195  14.497  0.7009 -1.6640 -1.8721
16591TIP3    H271189   6.102   2.073  14.549  0.5462 -0.9721 -0.4207
16592TIP3   OH271190   1.887   0.005  12.224 -0.7553  0.0788 -0.0128
16592TIP3    H171191   1.898   0.035  12.134  2.0506 -0.3300  0.1147
16592TIP3    H271192   1.827  -0.069  12.218  0.7324 -1.0519 -1.8161
16593TIP3   OH271193   3.905   6.502  11.302  0.5095  0.3025  0.0857
16593TIP3    H171194   3.969   6.533  11.238  1.4412  0.1405  0.9157
16593TIP3    H271195   3.943   6.422  11.337  0.4510  0.8492  1.4688
16594TIP3   OH271196   4.874   6.536   3.878  0.7193 -0.0743  0.8739
16594TIP3    H171197   4.921   6.452   3.875 -0.8271 -0.9684 -0.3658
16594TIP3    H271198   4.785   6.514   3.848  0.8986  2.4191 -1.9639
16595TIP3   OH271199   0.038   4.905  12.179  0.2690 -0.5228 -0.0041
16595TIP3    H171200   0.105   4.969  12.157 -0.3920  0.0715 -0.2998
16595TIP3    H271201  -0.036   4.926  12.122 -0.7969 -0.1123  1.4738
16596TIP3   OH271202   4.931   1.420  10.414 -0.1716 -0.8061  0.0202
16596TIP3    H171203   4.977   1.356  10.360 -1.1260 -0.4331 -1.2710
16596TIP3    H271204   4.844   1.426  10.375 -0.2242  0.9943  0.3519
16597TIP3   OH271205   3.963   5.724  11.747  0.1597  1.0993  0.1960
16597TIP3    H171206   3.892   5.761  11.800 -0.0410  1.5979 -0.4064
16597TIP3    H271207   4.028   5.695  11.811 -0.3398  1.1369  0.7369
16598TIP3   OH271208   3.203   0.321   3.292 -0.1597 -0.5001 -0.2917
16598TIP3    H171209   3.287   0.357   3.264 -1.4508  2.1871 -1.0039
16598TIP3    H271210   3.218   0.294   3.383  1.4073  0.0931 -0.3397
16599TIP3   OH271211   4.225   3.454   2.672  0.1051  0.9201 -0.8080
16599TIP3    H171212   4.230   3.368   2.715 -0.2736  0.0236 -2.4493
16599TIP3    H271213   4.259   3.515   2.737 -0.8649 -0.2780  0.8992
16600TIP3   OH271214   1.329   1.998   1.918  0.2888  0.2935 -0.1969
16600TIP3    H171215   1.345   2.004   2.013  2.1977 -2.4858 -0.2265
16600TIP3    H271216   1.356   2.083   1.884  0.5655  0.9817  1.6145
16601TIP3   OH271217   6.833   5.682  11.016 -0.0759  0.0439 -0.3350
16601TIP3    H171218   6.808   5.721  11.099 -0.2172 -2.5257  0.9246
16601TIP3    H271219   6.759   5.627  10.991  0.5120 -0.2777 -1.4784
16602TIP3   OH271220   5.894   0.403  11.849  0.5735 -0.2604  0.0682
16602TIP3    H171221   5.923   0.368  11.934  0.3148  1.2266  0.8078
16602TIP3    H271222   5.913   0.496  11.854  1.8374 -0.3431 -2.0886
16603TIP3   OH271223   3.586   3.781  11.916 -0.2941  0.5425  0.1317
16603TIP3    H171224   3.658   3.732  11.955  0.5747  1.0489 -0.8027
16603TIP3    H271225   3.586   3.755  11.824 -0.4156  1.6003 -0.1748
16604TIP3   OH271226   1.473   4.177  15.905  0.1463  0.5781  0.8007
16604TIP3    H171227   1.461   4.137  15.991 -1.5584 -2.1056 -0.5397
16604TIP3    H271228   1.394   4.154  15.856  1.2679  1.5427 -1.6755
16605TIP3   OH271229   1.863   3.873   5.360 -0.0293 -0.2645  0.0744
16605TIP3    H171230   1.858   3.808   5.430 -0.3703 -1.5406 -1.0785
16605TIP3    H271231   1.777   3.915   5.359 -0.5136 -1.2417 -0.4772
16606TIP3   OH271232   3.676   0.963  14.476  0.0190 -0.5638 -0.0916
16606TIP3    H171233   3.695   0.876  14.510 -3.5711 -0.6381  2.2402
16606TIP3    H271234   3.609   0.949  14.408  1.6651  0.2253 -1.9810
16607TIP3   OH271235   5.034   2.033  11.550 -0.2595  0.1850  0.5722
16607TIP3    H171236   5.054   2.012  11.642 -2.3013  0.5028  1.1386
16607TIP3    H271237   4.999   2.122  11.553 -0.1882  0.2607 -0.5514
16608TIP3   OH271238   5.666   4.788   0.945  0.2845  0.3309  0.1303
16608TIP3    H171239   5.666   4.874   0.903  1.3376  0.3455  0.1279
16608TIP3    H271240   5.739   4.792   1.007 -0.8131  0.0773  1.4867
16609TIP3   OH271241   2.779   6.459   3.281 -0.0958  0.0210 -0.0718
16609TIP3    H171242   2.779   6.365   3.299 -0.9559  0.3442  1.8705
16609TIP3    H271243   2.705   6.472   3.223 -0.0339 -0.4823 -0.2713
16610TIP3   OH271244   6.194   2.999  13.694  0.4280  0.3413  0.6422
16610TIP3    H171245   6.149   3.045  13.765 -1.1604  0.9179 -0.6958
16610TIP3    H271246   6.130   2.993  13.624  1.3515 -1.8454 -0.1174
16611TIP3   OH271247   6.082   1.208   3.087 -0.0856  1.1550  0.0744
16611TIP3    H171248   6.029   1.162   3.022  1.7347 -0.6140 -0.2966
16611TIP3    H271249   6.030   1.207   3.166 -1.0504  0.4559 -0.5484
16612TIP3   OH271250   2.562   0.238   5.664 -0.4562 -0.3459  0.0541
16612TIP3    H171251   2.479   0.232   5.618  0.1813 -1.1772 -1.0543
16612TIP3    H271252   2.554   0.314   5.721 -1.7332 -0.0528 -0.5010
16613TIP3   OH271253   3.311   3.290   0.453 -0.2095 -0.0186  0.6734
16613TIP3    H171254   3.227   3.317   0.488 -0.2090  1.2762 -0.2513
16613TIP3    H271255   3.290   3.235   0.378 -0.2443  0.8418  0.0467
16614TIP3   OH271256   5.175   5.385  15.139  0.0601 -0.1285  0.3967
16614TIP3    H171257   5.243   5.446  15.110 -1.0044  1.6112  1.4199
16614TIP3    H271258   5.096   5.439  15.146 -1.5296 -2.1133 -0.9430
16615TIP3   OH271259   2.338   0.261   3.890 -0.1685 -0.1050  0.1206
16615TIP3    H171260   2.322   0.343   3.843  0.4036  0.7080  1.2831
16615TIP3    H271261   2.432   0.262   3.910 -0.6711  0.5228  2.8715
16616TIP3   OH271262   5.879   4.288   3.833  0.2519  0.2592 -0.0813
16616TIP3    H171263   5.838   4.315   3.751  1.1687 -0.1032 -0.6757
16616TIP3    H271264   5.819   4.223   3.870  0.3413 -0.3510 -0.9882
16617TIP3   OH271265   3.886   3.498   2.036 -0.5426 -0.0705  0.0045
16617TIP3    H171266   3.851   3.587   2.036 -1.2975 -0.3564  0.2750
16617TIP3    H271267   3.909   3.480   1.945 -3.0096 -0.5826 -0.6132
16618TIP3   OH271268   1.922   0.150  16.943  0.0280  0.3213  0.0977
16618TIP3    H171269   1.862   0.147  17.017 -1.9193 -0.0489 -1.4136
16618TIP3    H271270   1.955   0.240  16.943 -1.2780  0.8246  0.4418
16619TIP3   OH271271   1.373   0.886  14.094 -0.0863  0.0452  0.0040
16619TIP3    H171272   1.343   0.977  14.107  0.5629 -0.0468  2.8194
16619TIP3    H271273   1.350   0.842  14.176  3.1515 -1.3197  0.2984
16620TIP3   OH271274   6.031   4.505   4.617  0.1423  0.1097  0.8903
16620TIP3    H171275   6.004   4.446   4.688  0.0230 -1.3901 -0.3326
16620TIP3    H271276   5.957   4.565   4.607 -0.7496 -0.9873  0.6868
16621TIP3   OH271277   4.311   2.703   3.739  0.1201 -0.3200  0.1116
16621TIP3    H171278   4.372   2.697   3.812  1.7439  0.2518 -1.1336
16621TIP3    H271279   4.224   2.699   3.779  0.9668 -0.5247  2.0002
16622TIP3   OH271280   2.105   2.042  11.606 -0.1342 -0.6093 -0.3365
16622TIP3    H171281   2.023   2.083  11.633 -0.2830 -0.8155 -0.4667
16622TIP3    H271282   2.156   2.033  11.686  1.0679  2.3700 -0.6633
16623TIP3   OH271283   0.006   5.816   0.849  0.1113  0.0188 -0.0435
16623TIP3    H171284   0.019   5.911   0.849  0.3929  0.0149  2.1132
16623TIP3    H271285   0.074   5.783   0.790  1.1678  1.0361  0.5529
16624TIP3   OH271286   0.399   6.466  15.526 -0.9507  0.0346 -0.0430
16624TIP3    H171287   0.428   6.445  15.437 -1.6381  2.2952 -0.8634
16624TIP3    H271288   0.424   6.389  15.578  1.6385 -0.3445 -1.6850
16625TIP3   OH271289   2.031   3.450   4.964 -0.4376 -0.1168  0.6808
16625TIP3    H171290   1.946   3.442   5.006 -0.3178  0.2406  0.9909
16625TIP3    H271291   2.084   3.501   5.026 -0.7935  2.0380 -0.7079
16626TIP3   OH271292   1.482   3.194  12.039  0.3085  0.4855  0.1273
16626TIP3    H171293   1.419   3.222  12.106 -1.4086 -1.2286 -0.6642
16626TIP3    H271294   1.493   3.100  12.054 -2.3186 -0.6305 -3.5379
16627TIP3   OH271295   2.258   0.403   1.361 -0.2455 -0.2224 -0.1825
16627TIP3    H171296   2.343   0.382   1.323  0.5557  1.5854  0.4974
16627TIP3    H271297   2.270   0.392   1.455 -0.4583  0.9481 -0.0010
16628TIP3   OH271298   5.004   6.041  12.357  0.0950 -0.7213 -0.2756
16628TIP3    H171299   5.008   5.956  12.401  0.5351 -0.6619 -0.1921
16628TIP3    H271300   5.093   6.076  12.364 -0.4934  0.5814  1.3311
16629TIP3   OH271301   0.093   0.780  14.569 -0.6048 -0.2151 -0.4492
16629TIP3    H171302   0.137   0.700  14.598  1.4989  0.3579 -1.7905
16629TIP3    H271303   0.010   0.751  14.532 -1.2704 -1.4098  1.8374
16630TIP3   OH271304   5.074   2.072  15.525  0.6149  0.2469  0.5919
16630TIP3    H171305   5.124   2.084  15.606 -0.7018 -0.2648  1.5293
16630TIP3    H271306   5.055   1.978  15.522 -2.2081  0.6778  1.5402
16631TIP3   OH271307   0.661   6.609   5.690 -0.0162 -0.4610 -0.1098
16631TIP3    H171308   0.605   6.678   5.724  0.8764  0.6328 -0.7810
16631TIP3    H271309   0.749   6.647   5.689  0.7675 -2.1251  0.9217
16632TIP3   OH271310   2.225   2.424   4.648  0.2894 -0.0491  0.0961
16632TIP3    H171311   2.208   2.469   4.566  1.0915 -0.4640 -0.3096
16632TIP3    H271312   2.161   2.460   4.709  0.2621  0.9051 -0.4794
16633TIP3   OH271313   3.601   5.713  15.093 -0.0551  0.4601  0.7460
16633TIP3    H171314   3.524   5.657  15.105  1.1264 -1.2329  0.7282
16633TIP3    H271315   3.647   5.674  15.019  0.0765  2.3606 -0.2308
16634TIP3   OH271316   0.094   5.632   5.618  0.0345  0.3908  0.8240
16634TIP3    H171317   0.005   5.652   5.647 -0.3857 -0.4754  0.1957
16634TIP3    H271318   0.085   5.617   5.523  0.5780 -1.1073  0.9737
16635TIP3   OH271319   2.376   2.293   3.103  0.1121  0.2085  0.1092
16635TIP3    H171320   2.325   2.338   3.171 -0.2839  0.9840 -0.6829
16635TIP3    H271321   2.423   2.363   3.058  0.8004 -0.3628 -0.0635
16636TIP3   OH271322   4.442   0.552   2.913 -0.2257 -0.2957 -0.0547
16636TIP3    H171323   4.489   0.605   2.977 -1.4305 -0.6985  1.2135
16636TIP3    H271324   4.500   0.478   2.895  0.3338  0.0763  0.1940
16637TIP3   OH271325   3.459   2.735   1.467 -0.7501 -0.1024  0.1885
16637TIP3    H171326   3.526   2.719   1.534  0.5965 -0.2704 -1.1478
16637TIP3    H271327   3.382   2.689   1.499 -0.4364  0.5704  2.0558
16638TIP3   OH271328   1.202   1.956   0.992 -0.1243 -0.2791 -0.5298
16638TIP3    H171329   1.164   2.036   0.956 -0.5027 -0.0058  0.4277
16638TIP3    H271330   1.292   1.955   0.959 -0.5355 -0.2045 -1.6963
16639TIP3   OH271331   3.652   1.407  16.444  0.2080  0.3531  0.0038
16639TIP3    H171332   3.687   1.355  16.516 -3.2697 -0.0586  1.6395
16639TIP3    H271333   3.661   1.498  16.474 -0.5643  0.2198  0.6880
16640TIP3   OH271334   1.534   0.170   4.630 -0.3085  0.8066 -0.5516
16640TIP3    H171335   1.561   0.253   4.590  0.0338  0.0839 -1.9026
16640TIP3    H271336   1.601   0.108   4.601 -1.4526 -0.2720 -0.9482
16641TIP3   OH271337   2.957   1.761   4.439  0.4452  0.0084 -0.2492
16641TIP3    H171338   2.932   1.672   4.414  0.5846  0.1796 -1.0156
16641TIP3    H271339   2.874   1.807   4.451  0.3658 -0.3235  0.5494
16642TIP3   OH271340   5.938   3.257  15.628 -0.5501 -0.1707 -0.5026
16642TIP3    H171341   5.948   3.198  15.553  2.9351 -1.2031  0.5516
16642TIP3    H271342   5.916   3.342  15.590 -1.1100 -1.1304 -2.4569
16643TIP3   OH271343   0.835   5.784  13.315 -0.1579 -0.3516 -0.3272
16643TIP3    H171344   0.889   5.723  13.264 -0.1814  2.3273 -3.9972
16643TIP3    H271345   0.749   5.744  13.318  0.1741 -1.1912 -1.3712
16644TIP3   OH271346   3.095   5.028  12.405  0.3398 -0.0353  0.6845
16644TIP3    H171347   3.179   5.073  12.398  0.6629 -0.8273 -1.4079
16644TIP3    H271348   3.033   5.095  12.433  1.4412  0.8487  1.0510
16645TIP3   OH271349   4.720   2.576  12.003 -0.9434 -0.2610  0.1424
16645TIP3    H171350   4.638   2.589  12.051 -0.3371  1.4788  0.8043
16645TIP3    H271351   4.788   2.583  12.070 -0.0945  1.7815 -0.8281
16646TIP3   OH271352   2.653   1.826  10.782 -0.2514 -0.5944 -0.0971
16646TIP3    H171353   2.560   1.827  10.805  0.1316 -1.3021  1.6405
16646TIP3    H271354   2.682   1.737  10.803  0.5701 -0.7795 -1.8146
16647TIP3   OH271355   2.686   0.752   1.719  1.0809 -0.1731 -0.9404
16647TIP3    H171356   2.630   0.675   1.714  1.4010 -0.5497  0.6882
16647TIP3    H271357   2.628   0.826   1.701 -0.7474 -0.2799  3.3027
16648TIP3   OH271358   5.681   4.355   5.306  0.1735 -0.1094  0.1662
16648TIP3    H171359   5.636   4.271   5.309 -1.8380  0.8521  3.7689
16648TIP3    H271360   5.768   4.338   5.342 -0.2886 -0.6630  1.0574
16649TIP3   OH271361   3.565   6.287   2.111 -0.1094 -0.1015  0.2939
16649TIP3    H171362   3.574   6.263   2.019  0.1011 -0.6559  0.4570
16649TIP3    H271363   3.495   6.230   2.144 -1.0070  0.9152  0.1877
16650TIP3   OH271364   4.785   2.946  13.406 -0.2192  0.3872 -0.1225
16650TIP3    H171365   4.772   2.978  13.317  0.8605 -0.6197 -0.6693
16650TIP3    H271366   4.748   2.858  13.406 -0.7920  0.6083  0.6252
16651TIP3   OH271367   5.029   2.923   1.278  0.1710 -0.5276  0.3745
16651TIP3    H171368   5.048   2.830   1.288 -0.7633 -0.7604  0.0349
16651TIP3    H271369   5.080   2.950   1.201  1.3159 -0.4864  1.1229
16652TIP3   OH271370   3.287   2.620  12.507  0.3783 -0.3339 -0.3077
16652TIP3    H171371   3.355   2.671  12.464 -0.5894 -1.4276 -3.4464
16652TIP3    H271372   3.207   2.640  12.457 -1.0349 -1.1300  1.5195
16653TIP3   OH271373   4.578   1.788  11.715  0.2235  0.2365 -0.3273
16653TIP3    H171374   4.659   1.820  11.754 -0.6883  2.7009 -0.3225
16653TIP3    H271375   4.607   1.734  11.641  1.8640 -0.9643  1.1155
16654TIP3   OH271376   6.299   0.326   0.730 -0.6896  0.0425  0.0330
16654TIP3    H171377   6.241   0.356   0.660 -0.0563 -2.0394 -1.5018
16654TIP3    H271378   6.242   0.311   0.804 -2.4452 -2.9578 -1.7367
16655TIP3   OH271379   5.581   2.087   0.977  0.0068  0.0627  0.3651
16655TIP3    H171380   5.647   2.085   1.046 -0.6519  1.1794  1.0575
16655TIP3    H271381   5.498   2.072   1.022 -0.3841  0.3200 -0.2437
16656TIP3   OH271382   0.824   1.920   3.919  0.3119  0.4286  0.0836
16656TIP3    H171383   0.898   1.883   3.872 -0.2294 -0.8253  0.1964
16656TIP3    H271384   0.797   1.851   3.979  0.4113  1.6525  1.6093
16657TIP3   OH271385   5.443   4.942   1.938 -0.2476 -0.1357  0.4085
16657TIP3    H171386   5.499   4.864   1.937  0.4435  0.3545 -0.5009
16657TIP3    H271387   5.378   4.926   1.870  0.8147  0.7030 -0.8571
16658TIP3   OH271388   6.367   6.608  16.259 -0.1051 -0.0295  0.0410
16658TIP3    H171389   6.439   6.654  16.217 -0.2816  0.3967  0.2065
16658TIP3    H271390   6.403   6.523  16.283  0.2029  0.0026 -0.3146
16659TIP3   OH271391   5.610   0.376   0.641  0.2641 -0.0588 -0.2599
16659TIP3    H171392   5.633   0.348   0.553  3.0594  0.3790  0.2539
16659TIP3    H271393   5.578   0.466   0.630 -2.1999 -0.9544 -1.0885
16660TIP3   OH271394   4.891   5.345   4.163  0.3981  0.1609 -0.7587
16660TIP3    H171395   4.823   5.374   4.224  0.3132  1.7053 -1.5482
16660TIP3    H271396   4.843   5.303   4.092  0.5026 -1.7202  0.2257
16661TIP3   OH271397   4.162   1.687  11.119 -0.0748 -0.3198 -0.7216
16661TIP3    H171398   4.115   1.736  11.186 -1.2791  0.2067 -1.9011
16661TIP3    H271399   4.212   1.753  11.072 -0.7233 -0.3857 -1.5258
16662TIP3   OH271400   4.850   1.408  11.072 -0.3267 -0.1857  0.0230
16662TIP3    H171401   4.807   1.494  11.066  0.3335  0.0812 -1.3092
16662TIP3    H271402   4.806   1.364  11.144  0.2980  1.8296  1.7443
16663TIP3   OH271403   1.541   3.229   2.401  0.1129  0.3180  0.4905
16663TIP3    H171404   1.608   3.198   2.463 -1.2750  2.2195  3.1628
16663TIP3    H271405   1.552   3.324   2.400 -1.9168  0.5922  0.2977
16664TIP3   OH271406   4.701   3.289  16.235 -0.3250 -0.2278  0.4230
16664TIP3    H171407   4.714   3.355  16.167  1.4472  1.0679  1.9381
16664TIP3    H271408   4.628   3.235  16.202  0.9130 -0.1367 -2.8194
16665TIP3   OH271409   1.918   1.236  10.954 -0.0816 -0.1342  0.4583
16665TIP3    H171410   1.855   1.239  11.026 -0.5449  0.5533  0.0333
16665TIP3    H271411   1.999   1.205  10.995  0.8078  3.8589  2.1508
16666TIP3   OH271412   4.278   1.856   3.786 -0.2596  0.3193 -0.2753
16666TIP3    H171413   4.192   1.887   3.815 -0.7789 -1.2175 -0.1067
16666TIP3    H271414   4.304   1.792   3.852  0.6143  0.1137 -0.8048
16667TIP3   OH271415   6.254   4.177   1.334  0.4359  0.0707 -0.0213
16667TIP3    H171416   6.228   4.261   1.372  0.8232  0.1827  0.0004
16667TIP3    H271417   6.350   4.180   1.332  0.4466 -0.3033 -0.1726
16668TIP3   OH271418   2.151   4.700   4.287 -0.3395  0.1380 -0.2176
16668TIP3    H171419   2.134   4.725   4.378  0.8692 -1.1977  0.4107
16668TIP3    H271420   2.194   4.776   4.249 -0.8184  0.6956  0.3338
16669TIP3   OH271421   2.420   4.303  12.579  0.1409 -0.5932  0.3094
16669TIP3    H171422   2.327   4.315  12.562 -0.4065 -2.7200  1.3986
16669TIP3    H271423   2.425   4.220  12.627  2.7363 -1.3388 -1.0623
16670TIP3   OH271424   6.622   0.356  12.095 -0.1162 -0.0257  0.2300
16670TIP3    H171425   6.594   0.273  12.135  1.2044 -1.3695 -1.5035
16670TIP3    H271426   6.710   0.371  12.130 -0.4989  0.9115  0.8490
16671TIP3   OH271427   3.290   3.342  13.456  0.2344 -0.1202 -0.5826
16671TIP3    H171428   3.238   3.415  13.422  0.1993  0.3062  0.3434
16671TIP3    H271429   3.376   3.380  13.473  0.5263 -0.5556 -1.0820
16672TIP3   OH271430   6.003   1.600  16.643  0.3220 -0.7251 -0.2939
16672TIP3    H171431   5.913   1.574  16.661 -0.0798 -0.9545 -2.3087
16672TIP3    H271432   6.053   1.519  16.646  0.0184 -0.9784 -1.3652
16673TIP3   OH271433   4.963   2.566  10.919 -0.1182  0.2104  0.5994
16673TIP3    H171434   4.935   2.600  10.834 -0.1405 -0.4904  0.3104
16673TIP3    H271435   5.058   2.570  10.916 -0.0898 -0.4664  0.2433
16674TIP3   OH271436   3.614   2.430  14.642  0.1463  0.1983 -0.1243
16674TIP3    H171437   3.696   2.456  14.683  0.7633 -0.4713 -0.9146
16674TIP3    H271438   3.552   2.426  14.715  1.1214 -0.5944  0.6882
16675TIP3   OH271439   3.159   2.460   4.659  0.5284  0.3513  0.1654
16675TIP3    H171440   3.143   2.447   4.752  0.2492 -2.3399 -0.1836
16675TIP3    H271441   3.073   2.458   4.619  0.5988  2.0906 -0.1301
16676TIP3   OH271442   2.405   0.237  11.133  0.1985 -0.4719  0.2555
16676TIP3    H171443   2.315   0.269  11.133  0.6881  0.9848 -0.4712
16676TIP3    H271444   2.402   0.155  11.084 -1.3217 -2.3984  3.2753
16677TIP3   OH271445   2.631   3.332   3.985 -0.4251  0.3939 -0.4801
16677TIP3    H171446   2.682   3.384   4.047  0.4984 -1.1763  0.1474
16677TIP3    H271447   2.692   3.312   3.914  0.0485 -1.7974  0.4438
16678TIP3   OH271448   5.974   1.133   4.045  0.3044  0.5419 -0.3043
16678TIP3    H171449   6.048   1.119   3.986 -0.0391  0.8163 -0.8083
16678TIP3    H271450   5.927   1.050   4.045  0.4826  0.4425 -0.1721
16679TIP3   OH271451   2.936   0.786  13.253 -0.1112  0.2352  0.0716
16679TIP3    H171452   2.894   0.703  13.231  2.2795 -0.9451 -0.4790
16679TIP3    H271453   2.950   0.828  13.168  0.8292  0.0257  0.1054
16680TIP3   OH271454   6.683   4.171   5.290 -0.1653  0.4319 -0.0346
16680TIP3    H171455   6.731   4.219   5.358  0.0638 -1.9544  1.6459
16680TIP3    H271456   6.746   4.161   5.219 -0.0682  2.1009 -0.2217
16681TIP3   OH271457   3.338   4.147   0.986 -0.2153  0.4413 -0.5599
16681TIP3    H171458   3.368   4.185   1.069 -2.3900  0.5234  0.2318
16681TIP3    H271459   3.391   4.068   0.976 -0.2415  0.1706  1.1465
16682TIP3   OH271460   4.641   0.333  12.177 -0.1133  0.5178 -0.1878
16682TIP3    H171461   4.693   0.262  12.139 -0.8887  0.7954 -1.8825
16682TIP3    H271462   4.698   0.374  12.241  0.4176 -1.5072  0.6905
16683TIP3   OH271463   0.065   0.511  15.359 -0.4351  0.2361  0.7317
16683TIP3    H171464   0.070   0.503  15.455  1.6092  2.3349  0.9000
16683TIP3    H271465   0.048   0.604  15.345 -0.4039  0.0030 -0.9615
16684TIP3   OH271466   6.647   0.092  11.002 -0.0421 -0.0115  0.9017
16684TIP3    H171467   6.568   0.038  10.997  0.1112 -0.0998 -1.2354
16684TIP3    H271468   6.708   0.039  11.054  0.2724 -2.2100 -1.5067
16685TIP3   OH271469   1.844   3.491  13.495  0.3267 -0.2286  0.5238
16685TIP3    H171470   1.795   3.569  13.472  0.9956 -0.2279 -1.0996
16685TIP3    H271471   1.785   3.418  13.473  0.5928 -0.2052 -0.3099
16686TIP3   OH271472   2.865   3.331   0.469 -0.2746 -0.1017  0.1518
16686TIP3    H171473   2.891   3.288   0.550  2.1834 -3.2553 -2.0602
16686TIP3    H271474   2.932   3.398   0.454 -0.5529  0.2676  0.5350
16687TIP3   OH271475   4.739   3.423  12.692 -0.2756 -0.2533  0.1250
16687TIP3    H171476   4.701   3.411  12.779  0.1376 -2.0836  0.0831
16687TIP3    H271477   4.697   3.357  12.637  0.1428  0.2641 -0.8436
16688TIP3   OH271478   0.606   2.139  16.031 -0.2148  0.1758  0.3564
16688TIP3    H171479   0.546   2.146  16.105 -1.4751  0.6401 -0.6789
16688TIP3    H271480   0.672   2.206  16.047 -0.6743  0.5082  0.8837
16689TIP3   OH271481   3.186   0.909   4.305 -0.0325  0.0040  0.4275
16689TIP3    H171482   3.164   0.929   4.214  0.3391 -0.2031  0.2889
16689TIP3    H271483   3.274   0.871   4.301  0.0712  0.1827  0.8973
16690TIP3   OH271484   4.208   5.888   4.828 -0.2177  0.2880 -0.6779
16690TIP3    H171485   4.172   5.907   4.914  2.8622 -0.5095  0.9578
16690TIP3    H271486   4.247   5.971   4.799  2.2582 -0.2814  0.6863
16691TIP3   OH271487   5.466   0.415   3.926 -0.7227 -0.0608  0.1362
16691TIP3    H171488   5.454   0.390   4.017 -0.9781 -0.9909 -0.1392
16691TIP3    H271489   5.382   0.393   3.884 -0.1939 -0.8334 -0.5630
16692TIP3   OH271490   4.946   2.567   3.841 -0.2280  0.9098  0.3607
16692TIP3    H171491   4.979   2.656   3.828  0.2962  0.4592 -1.7975
16692TIP3    H271492   5.016   2.510   3.807 -0.5556 -0.3588  1.6770
16693TIP3   OH271493   4.574   6.062   3.744  0.8257  0.4188 -0.5445
16693TIP3    H171494   4.612   6.150   3.744  0.6670  0.4880 -0.8313
16693TIP3    H271495   4.650   6.004   3.734  0.8330  0.5713 -1.4598
16694TIP3   OH271496   2.316   2.115  15.974  0.0837 -0.1056  0.1916
16694TIP3    H171497   2.359   2.166  15.905  0.1244  0.9155  0.9417
16694TIP3    H271498   2.350   2.026  15.963  0.9987  0.2946 -0.3591
16695TIP3   OH271499   4.742   2.409   0.306  0.3887  0.3352 -0.0623
16695TIP3    H171500   4.764   2.320   0.280  0.4341 -0.0806  1.3187
16695TIP3    H271501   4.646   2.411   0.309  0.3501  0.6918 -1.2468
16696TIP3   OH271502   3.075   3.661  14.708  0.3711  0.2152 -0.0371
16696TIP3    H171503   3.145   3.606  14.673 -0.3425 -0.2227 -0.8033
16696TIP3    H271504   3.038   3.706  14.632 -0.7811 -0.2625  0.2101
16697TIP3   OH271505   0.006   1.061  13.980 -0.2819 -0.4733 -0.6937
16697TIP3    H171506   0.004   1.062  14.076  1.3188 -1.3524 -0.6290
16697TIP3    H271507   0.024   0.970  13.957  1.4113  0.0965 -1.7679
16698TIP3   OH271508   3.662   0.397  16.494 -0.0072  0.0781  0.4211
16698TIP3    H171509   3.572   0.429  16.501  0.2420  0.6466  1.3588
16698TIP3    H271510   3.691   0.424  16.407 -0.3522  0.9710  0.5712
16699TIP3   OH271511   4.751   4.834  12.884 -0.2561 -0.0728 -0.3271
16699TIP3    H171512   4.793   4.784  12.954 -0.4211 -0.6762 -0.6547
16699TIP3    H271513   4.813   4.903  12.862 -0.7867  1.0102  1.3933
16700TIP3   OH271514   6.074   1.174   3.498  0.3256  0.1094  0.4365
16700TIP3    H171515   6.122   1.249   3.461 -0.5809  0.4565 -0.0614
16700TIP3    H271516   6.123   1.151   3.577 -0.1494  2.1344  1.3882
16701TIP3   OH271517   2.733   3.437  10.451 -0.0337  0.2187 -0.1794
16701TIP3    H171518   2.728   3.484  10.367 -2.7561  1.4705  0.5749
16701TIP3    H271519   2.733   3.344  10.426 -0.7527  0.5680 -1.5961
16702TIP3   OH271520   3.680   2.510   6.085 -0.2921  0.0027 -0.1049
16702TIP3    H171521   3.667   2.438   6.147  0.0937 -2.8588 -3.0429
16702TIP3    H271522   3.595   2.553   6.079  0.0299  1.4471  3.4071
16703TIP3   OH271523   1.575   3.926  13.664  0.3392 -0.2050  0.3185
16703TIP3    H171524   1.479   3.930  13.665  0.3656  1.1498  1.8209
16703TIP3    H271525   1.597   3.913  13.572 -1.2544  1.4973 -0.3933
16704TIP3   OH271526   1.413   2.764  16.103  0.3900  0.8438  0.1575
16704TIP3    H171527   1.338   2.780  16.161  0.2753  0.0045  0.2550
16704TIP3    H271528   1.375   2.765  16.015 -0.1616 -1.6383  0.2945
16705TIP3   OH271529   4.969   5.078  13.210  0.9901 -0.0310 -0.0998
16705TIP3    H171530   5.028   5.152  13.226 -0.0087  1.0892 -1.3304
16705TIP3    H271531   4.887   5.119  13.181 -0.0446 -1.5778  0.4875
16706TIP3   OH271532   5.073   0.972   3.266  0.3639  0.6468  0.4139
16706TIP3    H171533   5.077   1.062   3.234  0.8993 -0.3946 -2.7561
16706TIP3    H271534   5.164   0.941   3.261 -0.0715 -0.5812 -0.2919
16707TIP3   OH271535   4.086   4.630  11.995  0.1310 -0.1690  0.2023
16707TIP3    H171536   4.179   4.653  11.986  0.0790  0.0992  0.3579
16707TIP3    H271537   4.086   4.546  12.042  0.2866 -0.0850  0.3517
16708TIP3   OH271538   5.367   0.011  14.632 -0.1181  0.2476 -0.8465
16708TIP3    H171539   5.459   0.031  14.652 -0.9954  1.0410  3.2828
16708TIP3    H271540   5.344  -0.059  14.693 -3.3894  3.2977  1.8432
16709TIP3   OH271541   5.615   0.359  16.518  0.5927  0.2929 -0.0750
16709TIP3    H171542   5.705   0.381  16.544  0.6823  0.7072 -0.7283
16709TIP3    H271543   5.566   0.440  16.532  0.6046  0.4697 -1.0179
16710TIP3   OH271544   6.715   0.846  11.499  0.4413  0.1429 -0.0377
16710TIP3    H171545   6.687   0.925  11.547 -0.4170 -0.4265  0.4179
16710TIP3    H271546   6.754   0.880  11.419 -0.5103  1.0175 -0.1467
16711TIP3   OH271547   1.533   2.044  12.310 -0.0468 -0.3336 -0.0994
16711TIP3    H171548   1.497   2.046  12.221  1.5572 -0.8879 -0.8009
16711TIP3    H271549   1.588   2.122  12.315 -0.0637 -0.3510  0.3838
16712TIP3   OH271550   6.360   0.415   3.460 -0.0094  0.2756 -0.4171
16712TIP3    H171551   6.396   0.353   3.523 -0.1730  0.2938 -0.3048
16712TIP3    H271552   6.431   0.477   3.443 -0.8111  1.9703  1.9208
16713TIP3   OH271553   2.715   3.556  16.365  0.8764 -0.0477 -0.5085
16713TIP3    H171554   2.742   3.479  16.417 -0.5369 -0.0318  0.2885
16713TIP3    H271555   2.697   3.623  16.431  1.4363  0.7721 -1.1724
16714TIP3   OH271556   1.804   6.348   2.538  0.4077 -0.2493  0.1264
16714TIP3    H171557   1.794   6.304   2.454  1.8100  1.9081 -1.2927
16714TIP3    H271558   1.852   6.428   2.517  2.2525 -0.3741  3.2224
16715TIP3   OH271559   0.254   3.625   3.371  0.2488  0.1416 -0.7106
16715TIP3    H171560   0.237   3.535   3.400 -0.3295  0.5482  0.2525
16715TIP3    H271561   0.198   3.679   3.427  0.3534  1.0804 -1.4976
16716TIP3   OH271562   0.936   4.521   2.545  0.0729  0.3304  0.6851
16716TIP3    H171563   0.989   4.601   2.538 -0.7542  0.9501  1.2265
16716TIP3    H271564   0.934   4.503   2.639 -0.2155 -0.0080  0.6122
16717TIP3   OH271565   5.745   5.918   2.801 -0.0515 -0.2749 -0.0037
16717TIP3    H171566   5.749   5.878   2.714 -2.2316  1.2241 -0.8791
16717TIP3    H271567   5.698   5.854   2.854  0.4375 -0.7799 -0.1656
16718TIP3   OH271568   6.614   0.263  13.229 -0.5902  0.3613 -0.0039
16718TIP3    H171569   6.646   0.288  13.143  1.3412  0.1835  0.6082
16718TIP3    H271570   6.569   0.180  13.214 -0.0933  0.2264 -0.8199
16719TIP3   OH271571   4.458   1.741  14.876  0.1952  0.1897  0.0434
16719TIP3    H171572   4.381   1.685  14.871  1.2579 -1.1900 -2.0179
16719TIP3    H271573   4.449   1.785  14.961 -0.2821 -3.7630  2.3302
16720TIP3   OH271574   5.597   1.766  16.879 -0.8836 -0.4180 -0.3049
16720TIP3    H171575   5.684   1.782  16.842 -0.9058  1.0948  0.2399
16720TIP3    H271576   5.610   1.695  16.942  0.5113  1.4196  1.6147
16721TIP3   OH271577   6.672   0.249   0.064 -0.2832  0.1293 -0.0770
16721TIP3    H171578   6.742   0.277   0.005 -0.7863 -1.2893 -1.4356
16721TIP3    H271579   6.669   0.317   0.131  0.3127  1.8540 -1.6878
16722TIP3   OH271580   0.311   6.323  16.522  0.0836  0.0670  0.2846
16722TIP3    H171581   0.376   6.307  16.453  1.2743 -1.1645  1.6196
16722TIP3    H271582   0.228   6.291  16.485  0.8753 -1.4517 -0.2529
16723TIP3   OH271583   5.726   6.136   2.391  0.3352 -0.5120 -0.1698
16723TIP3    H171584   5.786   6.076   2.346  0.6119  0.1248 -0.6622
16723TIP3    H271585   5.667   6.168   2.322  0.3433 -0.0362  0.0406
16724TIP3   OH271586   0.917   3.331  10.315  0.0483  0.3715  0.2203
16724TIP3    H171587   0.920   3.421  10.281 -2.1265 -0.1264 -1.4921
16724TIP3    H271588   0.836   3.326  10.364 -0.2431 -0.8509 -0.3464
16725TIP3   OH271589   4.854   0.646   3.005  0.8093 -0.0833  0.3098
16725TIP3    H171590   4.900   0.725   2.976  0.8020 -0.3087 -0.3227
16725TIP3    H271591   4.901   0.574   2.964  0.0736 -0.3338 -0.1036
16726TIP3   OH271592   1.158   1.312   5.489 -0.2508  0.2779 -0.7025
16726TIP3    H171593   1.246   1.277   5.474  0.3317  1.1239  0.5087
16726TIP3    H271594   1.113   1.244   5.539 -0.0326  0.1506 -0.6777
16727TIP3   OH271595   2.279   6.818  11.051 -0.3145  0.2921 -0.4279
16727TIP3    H171596   2.253   6.730  11.024  0.7883 -0.9906  2.3455
16727TIP3    H271597   2.221   6.839  11.124  2.1822 -0.0660  1.8198
16728TIP3   OH271598   2.082   5.067  14.200  0.5698 -0.0193 -0.2910
16728TIP3    H171599   2.096   5.104  14.287 -0.7459  0.5362 -0.2916
16728TIP3    H271600   2.074   4.973  14.215 -0.7391  0.1799  0.3474
16729TIP3   OH271601   6.054   3.350   3.500 -0.1915 -0.1600 -0.1486
16729TIP3    H171602   5.979   3.381   3.551 -0.0573 -2.4021  1.5858
16729TIP3    H271603   6.016   3.295   3.432 -0.1962  0.1637 -0.4108
16730TIP3   OH271604   4.184   3.486   3.053 -0.0690 -0.6775  0.5866
16730TIP3    H171605   4.113   3.433   3.017 -2.1204  2.1404  0.1489
16730TIP3    H271606   4.193   3.455   3.144  0.7758 -3.5301 -0.3451
16731TIP3   OH271607   3.737   1.349   5.048 -0.5353 -0.7783  0.9228
16731TIP3    H171608   3.705   1.338   4.959  0.0132 -0.2327  0.6511
16731TIP3    H271609   3.676   1.299   5.102 -0.2687 -2.0074  0.1299
16732TIP3   OH271610   1.902   4.523  13.176  0.1947 -0.4875  0.1802
16732TIP3    H171611   1.865   4.435  13.178  1.8131 -1.2018  0.9832
16732TIP3    H271612   1.994   4.510  13.199  1.0296  1.1511 -1.8855
16733TIP3   OH271613   1.410   3.290  14.511 -0.5862 -0.3571  0.2070
16733TIP3    H171614   1.440   3.299  14.421 -0.9117 -1.3911 -0.0264
16733TIP3    H271615   1.443   3.367  14.556  1.8891 -1.1230 -0.1760
16734TIP3   OH271616   6.436   5.806   3.476  0.2390 -0.6539  0.4249
16734TIP3    H171617   6.371   5.741   3.504  0.2643 -0.0886  1.8922
16734TIP3    H271618   6.453   5.785   3.384 -3.9138  0.6914 -0.8831
16735TIP3   OH271619   2.505   1.700   2.302 -0.0089 -0.4597  0.7296
16735TIP3    H171620   2.439   1.734   2.241  0.4143  0.7487  0.9066
16735TIP3    H271621   2.579   1.761   2.294  0.2130 -0.4975  2.1475
16736TIP3   OH271622   2.356   0.953   4.930 -0.2197 -0.0531 -0.1574
16736TIP3    H171623   2.356   1.047   4.943  1.8560 -0.1414  0.7950
16736TIP3    H271624   2.376   0.941   4.837  1.2425  0.4564  0.0691
16737TIP3   OH271625   6.481   3.571   0.383  0.2628 -0.6737  0.6457
16737TIP3    H171626   6.476   3.510   0.457 -0.0172  1.3570  2.4032
16737TIP3    H271627   6.393   3.570   0.346 -0.7854  1.1437  2.8574
16738TIP3   OH271628   4.117   1.307   2.517 -0.2315 -0.4524  0.5450
16738TIP3    H171629   4.188   1.361   2.483  0.0658 -0.2185  1.5164
16738TIP3    H271630   4.125   1.225   2.468  0.8055 -0.4860  0.7471
16739TIP3   OH271631   2.637   4.510   1.061 -0.7779  0.1092 -0.2464
16739TIP3    H171632   2.589   4.576   1.113 -0.9473  0.4321 -0.8047
16739TIP3    H271633   2.568   4.464   1.013 -0.6278 -0.2420 -0.1216
16740TIP3   OH271634   1.465   2.230  16.456  0.2935 -0.6307  0.4335
16740TIP3    H171635   1.514   2.177  16.393 -0.8659  0.1798 -1.2354
16740TIP3    H271636   1.516   2.311  16.463  0.2875 -0.6140  0.3005
16741TIP3   OH271637   4.630   4.289  13.907 -0.3060  0.1563 -0.6555
16741TIP3    H171638   4.668   4.230  13.842 -0.6877  0.1906 -0.9090
16741TIP3    H271639   4.579   4.232  13.964  0.9566 -0.0487  0.3280
16742TIP3   OH271640   4.982   4.610  13.403 -0.0910 -0.0278  0.0809
16742TIP3    H171641   4.972   4.705  13.405  0.0455 -0.0095 -0.0679
16742TIP3    H271642   5.041   4.591  13.476  1.2654  0.1791 -0.9299
16743TIP3   OH271643   0.362   3.511  13.878  0.0733  0.1492  0.6539
16743TIP3    H171644   0.395   3.437  13.929  3.3258  1.6924  1.0327
16743TIP3    H271645   0.325   3.470  13.799  1.4416 -1.9416  1.0073
16744TIP3   OH271646   1.506   4.452   5.260  0.2410 -0.3276 -0.0539
16744TIP3    H171647   1.410   4.457   5.258  0.2634  1.0130  0.9720
16744TIP3    H271648   1.534   4.496   5.180  0.0031 -3.0051 -1.7312
16745TIP3   OH271649   3.438   2.023  15.489  0.2415  0.2472  0.4185
16745TIP3    H171650   3.414   2.038  15.398  2.0870  0.3791 -0.0767
16745TIP3    H271651   3.368   2.066  15.539 -0.9965 -0.1351 -0.8987
16746TIP3   OH271652   6.754   2.976   2.784  0.7130  0.1388 -0.7308
16746TIP3    H171653   6.784   3.066   2.798 -1.3777  0.5764  1.7640
16746TIP3    H271654   6.829   2.922   2.808  1.6489  1.1737 -1.2172
16747TIP3   OH271655   1.467   4.526  11.106 -0.1800  0.0836  0.2157
16747TIP3    H171656   1.443   4.440  11.071  0.9799 -0.2968  0.3089
16747TIP3    H271657   1.477   4.512  11.200  1.3520 -0.0221  0.0599
16748TIP3   OH271658   0.874   4.397  16.057  0.0815  0.2315  0.0521
16748TIP3    H171659   0.950   4.411  16.113  0.7755  0.6388 -0.9447
16748TIP3    H271660   0.799   4.423  16.110  0.9478  4.2675 -0.3212
16749TIP3   OH271661   2.532   2.527  11.448  0.0808 -0.4105  0.2942
16749TIP3    H171662   2.600   2.459  11.455 -0.6442 -1.1544  0.2365
16749TIP3    H271663   2.477   2.515  11.525 -0.9496 -0.9029 -0.4897
16750TIP3   OH271664   0.842   5.790   2.392  0.0453  0.2027 -0.1587
16750TIP3    H171665   0.911   5.728   2.419 -2.0614 -1.4601  1.7611
16750TIP3    H271666   0.873   5.875   2.423  1.6377 -0.3173 -0.1985
16751TIP3   OH271667   3.446   4.338  14.726 -0.2358 -0.3030  0.2937
16751TIP3    H171668   3.490   4.259  14.757  0.2181 -0.4325 -0.6338
16751TIP3    H271669   3.501   4.369  14.655  0.4335  1.7402  1.6237
16752TIP3   OH271670   1.170   5.428  12.962 -0.3813 -0.5228  0.8343
16752TIP3    H171671   1.254   5.435  13.006 -0.2375 -2.4230  0.9229
16752TIP3    H271672   1.160   5.335  12.943 -1.7270 -0.1213 -0.6344
16753TIP3   OH271673   6.729   6.511  15.979 -0.7866  0.7293 -0.4448
16753TIP3    H171674   6.822   6.515  16.001 -0.8945  2.5413 -0.1788
16753TIP3    H271675   6.702   6.423  16.004  1.2710 -0.5443 -2.3838
16754TIP3   OH271676   6.485   5.370   0.284  0.2942  0.1300 -0.1778
16754TIP3    H171677   6.428   5.404   0.352  0.4789 -0.4677  0.2829
16754TIP3    H271678   6.571   5.406   0.304  0.6297 -1.0838  0.6912
16755TIP3   OH271679   4.756   0.702   3.267  0.2082  0.4595  0.5517
16755TIP3    H171680   4.725   0.611   3.274  2.4577 -0.2722  2.0511
16755TIP3    H271681   4.774   0.714   3.174  0.6154 -0.9030  0.4359
16756TIP3   OH271682   6.466   3.714   2.189  0.3532  0.2281  0.8219
16756TIP3    H171683   6.537   3.761   2.146  0.2517  1.0865  1.5569
16756TIP3    H271684   6.386   3.749   2.149  0.3209 -1.1409 -0.4116
16757TIP3   OH271685   4.696   5.885  10.788 -0.2013 -0.7181 -0.3325
16757TIP3    H171686   4.753   5.941  10.737  0.7766  0.0805  1.5388
16757TIP3    H271687   4.742   5.801  10.792 -0.1740 -0.7145 -0.5768
16758TIP3   OH271688   3.339   0.079  10.866 -0.4299  0.3108 -0.3373
16758TIP3    H171689   3.357   0.161  10.820 -1.8922 -0.0197 -1.5751
16758TIP3    H271690   3.328   0.014  10.797 -0.2326 -0.7471  0.5911
16759TIP3   OH271691   6.268   6.253   1.626  0.5380 -0.5891  0.3995
16759TIP3    H171692   6.262   6.227   1.534  0.6716  0.0805  0.1939
16759TIP3    H271693   6.232   6.342   1.628 -0.5891 -1.0492  1.2062
16760TIP3   OH271694   0.364   5.430   4.219  0.5445 -0.1459 -0.2958
16760TIP3    H171695   0.288   5.406   4.271  1.3186 -2.1485 -0.0115
16760TIP3    H271696   0.334   5.423   4.128  0.4924 -1.3869 -0.1966
16761TIP3   OH271697   6.366   5.152  11.093  0.0887 -0.1230 -0.2832
16761TIP3    H171698   6.374   5.186  11.004 -0.7331  2.4673  0.5607
16761TIP3    H271699   6.402   5.221  11.149 -1.7644 -0.5424  1.5519
16762TIP3   OH271700   1.038   2.195   0.944 -0.1739  0.6604  0.1404
16762TIP3    H171701   1.027   2.204   0.850  1.8664 -1.3323 -0.3705
16762TIP3    H271702   1.099   2.264   0.969  0.6893  0.0875 -0.3483
16763TIP3   OH271703   2.227   0.098   5.096 -0.6891  0.2318  0.3605
16763TIP3    H171704   2.216   0.003   5.087 -1.3872  0.4181 -0.9902
16763TIP3    H271705   2.147   0.135   5.059 -1.4571  1.3301  2.9258
16764TIP3   OH271706   2.096   6.373  12.756  0.1222 -0.4789 -0.2995
16764TIP3    H171707   2.083   6.456  12.710 -1.3597  0.1510  1.1605
16764TIP3    H271708   2.183   6.380  12.793  0.2601  0.1498 -0.7192
16765TIP3   OH271709   1.708   0.453  13.437  0.3430 -0.1113  0.7364
16765TIP3    H171710   1.637   0.475  13.377 -0.1147 -0.8372  0.9837
16765TIP3    H271711   1.663   0.420  13.515  0.9440  0.1237  1.1872
16766TIP3   OH271712   5.833   3.194  11.134  0.1973 -0.4434  0.3354
16766TIP3    H171713   5.758   3.236  11.176  0.8420  0.6071  0.4559
16766TIP3    H271714   5.808   3.101  11.129 -0.5002 -0.3614  1.7104
16767TIP3   OH271715   2.983   4.660  15.226 -0.3699  0.4681 -0.0424
16767TIP3    H171716   2.942   4.638  15.143  0.3863 -2.2474  0.1861
16767TIP3    H271717   2.974   4.580  15.278 -0.3929  1.9224  2.3337
16768TIP3   OH271718   3.148   1.854   5.828  0.1968 -0.3385 -0.5165
16768TIP3    H171719   3.157   1.945   5.800  1.7532 -0.3561 -0.1886
16768TIP3    H271720   3.195   1.850   5.912  0.3340 -1.4769 -0.6249
16769TIP3   OH271721   1.267   6.752   0.775 -0.2031 -0.2214  0.0444
16769TIP3    H171722   1.217   6.741   0.856  1.1077 -0.8621  0.8023
16769TIP3    H271723   1.357   6.729   0.799  0.4029  0.5572 -1.3600
16770TIP3   OH271724   5.159   4.753   0.224  0.0719  0.1471  0.3286
16770TIP3    H171725   5.091   4.817   0.205 -0.9133 -0.4089  1.7970
16770TIP3    H271726   5.237   4.787   0.180 -1.1227  0.8170 -1.3640
16771TIP3   OH271727   1.761   6.170  11.810  0.4004  0.2264 -0.1194
16771TIP3    H171728   1.808   6.183  11.892 -0.2982 -2.0464  0.7408
16771TIP3    H271729   1.671   6.154  11.837 -0.2499  1.4009 -1.5018
16772TIP3   OH271730   4.265   5.063   2.942  0.0424 -0.7474  0.4417
16772TIP3    H171731   4.292   5.009   2.868  0.1470 -0.4118  0.2318
16772TIP3    H271732   4.174   5.086   2.923  0.0364 -0.7451  0.4721
16773TIP3   OH271733   5.698   5.374  11.828 -0.2236 -0.4528  0.4644
16773TIP3    H171734   5.691   5.365  11.923 -0.3367  1.2900  0.6596
16773TIP3    H271735   5.756   5.449  11.816  0.8726 -1.4689 -0.8831
16774TIP3   OH271736   3.227   4.269   6.500  0.1035 -0.0684 -0.1668
16774TIP3    H171737   3.321   4.253   6.492  0.0469 -0.8253  0.6551
16774TIP3    H271738   3.217   4.362   6.480  0.9203 -0.1639 -1.0814
16775TIP3   OH271739   0.393   3.452   0.254  0.0701 -0.0308 -0.4512
16775TIP3    H171740   0.393   3.534   0.205  1.9207 -0.4244 -1.2093
16775TIP3    H271741   0.334   3.395   0.206  0.1495  0.3029 -0.9506
16776TIP3   OH271742   1.641   4.545   2.460  0.6942  0.5210  0.2358
16776TIP3    H171743   1.712   4.608   2.475  0.6374  0.7780 -0.5025
16776TIP3    H271744   1.612   4.564   2.371 -1.1190  1.2361  0.9294
16777TIP3   OH271745   5.898   1.836  12.537 -0.0715  0.8305 -0.8960
16777TIP3    H171746   5.952   1.905  12.500 -0.5937  1.4118 -0.5816
16777TIP3    H271747   5.933   1.822  12.625 -1.2779  2.1735 -0.1690
16778TIP3   OH271748   2.379   5.254  14.345 -0.1994  0.3861  0.1870
16778TIP3    H171749   2.373   5.190  14.416  0.5228 -1.1284 -1.0552
16778TIP3    H271750   2.408   5.334  14.388 -0.6999 -0.2147  1.7373
16779TIP3   OH271751   1.303   4.648   3.039  0.7007  0.3496 -0.2231
16779TIP3    H171752   1.395   4.632   3.058  0.6659 -0.4539 -0.6765
16779TIP3    H271753   1.278   4.718   3.099  2.0610  1.8406 -1.3032
16780TIP3   OH271754   5.027   4.295  12.078  1.0903 -0.0100 -0.6333
16780TIP3    H171755   5.054   4.386  12.092  1.4029 -0.0620 -0.8870
16780TIP3    H271756   4.959   4.280  12.143  1.0218  0.4143 -0.6034
16781TIP3   OH271757   3.763   4.204   1.060  0.1303  0.5149 -0.1889
16781TIP3    H171758   3.784   4.122   1.015  0.2549  0.1402  0.5370
16781TIP3    H271759   3.764   4.270   0.991 -2.3446 -0.4367 -1.2502
16782TIP3   OH271760   4.538   4.089  16.856  0.4565  0.6653  0.0779
16782TIP3    H171761   4.633   4.094  16.845  0.3028  1.1750 -1.1191
16782TIP3    H271762   4.508   4.180  16.847 -0.3074  0.2990 -1.2118
16783TIP3   OH271763   3.790   6.215  16.990  0.5335  0.1738  0.0225
16783TIP3    H171764   3.876   6.177  17.007  0.2790  0.3924  2.0390
16783TIP3    H271765   3.809   6.304  16.959  1.0487 -0.2754 -0.9822
16784TIP3   OH271766   2.777   6.826  11.348 -0.1615  0.5774 -0.1382
16784TIP3    H171767   2.743   6.737  11.352 -1.3455  1.0252  0.0915
16784TIP3    H271768   2.831   6.835  11.426  1.2721 -0.4331 -0.9659
16785TIP3   OH271769   2.415   3.999   3.668  0.1041 -0.3012  0.1661
16785TIP3    H171770   2.334   3.948   3.670  1.0316 -1.8246 -0.0470
16785TIP3    H271771   2.387   4.087   3.641 -1.5874 -0.5480  0.9978
16786TIP3   OH271772   5.067   3.724   3.996 -0.0700  0.6944  0.2077
16786TIP3    H171773   5.139   3.785   3.981  0.4097 -0.1176 -0.8949
16786TIP3    H271774   5.027   3.754   4.078  1.2624  1.4035  0.6255
16787TIP3   OH271775   5.772   5.203   4.790 -0.3228  0.0181 -0.0669
16787TIP3    H171776   5.805   5.132   4.844  0.3687 -0.1568 -0.7031
16787TIP3    H271777   5.780   5.281   4.846  3.7262  0.4885 -0.9869
16788TIP3   OH271778   3.781   1.010   5.724  0.0900  0.0768 -0.1961
16788TIP3    H171779   3.711   0.994   5.787  0.7726 -0.1769  0.5226
16788TIP3    H271780   3.859   0.971   5.765  1.0570  1.9805 -0.0895
16789TIP3   OH271781   1.372   6.819  11.360 -0.2861 -0.2107 -0.5114
16789TIP3    H171782   1.433   6.833  11.287 -0.5458 -1.7621 -1.0633
16789TIP3    H271783   1.422   6.767  11.423 -1.0945 -1.7516 -1.1015
16790TIP3   OH271784   5.468   6.002   5.434 -0.0259 -0.1459  0.3888
16790TIP3    H171785   5.515   5.919   5.443  0.7921  0.3146  0.4357
16790TIP3    H271786   5.394   5.982   5.376  0.3967 -0.8039  0.0738
16791TIP3   OH271787   0.828   1.382   2.973 -0.0758 -0.0955  0.2427
16791TIP3    H171788   0.863   1.471   2.971 -2.4872  0.9486 -2.5058
16791TIP3    H271789   0.743   1.391   3.016 -0.5409 -0.9673 -0.4687
16792TIP3   OH271790   5.230   3.628   2.693  1.0501 -0.0163 -0.1261
16792TIP3    H171791   5.211   3.541   2.660  0.7087  0.0600 -0.1385
16792TIP3    H271792   5.255   3.614   2.784 -0.3523 -0.0089  0.2892
16793TIP3   OH271793   1.310   0.475  13.311 -0.3523  0.1998 -0.2227
16793TIP3    H171794   1.302   0.570  13.321 -3.2066 -0.0468  0.7843
16793TIP3    H271795   1.252   0.439  13.379  0.9608 -2.2910 -0.3130
16794TIP3   OH271796   5.812   1.530  16.324  0.1298 -0.0792 -0.2397
16794TIP3    H171797   5.852   1.598  16.378 -1.7187 -0.1065  1.3001
16794TIP3    H271798   5.748   1.576  16.270  0.2381 -0.3560 -0.6079
16795TIP3   OH271799   5.037   1.357  16.378  0.2210 -0.3579 -0.1970
16795TIP3    H171800   5.094   1.288  16.342 -1.1642 -0.9566 -1.3407
16795TIP3    H271801   4.960   1.309  16.411 -0.0069  0.5054  0.5576
16796TIP3   OH271802   0.530   1.977  14.571  0.6182  0.5056 -0.2630
16796TIP3    H171803   0.440   1.977  14.602  1.6563  0.7882  3.0679
16796TIP3    H271804   0.568   1.897  14.605  2.2221  1.4991  0.3841
16797TIP3   OH271805   4.289   5.924   6.262 -0.3386 -0.3602 -0.0951
16797TIP3    H171806   4.375   5.967   6.255 -0.4315  0.2924  1.8863
16797TIP3    H271807   4.226   5.996   6.260 -0.7281 -0.6956 -0.0494
16798TIP3   OH271808   4.753   6.404   5.614 -0.3654  0.1784  0.0049
16798TIP3    H171809   4.792   6.356   5.687 -0.3798 -0.6252 -0.5074
16798TIP3    H271810   4.735   6.491   5.649 -1.3237 -0.5007  1.2831
16799TIP3   OH271811   6.060   3.367   1.254 -0.7773 -0.0249 -0.0350
16799TIP3    H171812   5.996   3.352   1.185  0.4685  0.6336 -1.4173
16799TIP3    H271813   6.010   3.404   1.326 -1.9354  0.5707 -1.1032
16800TIP3   OH271814   3.419   4.722  16.345  0.1855 -0.0565  0.7461
16800TIP3    H171815   3.499   4.712  16.397  0.5067 -1.2853  0.0624
16800TIP3    H271816   3.430   4.806  16.301  0.1890  0.7113  2.1375
16801TIP3   OH271817   6.649   0.833   0.836 -0.6693 -0.5689 -0.3562
16801TIP3    H171818   6.639   0.875   0.750 -1.4020 -1.6570 -0.8321
16801TIP3    H271819   6.661   0.905   0.897  1.7698  0.1943 -1.6051
16802TIP3   OH271820   5.044   4.095   4.679 -0.3795  0.0214 -0.1827
16802TIP3    H171821   4.974   4.031   4.693  1.3686 -2.2115 -1.0024
16802TIP3    H271822   5.094   4.092   4.760 -0.8440  1.1657  0.1666
16803TIP3   OH271823   3.400   0.812   4.522 -0.0023  0.7183 -0.1443
16803TIP3    H171824   3.381   0.729   4.478 -1.1626 -0.8137  2.8736
16803TIP3    H271825   3.480   0.795   4.572 -0.0793  1.5255  0.2712
16804TIP3   OH271826   6.313   5.970  10.849 -0.2173  0.0140  0.6018
16804TIP3    H171827   6.291   6.063  10.839  1.7155  0.6218  1.4716
16804TIP3    H271828   6.309   5.934  10.761 -2.2250  0.5750  0.3975
16805TIP3   OH271829   3.412   2.393  12.962  0.1307 -0.0042 -0.4427
16805TIP3    H171830   3.468   2.396  12.884 -1.5106 -1.5161 -1.7704
16805TIP3    H271831   3.376   2.481  12.969  0.6109  0.2580 -1.1547
16806TIP3   OH271832   2.469   2.396  14.641  0.1225  0.5544 -0.2732
16806TIP3    H171833   2.520   2.322  14.607  0.1811  0.6054 -0.2970
16806TIP3    H271834   2.465   2.380  14.735  0.7501  0.8956 -0.1840
16807TIP3   OH271835   1.844   2.944  14.966  0.3617  0.3040 -0.1463
16807TIP3    H171836   1.898   2.897  14.902 -0.0315 -0.3972  0.0165
16807TIP3    H271837   1.754   2.917  14.945  0.3357 -1.2160  1.6810
16808TIP3   OH271838   0.407   3.679  15.094 -0.1312 -0.2209 -0.0698
16808TIP3    H171839   0.398   3.595  15.050 -0.3411 -0.2068 -0.0551
16808TIP3    H271840   0.479   3.666  15.156 -0.5014 -0.5470  0.2966
16809TIP3   OH271841   1.293   6.616   1.619 -0.2018 -0.0775 -0.0085
16809TIP3    H171842   1.354   6.545   1.599 -0.3926 -0.4072  0.5657
16809TIP3    H271843   1.313   6.683   1.553 -0.9871 -1.2234 -1.4808
16810TIP3   OH271844   3.683   1.491   0.516  0.0818  0.0966 -0.2090
16810TIP3    H171845   3.700   1.450   0.601  0.1436 -1.0659 -0.7624
16810TIP3    H271846   3.743   1.447   0.456  0.0530  0.9202 -0.8637
16811TIP3   OH271847   0.285   4.630  14.298 -0.2379 -0.1255  0.1282
16811TIP3    H171848   0.270   4.536  14.312  0.1502 -0.0505  1.1556
16811TIP3    H271849   0.380   4.641  14.309 -0.0580  0.1481 -1.5550
16812TIP3   OH271850   6.288   3.932  10.822 -0.8196  0.1396  0.0592
16812TIP3    H171851   6.323   3.998  10.763  0.5633  0.8717  1.6194
16812TIP3    H271852   6.324   3.954  10.908  0.7014 -3.2915  0.4946
16813TIP3   OH271853   2.971   0.715   1.148  0.1918 -0.6051 -0.2106
16813TIP3    H171854   2.963   0.806   1.122 -1.4072 -0.1357  1.7475
16813TIP3    H271855   2.977   0.667   1.065 -1.0279  1.0899 -1.3420
16814TIP3   OH271856   0.128   0.315   2.901 -0.0338  0.0420 -0.0860
16814TIP3    H171857   0.192   0.265   2.850  0.1299 -0.8620  0.9548
16814TIP3    H271858   0.053   0.257   2.909 -0.2498  0.3659  0.2577
16815TIP3   OH271859   1.829   6.629   0.830 -0.1076  0.0673 -0.3656
16815TIP3    H171860   1.787   6.675   0.758 -0.4211  0.5905  0.1456
16815TIP3    H271861   1.909   6.592   0.792 -1.1874 -1.2410 -1.4373
16816TIP3   OH271862   5.985   5.900  12.182 -0.0179 -0.3135 -0.0470
16816TIP3    H171863   5.912   5.859  12.228 -0.7626 -0.4961 -1.3325
16816TIP3    H271864   6.047   5.828  12.167 -1.1597 -0.9920 -1.9789
16817TIP3   OH271865   4.695   4.517   1.052 -0.4012 -0.4010 -0.0329
16817TIP3    H171866   4.633   4.497   0.983  0.2163  1.1035 -1.0834
16817TIP3    H271867   4.645   4.510   1.133 -1.7476  0.0276 -0.7960
16818TIP3   OH271868   2.026   0.583  14.830 -0.0479  0.2075 -0.1461
16818TIP3    H171869   2.028   0.496  14.791  1.0091 -0.6414  1.6565
16818TIP3    H271870   1.933   0.601  14.845 -0.3645 -0.0471 -1.6624
16819TIP3   OH271871   2.920   2.399   5.761  0.0848 -0.0268  0.1986
16819TIP3    H171872   2.957   2.356   5.684 -0.4315  0.7156 -0.4824
16819TIP3    H271873   2.841   2.349   5.780 -0.6686  0.7404 -0.7655
16820TIP3   OH271874   3.831   5.786  16.241 -0.5380 -0.2407  0.7849
16820TIP3    H171875   3.908   5.776  16.185 -1.4284  0.6082 -0.6613
16820TIP3    H271876   3.793   5.699  16.246 -0.9344 -0.1823 -0.7081
16821TIP3   OH271877   3.302   5.515  11.852 -0.4444 -0.3492 -0.4259
16821TIP3    H171878   3.298   5.578  11.924  2.7858 -1.5162  0.9887
16821TIP3    H271879   3.323   5.568  11.775 -0.5923  0.6099  0.1780
16822TIP3   OH271880   2.903   3.679   0.664  0.1915 -0.3525  0.3804
16822TIP3    H171881   2.859   3.594   0.657 -1.1299  0.4447 -2.3279
16822TIP3    H271882   2.848   3.730   0.723 -3.1554  0.7913 -3.3162
16823TIP3   OH271883   1.394   2.327   4.322 -0.0933 -0.0809 -0.0259
16823TIP3    H171884   1.457   2.339   4.251  0.2382 -0.2950  0.2323
16823TIP3    H271885   1.404   2.236   4.348 -0.1641  0.0158  0.3442
16824TIP3   OH271886   6.154   0.039  16.821  0.1029 -0.5956  0.3162
16824TIP3    H171887   6.121  -0.050  16.810  0.1496 -0.7397  1.2509
16824TIP3    H271888   6.222   0.031  16.888  0.4597  0.0653  0.0449
16825TIP3   OH271889   4.724   0.884   5.419 -0.6893  0.1191 -0.2428
16825TIP3    H171890   4.726   0.835   5.501 -0.8902  1.4093  0.5634
16825TIP3    H271891   4.725   0.817   5.351  2.0843 -0.9707  0.7393
16826TIP3   OH271892   6.631   5.726   4.392  0.3400 -0.7812 -0.5903
16826TIP3    H171893   6.713   5.696   4.431  1.9324  0.5997 -2.6950
16826TIP3    H271894   6.595   5.647   4.351 -0.2563 -1.7483  1.6211
16827TIP3   OH271895   4.308   2.714  11.814 -0.0210  0.6677 -0.3478
16827TIP3    H171896   4.298   2.665  11.896 -0.0082 -2.9550 -2.3194
16827TIP3    H271897   4.402   2.725  11.804  0.2012 -1.4764 -1.1463
16828TIP3   OH271898   3.653   2.952   1.439 -0.1948  0.1589 -0.3421
16828TIP3    H171899   3.592   2.882   1.464  0.1022  0.4622  1.3501
16828TIP3    H271900   3.597   3.025   1.414 -0.5046 -0.3409 -1.1652
16829TIP3   OH271901   0.957   4.462   1.504  0.3775  0.0152  0.0957
16829TIP3    H171902   0.993   4.417   1.428 -1.0906  1.0489 -1.2649
16829TIP3    H271903   0.880   4.411   1.529 -1.2108  1.5737 -1.3647
16830TIP3   OH271904   1.518   3.383   1.702  0.0285 -0.0795  0.3804
16830TIP3    H171905   1.431   3.351   1.723  0.0355  0.0246  0.5785
16830TIP3    H271906   1.515   3.406   1.610  0.5785 -2.4919 -0.3196
16831TIP3   OH271907   2.748   4.193   3.390 -0.0331  0.5756  0.0080
16831TIP3    H171908   2.834   4.220   3.422  1.6027 -3.3486 -0.4596
16831TIP3    H271909   2.751   4.207   3.296 -0.0514  0.8181  0.0443
16832TIP3   OH271910   4.612   6.432  11.458 -0.6306 -1.2321  0.1779
16832TIP3    H171911   4.609   6.452  11.551 -2.6715 -0.6466  0.0326
16832TIP3    H271912   4.632   6.516  11.416  0.2803 -1.4928  0.0546
16833TIP3   OH271913   4.721   0.797  14.545 -0.1304 -0.2608 -0.3856
16833TIP3    H171914   4.668   0.744  14.485 -0.2992 -2.0098  1.2098
16833TIP3    H271915   4.658   0.857  14.585 -0.7257 -1.4678  0.5641
16834TIP3   OH271916   6.221   3.949  10.416  0.0327  0.3425 -0.5403
16834TIP3    H171917   6.237   3.871  10.364  0.0658  1.0012 -1.5471
16834TIP3    H271918   6.307   3.971  10.453  0.2798  0.5965 -1.2529
16835TIP3   OH271919   2.605   1.611   0.079 -0.5807 -0.5625  0.1778
16835TIP3    H171920   2.606   1.614   0.175 -2.3944  0.0817  0.2173
16835TIP3    H271921   2.536   1.672   0.054  1.1274  0.7386 -1.6447
16836TIP3   OH271922   6.608   5.982  11.238 -0.3788  0.5132 -0.2348
16836TIP3    H171923   6.534   5.967  11.297  0.2265 -0.0779  0.4032
16836TIP3    H271924   6.671   5.913  11.261 -0.4225 -0.2301 -2.0818
16837TIP3   OH271925   1.426   0.999  13.411  0.3127  0.4308 -0.2173
16837TIP3    H171926   1.358   0.943  13.450  0.2981  0.9167  0.4657
16837TIP3    H271927   1.460   0.947  13.338  0.4797 -0.5889  0.5554
16838TIP3   OH271928   4.950   0.169   4.785 -0.0399 -0.0055 -0.6644
16838TIP3    H171929   4.935   0.162   4.879  0.1647  0.7873 -0.5627
16838TIP3    H271930   4.862   0.182   4.747 -0.3037 -1.8123 -0.7584
16839TIP3   OH271931   0.732   5.861   5.941 -0.3033  0.0758 -0.3779
16839TIP3    H171932   0.682   5.868   5.860 -0.1036 -1.9221 -0.7301
16839TIP3    H271933   0.758   5.769   5.945 -0.2703  0.1217  1.9299
16840TIP3   OH271934   4.284   5.366   1.747  0.1746 -0.9128 -0.1587
16840TIP3    H171935   4.234   5.346   1.827  0.2538  1.9255  0.7259
16840TIP3    H271936   4.366   5.404   1.780 -0.2477  1.3460 -1.5167
16841TIP3   OH271937   1.456   4.056   4.528 -0.4439  0.1371 -0.4366
16841TIP3    H171938   1.520   4.115   4.488  0.9140 -0.6964  0.4352
16841TIP3    H271939   1.487   4.043   4.617 -1.2452 -1.1380 -0.3124
16842TIP3   OH271940   0.375   3.513   4.727  0.3972  0.0513  0.5900
16842TIP3    H171941   0.355   3.587   4.669 -1.4263  0.2192  1.3654
16842TIP3    H271942   0.459   3.536   4.767  1.5820  0.0342 -1.7461
16843TIP3   OH271943   0.720   6.480   3.435  0.6229 -0.5360  0.0264
16843TIP3    H171944   0.798   6.423   3.433 -0.1664 -1.6377 -0.8544
16843TIP3    H271945   0.695   6.483   3.527  0.2532 -2.2713  0.0251
16844TIP3   OH271946   0.597   6.810  10.961  0.0825 -0.5806  0.4242
16844TIP3    H171947   0.683   6.840  10.992  0.5604 -1.0461 -0.3976
16844TIP3    H271948   0.610   6.794  10.867 -0.6607 -1.5238  0.4646
16845TIP3   OH271949   0.524   0.216  14.460 -0.1399  0.4355 -0.0688
16845TIP3    H171950   0.445   0.268  14.471 -0.5074  0.0860 -1.0013
16845TIP3    H271951   0.493   0.126  14.455  0.1105  0.4171 -2.2636
16846TIP3   OH271952   2.037   4.810  14.274  0.4358 -0.3538 -0.3108
16846TIP3    H171953   1.996   4.739  14.225  0.7631 -0.4622 -0.4337
16846TIP3    H271954   2.103   4.766  14.329 -0.6640 -0.3726  1.0487
16847TIP3   OH271955   4.345   3.926   0.269  0.5858  0.2777 -0.2790
16847TIP3    H171956   4.407   3.887   0.206  0.5305  0.4401 -0.4353
16847TIP3    H271957   4.348   3.867   0.344  0.0430 -0.3854 -0.7564
16848TIP3   OH271958   0.831   2.164  11.635  0.2752 -0.2408 -0.4852
16848TIP3    H171959   0.789   2.154  11.550 -0.1986  0.9836 -0.4059
16848TIP3    H271960   0.783   2.104  11.693 -0.7832  0.4860 -0.6042
16849TIP3   OH271961   2.364   5.054  14.560 -0.1670 -0.0013 -0.2364
16849TIP3    H171962   2.342   5.038  14.652  0.3293  0.4923 -0.0260
16849TIP3    H271963   2.393   4.969  14.528 -1.5503 -0.4761 -0.2989
16850TIP3   OH271964   6.301   5.217  15.898 -0.3135 -0.3789 -0.5724
16850TIP3    H171965   6.281   5.223  15.991 -0.3712 -0.1304 -0.5976
16850TIP3    H271966   6.315   5.124  15.881 -1.7983 -0.6281 -0.6149
16851TIP3   OH271967   1.788   5.346   5.259  0.2345  0.0386 -0.2004
16851TIP3    H171968   1.754   5.409   5.322 -1.8289 -1.6027  0.4433
16851TIP3    H271969   1.854   5.395   5.209 -0.5741  2.3849  0.8862
16852TIP3   OH271970   1.604   1.946   4.515 -0.3315 -0.2116  0.7571
16852TIP3    H171971   1.630   2.015   4.575 -2.0099  1.1758 -0.0043
16852TIP3    H271972   1.670   1.947   4.446 -1.3377  2.0539 -0.2664
16853TIP3   OH271973   5.328   6.079  12.113 -0.4938  0.5863 -0.1582
16853TIP3    H171974   5.380   6.080  12.033 -1.1952 -0.6823 -0.6514
16853TIP3    H271975   5.327   6.171  12.142 -0.7445  1.1858 -1.9432
16854TIP3   OH271976   4.050   3.611  12.706  0.1500 -0.0384  0.2614
16854TIP3    H171977   3.982   3.568  12.758  0.9601 -0.2591  1.1573
16854TIP3    H271978   4.018   3.606  12.616 -0.7022 -0.7413  0.5891
16855TIP3   OH271979   0.914   6.116  12.777 -0.2904  0.2133 -0.8190
16855TIP3    H171980   0.955   6.192  12.818 -0.4296 -0.6022  0.8932
16855TIP3    H271981   0.986   6.071  12.733  0.1532  0.2487 -0.1389
16856TIP3   OH271982   1.247   3.742   1.706  0.1196 -0.0934 -0.0226
16856TIP3    H171983   1.154   3.721   1.705  0.0089  0.3787 -0.5711
16856TIP3    H271984   1.250   3.838   1.709  0.5475 -0.0056 -1.9284
16857TIP3   OH271985   2.035   5.411  15.367 -0.0040  0.1459  1.0173
16857TIP3    H171986   2.059   5.468  15.294  0.4594 -0.7914  0.4136
16857TIP3    H271987   2.078   5.328  15.348 -0.5583 -0.3754  1.9403
16858TIP3   OH271988   5.060   2.641  10.364 -0.2537 -0.5104 -0.4535
16858TIP3    H171989   4.968   2.666  10.366  0.4391  2.5300  2.6353
16858TIP3    H271990   5.073   2.591  10.445  1.1085  0.6212  0.0681
16859TIP3   OH271991   4.756   6.292  15.882  0.0689 -0.1578  0.5239
16859TIP3    H171992   4.694   6.363  15.867  1.7146  0.8265 -2.4853
16859TIP3    H271993   4.723   6.220  15.828  0.4419 -0.3658  0.5715
16860TIP3   OH271994   5.103   1.705  15.815 -0.1097  0.5145  0.1647
16860TIP3    H171995   5.097   1.790  15.771 -1.4977  0.8422  0.9523
16860TIP3    H271996   5.023   1.698  15.867  0.7845 -0.5161  1.4850
16861TIP3   OH271997   1.134   4.555  12.983 -0.0047 -0.3602  0.2077
16861TIP3    H171998   1.098   4.548  13.072 -0.9392 -1.4220 -0.2426
16861TIP3    H271999   1.221   4.594  12.996 -0.9674  1.5489  1.3924
16862TIP3   OH272000   4.804   1.550   3.417  0.1968 -0.0328 -0.2533
16862TIP3    H172001   4.738   1.505   3.470 -1.1782  0.6895 -1.3217
16862TIP3    H272002   4.755   1.596   3.350  1.7122  1.4311 -0.4281
16863TIP3   OH272003   4.945   6.061   2.137  0.4600  0.2288 -0.0064
16863TIP3    H172004   4.944   6.037   2.044 -0.5191  0.2110  0.0000
16863TIP3    H272005   4.853   6.057   2.164  0.8568 -1.1249  1.3140
16864TIP3   OH272006   4.561   2.685  15.304  0.4906  0.0821  0.1164
16864TIP3    H172007   4.593   2.600  15.274 -1.4735 -0.1183 -1.6416
16864TIP3    H272008   4.568   2.681  15.400 -2.6955 -3.4996  0.4352
16865TIP3   OH272009   5.441   5.098  16.672  0.1185 -0.4098  0.3953
16865TIP3    H172010   5.496   5.176  16.684 -1.4895  0.9441 -0.6262
16865TIP3    H272011   5.369   5.128  16.616  1.0070 -3.3701 -2.6424
16866TIP3   OH272012   4.517   2.080  13.192  0.1792  0.3029  0.5422
16866TIP3    H172013   4.509   1.993  13.154  1.2176  0.7131 -0.6973
16866TIP3    H272014   4.523   2.065  13.287  2.2856 -1.1509  0.2398
16867TIP3   OH272015   1.454   0.338   3.032  0.3065  0.3727 -0.0573
16867TIP3    H172016   1.515   0.364   2.964 -0.1797 -0.8464 -0.9848
16867TIP3    H272017   1.503   0.278   3.088 -0.2802 -1.3770 -1.3604
16868TIP3   OH272018   5.975   4.749  16.807 -0.5626  0.2088  0.2605
16868TIP3    H172019   5.893   4.763  16.853  0.3875 -0.1397  2.1774
16868TIP3    H272020   5.970   4.805  16.730 -1.1329  2.9869  2.1877
16869TIP3   OH272021   3.422   6.612   3.932 -0.2895  0.4446  0.0051
16869TIP3    H172022   3.502   6.665   3.937 -0.1688  0.8148 -3.2870
16869TIP3    H272023   3.404   6.587   4.022  0.3610  4.9896  1.6289
16870TIP3   OH272024   6.636   6.278   0.402 -0.3132 -0.3683 -0.4708
16870TIP3    H172025   6.661   6.361   0.362  0.4161 -0.6948 -0.7126
16870TIP3    H272026   6.698   6.267   0.474 -1.9104  0.4387  1.0721
16871TIP3   OH272027   6.627   4.901  11.304 -0.2463 -0.3929 -0.4235
16871TIP3    H172028   6.592   4.876  11.219 -1.5278  2.0464 -0.7061
16871TIP3    H272029   6.553   4.887  11.364 -0.8424  1.9760 -0.5137
16872TIP3   OH272030   2.869   0.388   4.160 -0.2883 -0.3752  0.1340
16872TIP3    H172031   2.868   0.471   4.209  0.1345  0.5425 -1.3258
16872TIP3    H272032   2.887   0.321   4.226 -0.8247  0.6704  1.3840
16873TIP3   OH272033   0.124   3.488  14.326 -0.5894 -0.3087  0.1423
16873TIP3    H172034   0.208   3.449  14.302 -0.8164  0.3888 -1.9334
16873TIP3    H272035   0.077   3.417  14.370  1.2339 -0.5584  1.8108
16874TIP3   OH272036   5.581   2.598   5.991 -0.2148  0.6067  0.3458
16874TIP3    H172037   5.514   2.626   6.054 -0.9109 -0.3404  0.0538
16874TIP3    H272038   5.566   2.504   5.981 -0.2895  0.7704 -1.4171
16875TIP3   OH272039   3.464   4.870  16.989  0.2351 -0.9151  0.2504
16875TIP3    H172040   3.530   4.820  17.038  0.0148 -1.5310 -0.0697
16875TIP3    H272041   3.484   4.962  17.008 -0.1500 -1.1452  1.8964
16876TIP3   OH272042   1.700   1.957   1.324  0.2294 -0.5039 -0.2120
16876TIP3    H172043   1.718   1.967   1.230 -0.2075 -1.1628 -0.3733
16876TIP3    H272044   1.689   1.863   1.336  0.5622 -0.4470  0.5613
16877TIP3   OH272045   3.537   4.086  13.600 -0.6759  0.0042  0.3371
16877TIP3    H172046   3.519   3.993  13.590 -1.6028  0.3202 -1.2990
16877TIP3    H272047   3.451   4.126  13.616 -0.3907  0.6622  0.2827
16878TIP3   OH272048   5.576   5.729  15.356  0.0783 -0.8361  0.5923
16878TIP3    H172049   5.613   5.667  15.293  2.2483  1.4420 -0.5154
16878TIP3    H272050   5.532   5.795  15.303  1.9475  1.1264  1.3534
16879TIP3   OH272051   2.655   4.382  15.223  0.0159  0.0747  0.3639
16879TIP3    H172052   2.718   4.320  15.187  1.9071  0.6152  2.5450
16879TIP3    H272053   2.576   4.330  15.239 -0.1020 -0.6619 -2.1709
16880TIP3   OH272054   2.565   0.774   3.906  0.0864  0.3895  0.2835
16880TIP3    H172055   2.482   0.730   3.922 -0.2650  0.4234 -1.3094
16880TIP3    H272056   2.595   0.739   3.821  1.9957 -0.0764  1.0892
16881TIP3   OH272057   1.102   6.212  15.568 -0.4320  0.2856  0.1938
16881TIP3    H172058   1.195   6.233  15.562  0.1968 -1.9003  1.0692
16881TIP3    H272059   1.080   6.227  15.660 -0.6898 -0.0588  0.1911
16882TIP3   OH272060   3.052   5.248  11.228 -0.0946 -0.0868 -0.3135
16882TIP3    H172061   3.073   5.265  11.136  3.0725 -3.0624 -0.3559
16882TIP3    H272062   2.957   5.237  11.230 -0.2556  0.0454 -3.1961
16883TIP3   OH272063   3.552   6.182   1.862  0.1541  0.5597  0.3668
16883TIP3    H172064   3.525   6.247   1.797 -1.5294  0.3336  0.8007
16883TIP3    H272065   3.479   6.121   1.866  0.8459 -0.2182  1.4628
16884TIP3   OH272066   0.335   3.548   0.983 -0.3493  0.0572  0.3739
16884TIP3    H172067   0.423   3.511   0.985 -0.6383 -0.6174  2.2658
16884TIP3    H272068   0.340   3.626   1.039 -0.9626 -0.0038  0.5223
16885TIP3   OH272069   0.810   3.871   4.669  0.3326  0.3815  0.0147
16885TIP3    H172070   0.802   3.776   4.672  0.4475  0.3981  1.1259
16885TIP3    H272071   0.723   3.903   4.694  0.2584  0.5702 -0.4790
16886TIP3   OH272072   4.900   2.015  12.289 -0.0946 -0.2197  0.1256
16886TIP3    H172073   4.880   1.922  12.300  2.2901 -0.7780  0.3014
16886TIP3    H272074   4.902   2.027  12.194 -0.0458 -0.4425  0.0973
16887TIP3   OH272075   5.688   5.585   0.160 -0.4568  0.3952 -0.1138
16887TIP3    H172076   5.762   5.535   0.125 -0.3449  0.1220  0.5060
16887TIP3    H272077   5.667   5.541   0.242 -0.5253  1.2116  0.3083
16888TIP3   OH272078   3.235   6.757   4.192  0.2822  0.1557  1.0798
16888TIP3    H172079   3.215   6.677   4.143 -0.4092  1.4436 -0.8433
16888TIP3    H272080   3.150   6.787   4.223  0.3947  0.7386  0.8241
16889TIP3   OH272081   4.080   3.676  14.362  0.0982  0.5205 -0.0781
16889TIP3    H172082   4.041   3.650  14.445  1.8990 -0.5788  0.4747
16889TIP3    H272083   4.018   3.739  14.325 -0.5740  1.3058  2.2466
16890TIP3   OH272084   1.130   4.486  10.825  0.3661 -0.0826 -0.7825
16890TIP3    H172085   1.199   4.542  10.791 -1.0745  1.0464 -2.0011
16890TIP3    H272086   1.120   4.417  10.759  0.1529 -0.0740 -0.7613
16891TIP3   OH272087   6.559   2.174  12.227  0.0488 -0.0546 -0.2927
16891TIP3    H172088   6.517   2.257  12.205  0.4469  0.8539  2.0851
16891TIP3    H272089   6.516   2.146  12.308  0.9727 -1.4034 -0.2300
16892TIP3   OH272090   4.671   3.138   5.801 -0.1903 -0.5313 -0.7118
16892TIP3    H172091   4.627   3.145   5.716  2.4109 -0.8889 -2.1778
16892TIP3    H272092   4.730   3.213   5.804 -2.3516  1.2611  2.2416
16893TIP3   OH272093   0.155   4.253   3.994 -0.4000  0.2258 -0.5320
16893TIP3    H172094   0.078   4.204   3.964 -0.9830 -0.7021  2.1834
16893TIP3    H272095   0.121   4.311   4.062  1.5142 -1.7827  2.3447
16894TIP3   OH272096   4.259   6.405   0.123 -0.1119 -0.7371 -0.0446
16894TIP3    H172097   4.237   6.489   0.162  0.9983  0.3205 -1.5608
16894TIP3    H272098   4.329   6.370   0.178 -0.2770 -0.4577  0.3450
16895TIP3   OH272099   4.076   3.286   6.007  0.2940 -0.3863 -0.6197
16895TIP3    H172100   4.038   3.237   6.080 -1.4014 -0.7681 -1.6959
16895TIP3    H272101   4.140   3.227   5.969  0.1059 -0.7670 -0.3486
16896TIP3   OH272102   1.596   6.823   5.041  0.5865  0.5749 -0.3608
16896TIP3    H172103   1.649   6.759   4.994 -0.5586 -0.9683  0.3800
16896TIP3    H272104   1.580   6.893   4.978  1.6276  0.0107 -1.2766
16897TIP3   OH272105   2.654   0.853   2.383 -0.9512  0.1903  0.1720
16897TIP3    H172106   2.654   0.828   2.476 -2.0715 -0.2692  0.0607
16897TIP3    H272107   2.716   0.926   2.379 -0.8180  0.1643  1.2681
16898TIP3   OH272108   5.315   4.427   0.855  0.1849 -0.0690 -0.1437
16898TIP3    H172109   5.220   4.441   0.851  0.5002  2.3113 -1.0037
16898TIP3    H272110   5.352   4.515   0.858  2.3806 -0.9484  0.4684
16899TIP3   OH272111   0.537   2.067  12.041 -0.1519 -0.6852  0.2205
16899TIP3    H172112   0.446   2.093  12.061 -1.2730 -2.8985 -1.6088
16899TIP3    H272113   0.590   2.140  12.075 -2.4689  0.0870  2.5548
16900TIP3   OH272114   1.507   2.272  15.019  0.4077  0.2597  0.4761
16900TIP3    H172115   1.507   2.305  14.929 -0.0284  0.4739  0.5481
16900TIP3    H272116   1.584   2.311  15.059  0.0184  1.0326  0.4929
16901TIP3   OH272117   5.921   1.747   1.907  0.1072  0.3099  0.0703
16901TIP3    H172118   5.935   1.655   1.884  0.7702  0.3254  0.3925
16901TIP3    H272119   6.007   1.788   1.899 -0.1743  0.8976 -0.0318
16902TIP3   OH272120   0.581   3.936   2.956 -0.0706  0.0739  0.0419
16902TIP3    H172121   0.489   3.963   2.951  0.1710  0.7575 -1.4193
16902TIP3    H272122   0.629   4.012   2.922  1.0340 -0.2654  0.8164
16903TIP3   OH272123   5.074   5.233  16.271 -0.3397 -0.1383  0.4635
16903TIP3    H172124   5.040   5.293  16.337 -2.3528 -0.0297 -0.5915
16903TIP3    H272125   5.108   5.290  16.202 -0.0980 -0.2349  0.5008
16904TIP3   OH272126   6.311   2.534   2.479 -0.3273 -0.2556 -0.1978
16904TIP3    H172127   6.317   2.610   2.536  1.2170 -0.4531 -0.0661
16904TIP3    H272128   6.395   2.489   2.489 -1.3318 -2.2253  0.0585
16905TIP3   OH272129   0.196   2.842  12.976 -0.4771 -0.5060 -0.4296
16905TIP3    H172130   0.180   2.924  12.929  2.7936  2.4705  2.9559
16905TIP3    H272131   0.111   2.818  13.013 -1.5884  1.1686 -1.7682
16906TIP3   OH272132   2.957   5.283  16.638  0.1281 -0.6766  0.1169
16906TIP3    H172133   2.996   5.208  16.682  1.3146  0.4492  1.0813
16906TIP3    H272134   2.898   5.321  16.703  0.8061  0.1781  0.2480
16907TIP3   OH272135   6.471   2.944  14.569 -0.1281  0.1591  0.4113
16907TIP3    H172136   6.399   2.931  14.631  0.3172  1.6309  1.3018
16907TIP3    H272137   6.546   2.967  14.624  0.5734  0.3915 -0.6105
16908TIP3   OH272138   2.476   0.346   0.587  0.6704  0.3431 -0.2082
16908TIP3    H172139   2.550   0.407   0.595  1.4710 -0.4201 -1.4308
16908TIP3    H272140   2.512   0.261   0.613  0.1950 -0.0169 -0.6965
16909TIP3   OH272141   2.130   6.510  10.656 -0.3071 -0.3993  0.3546
16909TIP3    H172142   2.185   6.451  10.605 -0.7442 -2.3656  2.0278
16909TIP3    H272143   2.191   6.562  10.708  0.0621 -1.9758  1.5699
16910TIP3   OH272144   1.864   2.142  10.685 -0.6155 -0.2627  0.3542
16910TIP3    H172145   1.868   2.205  10.757 -0.0821  3.1056 -2.2962
16910TIP3    H272146   1.806   2.183  10.621 -0.8878 -2.9517 -1.2801
16911TIP3   OH272147   2.148   4.480   4.439  0.2708 -0.2871 -0.5011
16911TIP3    H172148   2.094   4.418   4.390  0.3897 -0.1184 -0.8487
16911TIP3    H272149   2.177   4.543   4.374  2.2225 -1.2655 -0.6511
16912TIP3   OH272150   5.235   4.411  14.553  0.0866 -0.2204  0.1079
16912TIP3    H172151   5.238   4.451  14.466  0.7264  1.9205  1.0292
16912TIP3    H272152   5.143   4.390  14.567  0.2634 -2.8920 -1.9717
16913TIP3   OH272153   5.270   4.865  10.394  0.0678  0.6973 -0.2123
16913TIP3    H172154   5.226   4.940  10.433  1.1021  1.2811 -0.1361
16913TIP3    H272155   5.350   4.901  10.356 -0.1032 -0.1322 -1.4212
16914TIP3   OH272156   6.492   6.811   3.412 -0.1444 -0.4707  0.3623
16914TIP3    H172157   6.468   6.899   3.382 -1.5350 -1.2185 -0.8477
16914TIP3    H272158   6.575   6.823   3.459  1.6920  0.9408 -2.9510
16915TIP3   OH272159   3.759   5.645  15.687 -0.7499  0.1815  0.4985
16915TIP3    H172160   3.691   5.703  15.654 -0.6655 -0.9857 -1.9425
16915TIP3    H272161   3.809   5.699  15.748 -1.6345  2.1730 -0.4549
16916TIP3   OH272162   5.559   5.741  11.660 -0.6858  0.0135  0.3809
16916TIP3    H172163   5.646   5.741  11.620 -0.5749 -4.0808  0.2349
16916TIP3    H272164   5.501   5.776  11.592  0.4921  0.4658 -0.4166
16917TIP3   OH272165   3.514   2.626   0.701 -0.0200 -0.1798 -0.3940
16917TIP3    H172166   3.494   2.655   0.612 -0.5764  0.3034 -0.1152
16917TIP3    H272167   3.429   2.619   0.744  0.3212  1.2266  0.5982
16918TIP3   OH272168   4.219   1.340   4.793 -0.0575 -0.3491  0.2083
16918TIP3    H172169   4.307   1.310   4.769  1.1058  2.5889  0.3397
16918TIP3    H272170   4.228   1.370   4.884 -0.9571  0.7461 -0.0407
16919TIP3   OH272171   4.163   4.252   4.827 -0.0929 -0.2300 -0.8445
16919TIP3    H172172   4.160   4.175   4.771  0.5842  0.0572 -1.2888
16919TIP3    H272173   4.075   4.259   4.863 -0.1288 -1.2769 -0.7011
16920TIP3   OH272174   4.237   6.798  17.018 -0.4802 -0.1051 -0.2016
16920TIP3    H172175   4.286   6.819  16.938  1.1301  2.3899  1.2821
16920TIP3    H272176   4.300   6.811  17.088 -2.1141 -1.2541  1.5724
16921TIP3   OH272177   3.348   6.098   1.421 -0.3972  0.7434 -0.4366
16921TIP3    H172178   3.370   6.033   1.355  0.9036  0.2573  0.4270
16921TIP3    H272179   3.392   6.067   1.501 -1.3449  1.6710  0.4827
16922TIP3   OH272180   5.150   5.772   4.589 -0.5307  0.5141  0.0549
16922TIP3    H172181   5.151   5.788   4.683 -2.0571 -2.0289  0.6063
16922TIP3    H272182   5.065   5.804   4.560 -0.6845 -0.0477 -0.1373
16923TIP3   OH272183   5.840   4.021   2.950 -0.0565  0.7635  0.0694
16923TIP3    H172184   5.783   3.946   2.936  0.0966  1.0828 -2.7602
16923TIP3    H272185   5.846   4.029   3.045 -2.7128 -0.7600  0.4528
16924TIP3   OH272186   2.371   6.196  15.189 -0.4301  0.4646 -0.1399
16924TIP3    H172187   2.359   6.114  15.142  0.3430  0.0128  0.4242
16924TIP3    H272188   2.458   6.226  15.162 -0.9492  1.4279 -0.8180
16925TIP3   OH272189   4.073   4.704  11.528 -0.4655 -0.2766  0.5391
16925TIP3    H172190   4.033   4.761  11.595  2.4717  1.1119  1.2822
16925TIP3    H272191   4.107   4.630  11.577 -1.7411 -1.2804 -0.0398
16926TIP3   OH272192   0.932   2.873  13.510 -0.1622  0.0377 -0.0369
16926TIP3    H172193   1.024   2.850  13.493 -0.3405 -0.7273 -0.0269
16926TIP3    H272194   0.882   2.806  13.463 -0.6985 -0.5631  1.3335
16927TIP3   OH272195   1.876   1.315   3.708  0.4000  0.5410 -0.1466
16927TIP3    H172196   1.866   1.235   3.656  0.4992 -0.2809  1.0661
16927TIP3    H272197   1.853   1.289   3.797 -0.3785  2.0797  0.1278
16928TIP3   OH272198   0.268   3.988  14.429 -0.1229  0.4120  0.2671
16928TIP3    H172199   0.359   3.963  14.417  0.0606  1.2566 -0.1663
16928TIP3    H272200   0.231   3.987  14.341 -1.2302 -2.3782  0.6607
16929TIP3   OH272201   5.593   4.695   1.932 -0.4529  0.1339 -0.4644
16929TIP3    H172202   5.676   4.694   1.885 -0.5155 -0.7003 -0.5780
16929TIP3    H272203   5.615   4.666   2.020 -0.7166 -0.7242 -0.6734
16930TIP3   OH272204   3.700   1.938   0.924  0.1043  0.3850  0.4805
16930TIP3    H172205   3.660   2.013   0.879  0.4284  0.5980  0.5456
16930TIP3    H272206   3.731   1.974   1.007 -2.8009 -0.5163  2.1108
16931TIP3   OH272207   1.767   6.213  16.151 -0.2932 -0.0656 -0.1704
16931TIP3    H172208   1.859   6.186  16.159 -0.5839 -0.7065  1.5895
16931TIP3    H272209   1.718   6.134  16.171 -1.1867  0.8711  1.6028
16932TIP3   OH272210   1.237   1.427  11.265 -0.2808 -0.2271  0.3451
16932TIP3    H172211   1.167   1.455  11.206  0.6763  0.5834 -0.4319
16932TIP3    H272212   1.191   1.383  11.337 -1.6860  1.2138  0.4007
16933TIP3   OH272213   0.982   4.140  13.988  0.3365 -0.3408  0.0662
16933TIP3    H172214   1.028   4.189  13.921  0.5331 -0.4401  0.1281
16933TIP3    H272215   0.890   4.146  13.963  0.2938  0.5874  0.4181
16934TIP3   OH272216   6.786   5.747  15.387  0.5463  0.0787 -0.0369
16934TIP3    H172217   6.736   5.763  15.468  1.5381 -1.6882  0.9773
16934TIP3    H272218   6.754   5.662  15.356  0.1589  0.7526 -1.5453
16935TIP3   OH272219   3.277   2.767   0.362 -0.6853 -0.1519 -0.1384
16935TIP3    H172220   3.327   2.847   0.375 -0.8392 -0.1702  0.6163
16935TIP3    H272221   3.224   2.759   0.442 -2.3611  0.2070 -1.1729
16936TIP3   OH272222   3.935   5.178  16.114 -0.0716  0.3958 -0.0648
16936TIP3    H172223   3.884   5.256  16.093  0.2342  0.7219  0.3702
16936TIP3    H272224   4.026   5.208  16.114  0.0935 -0.0899 -0.4405
16937TIP3   OH272225   3.774   5.201   3.145  0.3507 -0.6620  0.2116
16937TIP3    H172226   3.697   5.244   3.182  0.4686 -0.1682 -0.1045
16937TIP3    H272227   3.848   5.243   3.189  0.5773  1.0461 -1.6282
16938TIP3   OH272228   5.090   5.292   2.855  0.0103 -0.0136 -0.3513
16938TIP3    H172229   5.030   5.245   2.798 -0.5464  0.3843 -0.1064
16938TIP3    H272230   5.084   5.384   2.826 -0.4175  0.2217  0.4487
16939TIP3   OH272231   3.671   3.754  13.461  0.0734  0.1826  0.0090
16939TIP3    H172232   3.653   3.846  13.440 -1.3922  0.0126  0.3813
16939TIP3    H272233   3.766   3.749  13.467  0.1539  1.9300  1.0124
16940TIP3   OH272234   5.597   0.690  12.487 -0.3351  0.2878 -0.3008
16940TIP3    H172235   5.509   0.719  12.461 -0.7766 -0.5776  0.1916
16940TIP3    H272236   5.645   0.683  12.405 -0.6007  1.1420 -0.5434
16941TIP3   OH272237   5.096   2.052   2.535 -0.2941  0.6076 -0.0131
16941TIP3    H172238   5.024   2.099   2.577  0.3092 -0.1108  1.9280
16941TIP3    H272239   5.169   2.114   2.534  0.0583  0.2397  1.1910
16942TIP3   OH272240   3.285   4.665   3.668 -0.2925 -0.3886 -0.8886
16942TIP3    H172241   3.374   4.687   3.642 -0.0999  1.7071  1.1643
16942TIP3    H272242   3.292   4.646   3.762 -2.0531  0.4783 -0.5409
16943TIP3   OH272243   1.937   4.155   1.776 -0.0828  1.1057  0.2836
16943TIP3    H172244   2.031   4.170   1.782  0.3398 -0.4333 -1.4745
16943TIP3    H272245   1.901   4.191   1.857  1.9773  1.9691  0.8633
16944TIP3   OH272246   2.074   4.112   3.817  0.0915 -0.3756 -0.1168
16944TIP3    H172247   2.067   4.199   3.778  2.2343 -0.2883 -0.4081
16944TIP3    H272248   2.110   4.127   3.904 -2.2503 -0.7905  1.0118
16945TIP3   OH272249   0.808   1.123   3.037  0.0103  0.1504  0.5332
16945TIP3    H172250   0.825   1.083   2.952 -0.5530  1.0415 -0.0194
16945TIP3    H272251   0.817   1.217   3.021 -0.4103  0.3472  1.3930
16946TIP3   OH272252   4.756   1.698   5.390 -1.0736 -0.1988  0.1814
16946TIP3    H172253   4.681   1.725   5.338 -2.5846 -0.5169  2.0790
16946TIP3    H272254   4.720   1.641   5.458  1.0192 -1.1055  0.6351
16947TIP3   OH272255   6.051   4.565  13.278 -0.4802 -0.5142 -0.3497
16947TIP3    H172256   5.983   4.501  13.258 -1.5607  0.0821  1.2859
16947TIP3    H272257   6.070   4.552  13.371 -1.0373  1.8028  0.1374
16948TIP3   OH272258   0.966   3.869   2.214 -0.2056 -0.2105  0.3588
16948TIP3    H172259   0.916   3.906   2.141 -0.3314 -0.5841  0.2542
16948TIP3    H272260   1.004   3.789   2.179 -1.3559 -1.1004  1.0846
16949TIP3   OH272261   3.349   2.245   4.643  0.2926  0.3865 -0.1275
16949TIP3    H172262   3.418   2.259   4.578 -0.0636  1.2017 -0.3458
16949TIP3    H272263   3.312   2.332   4.658 -0.8674 -0.0780 -0.2095
16950TIP3   OH272264   4.591   3.693   2.914  0.2075 -0.1064 -0.0126
16950TIP3    H172265   4.685   3.680   2.924  0.6439  1.4009 -1.6992
16950TIP3    H272266   4.566   3.748   2.989  0.2821 -1.9150  1.4044
16951TIP3   OH272267   3.639   2.647   5.567  0.4403 -0.2363  0.3531
16951TIP3    H172268   3.572   2.670   5.631  0.6089  1.3704 -0.0166
16951TIP3    H272269   3.635   2.717   5.502  1.2500 -1.0816 -0.6332
16952TIP3   OH272270   6.660   5.551  13.412  0.3668 -0.6850  0.4094
16952TIP3    H172271   6.727   5.619  13.403  1.0603 -1.5212 -1.1833
16952TIP3    H272272   6.697   5.488  13.473  1.3849 -1.4809 -0.9655
16953TIP3   OH272273   3.508   5.864   3.930  0.0907  0.1085 -0.4449
16953TIP3    H172274   3.516   5.912   3.847 -0.9169 -0.5309 -0.9196
16953TIP3    H272275   3.595   5.827   3.944 -0.2485 -1.5669 -2.3300
16954TIP3   OH272276   2.969   0.684  16.409 -0.1139  0.2766 -0.1894
16954TIP3    H172277   3.061   0.695  16.435  0.0769 -1.1397 -0.1795
16954TIP3    H272278   2.940   0.606  16.457 -0.7526 -0.3882 -1.6102
16955TIP3   OH272279   1.224   2.044  14.283  0.5611  0.2292  0.4028
16955TIP3    H172280   1.189   2.127  14.248 -0.0391  0.4619  1.5175
16955TIP3    H272281   1.233   2.060  14.377 -1.1506 -1.4957  0.9148
16956TIP3   OH272282   2.862   1.642  13.420  0.2334  0.0989 -0.1819
16956TIP3    H172283   2.896   1.705  13.484  0.4892  1.0271 -1.1789
16956TIP3    H272284   2.841   1.696  13.344 -0.9557 -0.8436 -0.5418
16957TIP3   OH272285   0.832   3.437   0.354  0.2864  0.6511  0.1133
16957TIP3    H172286   0.844   3.346   0.379 -0.7614  0.3504 -0.4352
16957TIP3    H272287   0.781   3.434   0.273  0.6139  1.7089 -0.1557
16958TIP3   OH272288   6.439   0.800  16.598  0.1583 -0.3687  0.1363
16958TIP3    H172289   6.385   0.836  16.668  1.1081 -1.2208  1.3413
16958TIP3    H272290   6.462   0.712  16.628  0.5828 -0.7653 -1.2616
16959TIP3   OH272291   5.428   4.518  12.502  0.3419 -0.5080 -0.2866
16959TIP3    H172292   5.485   4.589  12.471  1.0604 -0.8313  0.2753
16959TIP3    H272293   5.401   4.545  12.589  1.0252 -1.1458  0.1359
16960TIP3   OH272294   0.334   1.323  15.410  0.7285 -0.3289  0.2029
16960TIP3    H172295   0.286   1.302  15.330 -0.2236 -1.9914  1.1517
16960TIP3    H272296   0.287   1.399  15.446  0.3063 -0.4355 -0.1147
16961TIP3   OH272297   2.744   4.111  15.135 -0.5441 -0.4247 -0.6643
16961TIP3    H172298   2.736   4.047  15.206 -2.9545  1.8912  1.3495
16961TIP3    H272299   2.663   4.104  15.086 -0.8390  1.0214 -0.4272
16962TIP3   OH272300   3.247   4.710   1.908 -0.1778  0.2921  0.4292
16962TIP3    H172301   3.218   4.739   1.821 -0.2695 -1.8470 -0.2998
16962TIP3    H272302   3.341   4.693   1.897  0.0726  1.1548  1.1061
16963TIP3   OH272303   6.830   4.397   3.550  0.3180 -0.0688  0.2746
16963TIP3    H172304   6.779   4.425   3.474  0.9120  0.0753 -0.0798
16963TIP3    H272305   6.897   4.339   3.514  1.2969  0.8692  0.5168
16964TIP3   OH272306   2.797   1.037  16.419  0.4265  0.0856  0.1674
16964TIP3    H172307   2.818   0.944  16.415  1.4520  0.1915  1.8195
16964TIP3    H272308   2.702   1.040  16.417  0.3318 -0.6929 -3.5793
16965TIP3   OH272309   1.082   6.613   2.816 -0.0463 -0.2514 -0.0725
16965TIP3    H172310   1.007   6.618   2.756 -0.0963  2.3425  0.0925
16965TIP3    H272311   1.153   6.657   2.769  1.1937 -1.9985  0.0935
16966TIP3   OH272312   4.968   4.230  12.696 -0.0270 -0.0276 -0.2227
16966TIP3    H172313   5.028   4.299  12.666 -0.9194 -0.5994 -3.7059
16966TIP3    H272314   4.887   4.246  12.647 -1.5818 -1.3153  1.7926
16967TIP3   OH272315   2.243   2.724   2.914  0.0703 -0.1040  0.2345
16967TIP3    H172316   2.190   2.650   2.944 -0.2924  0.5935  1.3781
16967TIP3    H272317   2.181   2.782   2.869  0.6084 -1.1432 -2.0125
16968TIP3   OH272318   3.191   5.614   1.920  0.0500  0.3973 -0.0554
16968TIP3    H172319   3.159   5.691   1.874 -0.9666  0.4145  0.6733
16968TIP3    H272320   3.185   5.544   1.855  0.0249  0.7144 -0.4004
16969TIP3   OH272321   1.111   6.477   1.210  0.0882 -0.3335  0.2625
16969TIP3    H172322   1.153   6.402   1.253 -0.5574  0.1179  1.7144
16969TIP3    H272323   1.017   6.460   1.220 -0.0607  0.6061  0.4715
16970TIP3   OH272324   2.414   1.479   2.158 -0.3512  0.0174 -0.1703
16970TIP3    H172325   2.319   1.475   2.171 -0.2604  0.4878  0.6954
16970TIP3    H272326   2.447   1.522   2.236  0.6907 -1.0775  0.0131
16971TIP3   OH272327   0.785   4.206  15.865  0.6995  0.1040  0.5323
16971TIP3    H172328   0.836   4.253  15.930 -0.1232 -0.4214  1.5851
16971TIP3    H272329   0.761   4.123  15.907  0.3976 -0.3850 -0.5443
16972TIP3   OH272330   5.052   2.820   2.154  0.1307  0.1682 -0.2779
16972TIP3    H172331   5.112   2.746   2.146 -0.6731 -0.3518 -1.9406
16972TIP3    H272332   4.980   2.786   2.208  1.2882  0.8125  1.7722
16973TIP3   OH272333   1.963   3.646  10.004  0.3705  0.0369  0.0926
16973TIP3    H172334   1.915   3.614   9.928  0.9915 -2.1636  0.5606
16973TIP3    H272335   1.939   3.739  10.010  0.2156  0.2598 -2.6839
16974TIP3   OH272336   3.663   6.209   4.182 -0.0267  0.2253  0.0848
16974TIP3    H172337   3.625   6.143   4.241 -0.9519  0.4421 -0.2484
16974TIP3    H272338   3.731   6.252   4.235 -0.0867 -0.3281  0.6249
16975TIP3   OH272339   4.980   2.688  11.857 -0.2489  0.1740 -0.4821
16975TIP3    H172340   4.915   2.645  11.912 -1.3149  0.5731 -1.3898
16975TIP3    H272341   5.017   2.756  11.913  0.6671 -1.1526  0.6064
16976TIP3   OH272342   1.131   2.171   6.296  0.3721  0.0548  0.1017
16976TIP3    H172343   1.102   2.257   6.325  0.4951 -0.7351  2.7698
16976TIP3    H272344   1.227   2.174   6.303  0.5542  0.3473 -1.8930
16977TIP3   OH272345   1.702   2.564  12.054  0.1665 -0.2197 -0.1621
16977TIP3    H172346   1.631   2.609  12.007 -0.2727  0.4293  1.0960
16977TIP3    H272347   1.679   2.572  12.146  1.1501 -1.2637  0.1907
16978TIP3   OH272348   1.394   5.689   0.647 -0.0496 -0.2539 -0.2026
16978TIP3    H172349   1.477   5.732   0.630  0.2767 -0.3965  0.9870
16978TIP3    H272350   1.398   5.608   0.594 -0.4561  0.8580 -2.0329
16979TIP3   OH272351   3.296   1.345  16.442  0.1274 -0.1452 -0.0615
16979TIP3    H172352   3.229   1.286  16.407 -0.2206  0.3762 -0.2826
16979TIP3    H272353   3.292   1.422  16.386 -0.1341  0.5246  0.8699
16980TIP3   OH272354   1.255   1.170  13.717  0.0758 -0.0062 -0.0276
16980TIP3    H172355   1.341   1.193  13.682  1.1011 -0.8347  1.7646
16980TIP3    H272356   1.235   1.240  13.779 -0.2110 -0.1503  0.0440
16981TIP3   OH272357   1.014   0.413   9.903  0.0073 -0.0521  0.3413
16981TIP3    H172358   0.962   0.466   9.842  0.1259 -0.1013  0.1960
16981TIP3    H272359   1.053   0.344   9.848 -0.8163 -0.7937  0.6654
16982TIP3   OH272360   1.189   0.123  16.857  0.5099  0.1702  0.5646
16982TIP3    H172361   1.281   0.109  16.881  0.4361  0.7924  1.2137
16982TIP3    H272362   1.190   0.203  16.804  0.8544 -1.8059 -2.6895
16983TIP3   OH272363   3.110   2.822  15.282 -0.0989 -0.5655  0.1090
16983TIP3    H172364   3.074   2.772  15.209  0.4639 -1.6713  0.5679
16983TIP3    H272365   3.079   2.912  15.267  0.3224 -0.6777 -1.6986
16984TIP3   OH272366   3.351   6.354  15.649 -0.3683  0.1391 -0.0449
16984TIP3    H172367   3.393   6.417  15.591  0.4671 -1.5964 -1.4161
16984TIP3    H272368   3.279   6.403  15.689  0.8344  2.2092 -0.2779
16985TIP3   OH272369   5.663   4.264   3.018  0.4252  0.3760 -0.2011
16985TIP3    H172370   5.627   4.307   2.941 -0.9883  0.9330  0.7307
16985TIP3    H272371   5.685   4.176   2.989 -1.3482  0.1353 -0.9279
16986TIP3   OH272372   1.302   1.522   0.891  0.1972 -0.3566  0.4269
16986TIP3    H172373   1.350   1.514   0.808 -1.6119 -0.3134 -0.6829
16986TIP3    H272374   1.315   1.437   0.934 -0.6388 -1.2155 -0.9400
16987TIP3   OH272375   5.837   5.853  14.520 -0.1666 -0.1902 -0.2285
16987TIP3    H172376   5.802   5.790  14.457 -0.4840  0.8098 -1.0797
16987TIP3    H272377   5.863   5.800  14.595 -1.7452 -1.1797 -0.3431
16988TIP3   OH272378   6.606   5.870  12.581  0.2318  0.1453  0.3038
16988TIP3    H172379   6.521   5.913  12.571  0.8381  1.4521  0.5731
16988TIP3    H272380   6.636   5.854  12.491  0.3741  1.0715  0.1797
16989TIP3   OH272381   5.707   4.512  14.764 -0.4093  0.4494  0.3262
16989TIP3    H172382   5.645   4.574  14.725 -0.2652 -0.0659 -0.7626
16989TIP3    H272383   5.673   4.426  14.740 -0.0327  0.1269  0.9277
16990TIP3   OH272384   2.034   0.919   5.895  0.8973  0.0896 -0.0974
16990TIP3    H172385   1.946   0.886   5.914  0.8598 -0.6162 -1.3776
16990TIP3    H272386   2.019   0.999   5.845  0.9942  0.5172  0.5468
16991TIP3   OH272387   3.168   6.325  13.771 -0.5936 -0.0823 -0.0874
16991TIP3    H172388   3.262   6.311  13.762 -0.5934  0.6511 -1.4964
16991TIP3    H272389   3.151   6.404  13.720 -1.9345 -0.0568  0.3683
16992TIP3   OH272390   6.270   4.199   4.984  0.8544 -0.4283 -0.2993
16992TIP3    H172391   6.357   4.237   4.985  1.1563 -1.0661 -1.2252
16992TIP3    H272392   6.248   4.189   4.891 -0.9771  1.4412 -0.1412
16993TIP3   OH272393   2.154   0.521   4.481  0.1970 -0.0482 -0.3625
16993TIP3    H172394   2.235   0.554   4.520 -0.4060 -0.7139  1.5883
16993TIP3    H272395   2.087   0.537   4.548 -1.0220 -0.7982 -1.3535
16994TIP3   OH272396   6.561   2.550   1.773  0.4014 -0.1725 -0.6803
16994TIP3    H172397   6.480   2.527   1.817  0.4655  0.5033 -0.1806
16994TIP3    H272398   6.547   2.639   1.741  1.3167  0.3982  0.4020
16995TIP3   OH272399   5.014   0.045  16.320  0.7746 -0.4983 -0.0962
16995TIP3    H172400   5.099   0.047  16.276  0.4043  0.1843 -0.8213
16995TIP3    H272401   4.966  -0.025  16.277  1.1711 -1.3046  0.7356
16996TIP3   OH272402   4.795   1.191   2.010  1.0419 -0.3435  0.1897
16996TIP3    H172403   4.787   1.158   1.920  3.6612 -0.3541 -0.1319
16996TIP3    H272404   4.803   1.286   1.999 -2.6681  0.1978  0.8268
16997TIP3   OH272405   2.070   4.315   2.098  0.0853  0.3918  0.3267
16997TIP3    H172406   2.136   4.363   2.148 -0.3730  3.1120 -1.4319
16997TIP3    H272407   2.119   4.266   2.032  0.4676  1.7938 -0.4819
16998TIP3   OH272408   2.270   5.442   5.815  0.7740  0.6024  0.5794
16998TIP3    H172409   2.362   5.460   5.835  1.0457 -0.0225 -0.0353
16998TIP3    H272410   2.240   5.385   5.886  0.9134  0.6642  0.6872
16999TIP3   OH272411   2.525   5.332  12.384 -0.2223 -0.3986  0.4025
16999TIP3    H172412   2.522   5.287  12.469  0.6612  1.0110  1.2131
16999TIP3    H272413   2.459   5.401  12.391  0.5629  0.3728  0.3447
17000TIP3   OH272414   6.369   0.936  14.964  0.2934  0.2422 -0.5843
17000TIP3    H172415   6.309   0.971  15.029  0.7321  1.2509 -0.6988
17000TIP3    H272416   6.318   0.869  14.917 -0.3221  0.1888  0.1491
17001TIP3   OH272417   2.529   1.176  16.438  0.1419  0.0593  0.0829
17001TIP3    H172418   2.440   1.140  16.442  0.3106 -0.2647  1.5062
17001TIP3    H272419   2.519   1.258  16.389 -0.5857 -0.9212 -1.4867
17002TIP3   OH272420   2.083   4.513  11.751 -0.2892 -0.4596  0.4744
17002TIP3    H172421   2.012   4.454  11.725 -1.9419  1.5497  0.1095
17002TIP3    H272422   2.073   4.523  11.846 -1.5882  1.0502  0.2219
17003TIP3   OH272423   1.811   1.985  10.458  0.3912 -0.4349 -0.1046
17003TIP3    H172424   1.854   2.051  10.403 -0.2921  1.3720  1.4255
17003TIP3    H272425   1.835   2.009  10.548  0.1479 -2.3365  0.5216
17004TIP3   OH272426   1.797   5.594  10.162  0.0222  0.1081 -0.1404
17004TIP3    H172427   1.736   5.527  10.195 -1.0263 -0.2959 -2.6697
17004TIP3    H272428   1.865   5.544  10.117 -0.3930  0.6558 -1.4382
17005TIP3   OH272429   4.934   6.368  12.110 -0.3175  0.4973  0.8156
17005TIP3    H172430   4.977   6.440  12.156  0.9210 -0.8085  1.7672
17005TIP3    H272431   4.888   6.320  12.178  3.1180 -2.6099  1.2712
17006TIP3   OH272432   2.633   6.420  11.138  0.3635 -0.0522 -0.1660
17006TIP3    H172433   2.618   6.349  11.076 -0.1716  0.1350 -0.2519
17006TIP3    H272434   2.546   6.448  11.165  0.5833 -0.6068  1.2259
17007TIP3   OH272435   6.561   4.175   3.375  0.0562  0.0123 -0.6097
17007TIP3    H172436   6.549   4.081   3.361 -0.4711  0.1769 -1.2843
17007TIP3    H272437   6.655   4.185   3.388  0.0851 -0.6412 -0.2825
17008TIP3   OH272438   3.494   2.448   0.905 -0.6114  0.0194 -0.0486
17008TIP3    H172439   3.556   2.492   0.846 -0.0923 -0.3423  0.2161
17008TIP3    H272440   3.526   2.358   0.909 -0.7924 -0.0191  0.5861
17009TIP3   OH272441   6.674   0.752   5.651 -0.4270  0.8157  0.0075
17009TIP3    H172442   6.583   0.781   5.654 -1.1183 -1.0033 -1.6269
17009TIP3    H272443   6.703   0.757   5.743 -2.3727  0.7521  0.6713
17010TIP3   OH272444   3.043   2.225  16.375  0.5647  0.4616 -0.5322
17010TIP3    H172445   3.124   2.184  16.346  0.2899  0.8672 -1.9800
17010TIP3    H272446   2.982   2.153  16.387  0.7010  0.2709 -0.9636
17011TIP3   OH272447   6.042   0.820   2.496  0.2933 -0.0390 -0.4361
17011TIP3    H172448   6.081   0.858   2.417  0.0001  1.0136 -0.0795
17011TIP3    H272449   6.112   0.821   2.560  0.9256 -2.0686 -1.0112
17012TIP3   OH272450   5.465   1.394  16.698  0.4528  0.1999  0.1973
17012TIP3    H172451   5.417   1.318  16.666  0.7143 -0.5136  1.4267
17012TIP3    H272452   5.434   1.405  16.788  2.3467 -0.0917  0.9246
17013TIP3   OH272453   2.374   1.911  13.593 -0.8391  0.1768 -0.4325
17013TIP3    H172454   2.280   1.910  13.610 -0.9689 -0.9532 -1.0900
17013TIP3    H272455   2.400   1.818  13.593 -0.0816  0.3395 -2.0627
17014TIP3   OH272456   0.754   0.071  15.811  0.7354  0.5065 -0.3654
17014TIP3    H172457   0.685   0.008  15.789  1.9212 -1.4415  1.1861
17014TIP3    H272458   0.706   0.152  15.830 -0.9586 -0.2480 -1.1482
17015TIP3   OH272459   3.437   0.646   4.090  0.0019 -0.4519 -0.0422
17015TIP3    H172460   3.431   0.738   4.066  0.4489 -0.3614  0.1732
17015TIP3    H272461   3.525   0.637   4.128  0.6586 -1.3374 -1.6503
17016TIP3   OH272462   2.233   2.912  15.927 -0.3646  0.4784  0.0547
17016TIP3    H172463   2.327   2.899  15.934 -0.4337 -0.1705 -0.1370
17016TIP3    H272464   2.205   2.851  15.858 -0.8628  0.9482 -0.1664
17017TIP3   OH272465   6.830   3.808   5.507 -0.1316  0.0989  0.1440
17017TIP3    H172466   6.790   3.862   5.439  1.2839  0.2988 -0.5721
17017TIP3    H272467   6.824   3.861   5.587 -1.2209  0.1353  0.0453
17018TIP3   OH272468   5.479   3.042   0.134 -0.6707 -0.1209  0.0934
17018TIP3    H172469   5.457   2.972   0.072  0.4162  1.0745 -1.7210
17018TIP3    H272470   5.422   3.026   0.209 -1.8475 -1.7938 -1.0864
17019TIP3   OH272471   4.103   2.443  16.399  0.0497 -0.0438 -0.6027
17019TIP3    H172472   4.096   2.427  16.493 -1.5324 -0.4082 -0.7438
17019TIP3    H272473   4.178   2.501  16.389  0.4549 -0.2982  0.8479
17020TIP3   OH272474   0.185   0.636   4.306 -0.2757 -0.7232 -0.1686
17020TIP3    H172475   0.218   0.553   4.270  1.8986 -0.5381  1.1858
17020TIP3    H272476   0.254   0.664   4.367 -0.7888  2.2584 -0.8245
17021TIP3   OH272477   1.851   2.360  13.154  0.1269  0.6934  0.4175
17021TIP3    H172478   1.775   2.356  13.095  0.3148  0.5324  0.1852
17021TIP3    H272479   1.865   2.270  13.181 -0.3425  0.8482  1.2053
17022TIP3   OH272480   1.158   2.646   2.317  0.1057 -0.4693 -0.5182
17022TIP3    H172481   1.249   2.626   2.338  0.3498 -1.6749 -2.4217
17022TIP3    H272482   1.111   2.564   2.331 -0.7812  0.2220  0.7505
17023TIP3   OH272483   4.936   1.739   2.029 -0.5007 -0.3028  0.3277
17023TIP3    H172484   4.983   1.684   1.966 -0.3802 -0.5225  0.6062
17023TIP3    H272485   4.943   1.828   1.993  1.0948 -0.1468  0.9034
17024TIP3   OH272486   0.628   1.353   3.888 -0.3182  0.3301 -0.2275
17024TIP3    H172487   0.660   1.285   3.948 -0.1799  0.5410 -0.0620
17024TIP3    H272488   0.607   1.305   3.808  0.9317  0.2539 -0.5365
17025TIP3   OH272489   1.303   4.062  16.535  0.2680  0.2286  0.3529
17025TIP3    H172490   1.367   4.093  16.472 -1.4242 -0.8598 -2.0537
17025TIP3    H272491   1.342   3.984  16.573  0.8086  0.2024 -0.2492
17026TIP3   OH272492   6.028   3.501  15.988 -0.2644  0.0759  0.4430
17026TIP3    H172493   5.976   3.581  15.979 -1.3042 -0.8070 -2.7695
17026TIP3    H272494   6.085   3.501  15.912  1.3781 -1.1721  1.5975
17027TIP3   OH272495   4.296   2.346  11.682 -0.2612 -0.0332 -0.1150
17027TIP3    H172496   4.283   2.320  11.773  1.8050  1.0785  0.5669
17027TIP3    H272497   4.233   2.294  11.632 -3.0547  0.9096  2.1445
17028TIP3   OH272498   5.926   6.562   0.989  0.2882  0.3526 -0.5957
17028TIP3    H172499   5.906   6.486   1.043  0.6217  1.0576  0.5441
17028TIP3    H272500   5.953   6.630   1.051  1.8482  0.8258 -1.7146
17029TIP3   OH272501   6.777   1.591  10.967 -0.1696 -0.7152  0.0643
17029TIP3    H172502   6.733   1.550  11.042  0.2221 -0.6142  0.3572
17029TIP3    H272503   6.757   1.684  10.975  1.1324 -0.4816  0.9422
17030TIP3   OH272504   2.491   3.011  16.167 -0.1406  0.0746  0.3808
17030TIP3    H172505   2.449   2.929  16.192  0.9476 -1.0266 -1.2678
17030TIP3    H272506   2.424   3.058  16.118  0.3131 -1.5182 -1.9350
17031TIP3   OH272507   0.396   1.226   5.250 -0.7432  0.6033 -0.4309
17031TIP3    H172508   0.381   1.158   5.316 -0.4059  1.0212  0.0801
17031TIP3    H272509   0.309   1.262   5.232 -0.8574  0.3809 -0.3318
17032TIP3   OH272510   6.338   1.852  13.979 -0.3966  0.4854  0.3679
17032TIP3    H172511   6.371   1.941  13.965 -0.1457  0.0595 -2.1528
17032TIP3    H272512   6.385   1.799  13.914 -0.4946 -1.5241  1.8596
17033TIP3   OH272513   1.695   1.511   2.431  0.1477  0.5462  0.1119
17033TIP3    H172514   1.703   1.416   2.426 -0.8026  0.4543  0.0019
17033TIP3    H272515   1.630   1.533   2.364 -0.0564  1.2043  0.5089
17034TIP3   OH272516   4.839   5.154  15.556 -0.3337  0.0079  0.0604
17034TIP3    H172517   4.829   5.199  15.472  1.3363 -0.7685 -0.6011
17034TIP3    H272518   4.898   5.081  15.537 -0.4161 -0.5486  1.7904
17035TIP3   OH272519   2.265   5.245  14.079 -0.4713 -0.4389  0.1921
17035TIP3    H172520   2.300   5.239  14.168  0.3544 -1.6871 -0.1896
17035TIP3    H272521   2.208   5.169  14.070 -0.6450 -0.2537 -0.3061
17036TIP3   OH272522   3.057   6.441   0.278  0.0668  0.0622  0.0900
17036TIP3    H172523   3.067   6.416   0.186  1.1366  0.2189  0.1524
17036TIP3    H272524   3.019   6.363   0.319  0.9670 -0.5571 -0.2092
17037TIP3   OH272525   2.677   1.359  13.199 -0.1237  0.0591 -0.3505
17037TIP3    H172526   2.614   1.296  13.232 -0.3918  0.7578  0.5193
17037TIP3    H272527   2.659   1.364  13.105 -0.9655 -0.1891 -0.2095
17038TIP3   OH272528   5.064   6.138  14.103  0.0324  0.7276 -0.6642
17038TIP3    H172529   5.079   6.121  14.196 -0.5658  1.0925 -0.4970
17038TIP3    H272530   5.143   6.105  14.060 -0.4736 -1.2077 -0.2282
17039TIP3   OH272531   4.176   3.222  12.161  0.3682  0.3643 -0.4313
17039TIP3    H172532   4.168   3.199  12.068 -0.3421 -1.6957  0.0955
17039TIP3    H272533   4.110   3.291  12.174  0.1291  0.3254 -1.3382
17040TIP3   OH272534   0.508   1.338   4.581  0.7844  0.0647 -0.4205
17040TIP3    H172535   0.499   1.370   4.491 -1.4058  0.5450 -0.0895
17040TIP3    H272536   0.434   1.377   4.627  1.5208 -0.6694  1.4616
17041TIP3   OH272537   2.386   5.190  15.559 -0.5777 -0.1862 -0.2433
17041TIP3    H172538   2.396   5.283  15.580 -3.5253 -0.3275  2.6021
17041TIP3    H272539   2.418   5.144  15.636  1.8663 -1.7206 -2.0321
17042TIP3   OH272540   5.860   5.052   0.921 -0.1662  0.6912  0.1734
17042TIP3    H172541   5.850   5.000   1.001  0.4583 -1.3150 -0.9666
17042TIP3    H272542   5.954   5.048   0.902 -0.2175  1.6630 -0.3479
17043TIP3   OH272543   3.990   2.799   0.706 -0.2903  0.5915  0.2311
17043TIP3    H172544   3.923   2.743   0.667  1.1105 -2.4077  1.7652
17043TIP3    H272545   3.970   2.800   0.800  0.3858  1.7480  0.3850
17044TIP3   OH272546   2.662   1.240   4.987  0.1642  0.2914 -0.4286
17044TIP3    H172547   2.571   1.212   4.991 -1.0268  3.3639 -2.0155
17044TIP3    H272548   2.670   1.304   5.058  0.5375  1.2156 -1.2707
17045TIP3   OH272549   4.992   3.505  16.811  0.1729 -0.1758  0.0389
17045TIP3    H172550   4.930   3.544  16.748 -1.3451 -1.1970  0.8367
17045TIP3    H272551   5.033   3.581  16.853 -1.0816  0.5726 -0.0147
17046TIP3   OH272552   1.697   4.200  15.743  0.1320 -0.3796  0.2508
17046TIP3    H172553   1.708   4.294  15.726 -1.7285 -0.3619 -1.3061
17046TIP3    H272554   1.616   4.195  15.793 -0.4514 -1.1917 -0.7311
17047TIP3   OH272555   1.732   6.058  12.472 -0.4457  0.7541  0.0734
17047TIP3    H172556   1.673   6.010  12.414  0.2257  0.1591 -0.1327
17047TIP3    H272557   1.690   6.054  12.557 -0.7215  0.3640 -0.0775
17048TIP3   OH272558   2.082   1.294   0.651 -0.6578 -0.3543 -0.8725
17048TIP3    H172559   2.137   1.267   0.725 -0.7273  0.1154 -0.6421
17048TIP3    H272560   2.145   1.328   0.587 -0.7696  2.3525  0.3076
17049TIP3   OH272561   3.858   0.556  14.199 -0.0693  0.0630 -0.4436
17049TIP3    H172562   3.914   0.533  14.125  0.3031  0.0399 -0.1583
17049TIP3    H272563   3.877   0.648  14.216  0.0471 -0.0029 -0.2082
17050TIP3   OH272564   4.305   5.261   4.464  0.0512  0.1692  0.3932
17050TIP3    H172565   4.217   5.247   4.497  0.1662  1.0691  1.1293
17050TIP3    H272566   4.359   5.199   4.512 -0.0192  0.3955  0.7702
17051TIP3   OH272567   6.573   3.912   3.347 -0.2605  0.2841  0.0174
17051TIP3    H172568   6.612   3.844   3.400  0.1096  0.9285  0.5774
17051TIP3    H272569   6.605   3.895   3.258  0.8321  0.4632  0.3683
17052TIP3   OH272570   5.259   1.496   1.426  0.0557 -0.2691  0.2416
17052TIP3    H172571   5.209   1.536   1.355  0.2188  1.8871  1.2559
17052TIP3    H272572   5.230   1.542   1.505 -0.3527 -2.8018  1.6821
17053TIP3   OH272573   3.835   5.321  15.271  0.1572  0.3230  0.2411
17053TIP3    H172574   3.928   5.315  15.296 -0.2791  1.8574  2.5476
17053TIP3    H272575   3.815   5.414  15.273 -0.6173  0.4415 -3.9790
17054TIP3   OH272576   3.640   5.495   3.941 -0.0422  0.3667  0.0229
17054TIP3    H172577   3.666   5.583   3.915  0.4542 -0.1699 -1.4272
17054TIP3    H272578   3.719   5.442   3.931 -0.3479 -0.2620  0.8044
17055TIP3   OH272579   2.035   0.396  14.431 -0.1590  0.2532  0.1933
17055TIP3    H172580   1.964   0.441  14.476 -1.7743 -0.8373 -1.1366
17055TIP3    H272581   2.026   0.422  14.340  2.6809  1.9627  0.2901
17056TIP3   OH272582   1.662   2.701  16.016 -0.0800  0.8818 -0.1363
17056TIP3    H172583   1.644   2.607  16.016  2.4611  0.3141 -0.6915
17056TIP3    H272584   1.597   2.738  16.076 -1.3326 -1.1681 -0.1420
17057TIP3   OH272585   2.689   6.827   1.603 -0.3499 -0.4143 -0.2042
17057TIP3    H172586   2.771   6.852   1.560 -0.7629 -1.9574 -2.0027
17057TIP3    H272587   2.622   6.880   1.561 -0.5658 -0.8366 -0.4003
17058TIP3   OH272588   0.807   3.367  13.313  0.8213  0.1833  0.4779
17058TIP3    H172589   0.787   3.291  13.368  2.7283  0.3630  1.5358
17058TIP3    H272590   0.853   3.330  13.238 -1.6578 -0.0459 -1.0308
17059TIP3   OH272591   2.030   1.954   4.392  0.3646  0.4110 -0.0610
17059TIP3    H172592   1.958   2.008   4.360  0.0774 -0.5406 -1.0624
17059TIP3    H272593   1.994   1.906   4.467 -0.2148 -0.4673 -0.8924
17060TIP3   OH272594   0.009   5.880   5.306  0.3169 -0.1082  0.0932
17060TIP3    H172595  -0.010   5.799   5.353 -1.0717  1.1255  1.7810
17060TIP3    H272596   0.010   5.855   5.213 -0.1701 -2.0169  0.5685
17061TIP3   OH272597   4.565   3.048   5.228 -0.1123  0.1036  0.3013
17061TIP3    H172598   4.625   3.020   5.297  0.9872  0.9853 -0.2625
17061TIP3    H272599   4.590   3.139   5.210 -1.4450  0.3971 -0.1434
17062TIP3   OH272600   0.755   4.323  11.128 -0.0094  0.0107 -0.3640
17062TIP3    H172601   0.774   4.258  11.196  0.2662 -1.6610 -1.9783
17062TIP3    H272602   0.662   4.310  11.108 -0.3901  1.2756  0.4196
17063TIP3   OH272603   4.332   4.266   5.741 -0.1662 -0.1425  0.5666
17063TIP3    H172604   4.421   4.261   5.776  0.1793  0.5645 -0.2074
17063TIP3    H272605   4.286   4.323   5.802 -0.3009 -1.1000  1.3866
17064TIP3   OH272606   0.887   4.752  10.154 -0.3452  0.2360  0.0396
17064TIP3    H172607   0.882   4.797  10.239 -0.4782  0.0915  0.1093
17064TIP3    H272608   0.887   4.823  10.090 -0.0793  0.3516  0.1663
17065TIP3   OH272609   5.967   1.199  14.655  0.6978  0.3556 -0.0538
17065TIP3    H172610   5.910   1.126  14.676 -0.0970  0.3361 -2.0019
17065TIP3    H272611   6.024   1.209  14.731  0.0770 -1.5465  0.7130
17066TIP3   OH272612   5.092   5.542   4.235 -0.1148  0.2496 -0.0073
17066TIP3    H172613   5.090   5.538   4.330  0.4676  0.5071  0.0178
17066TIP3    H272614   5.015   5.492   4.207 -0.8482  0.9905  0.6151
17067TIP3   OH272615   5.016   5.989  15.636 -0.0702  0.1106 -0.4302
17067TIP3    H172616   5.013   5.894  15.651  1.5134 -0.0693 -0.9638
17067TIP3    H272617   4.940   6.023  15.682  0.3375 -1.2194  1.3621
17068TIP3   OH272618   5.058   3.505  11.108  0.2250 -0.2880 -0.0742
17068TIP3    H172619   5.040   3.554  11.187  2.4372 -0.0542  0.3500
17068TIP3    H272620   5.029   3.562  11.037 -4.2911 -1.5551  0.4440
17069TIP3   OH272621   6.344   0.662  14.859 -0.0919  0.5561 -0.0178
17069TIP3    H172622   6.381   0.627  14.940 -0.3277 -0.4328 -0.3255
17069TIP3    H272623   6.417   0.662  14.797  0.0122  1.0324  0.0934
17070TIP3   OH272624   6.428   0.532  11.264  0.2689 -0.5848  0.3910
17070TIP3    H172625   6.466   0.448  11.235  1.8278  0.2763 -0.1964
17070TIP3    H272626   6.496   0.596  11.245 -0.3295  0.6398  2.1501
17071TIP3   OH272627   4.328   6.406  11.350 -0.3630  0.0534 -0.5880
17071TIP3    H172628   4.415   6.423  11.385 -0.4349 -0.1541 -0.2957
17071TIP3    H272629   4.340   6.332  11.290 -0.1630  0.6950 -1.3578
17072TIP3   OH272630   5.546   5.226   2.789 -0.5580  0.4698  0.1590
17072TIP3    H172631   5.535   5.283   2.712  0.8725  0.7962  0.1774
17072TIP3    H272632   5.509   5.276   2.861  0.7656  1.4529  0.1897
17073TIP3   OH272633   4.809   2.595  14.015  0.1574  0.1965 -0.3802
17073TIP3    H172634   4.889   2.548  13.990  1.3731  0.9433  1.8708
17073TIP3    H272635   4.745   2.569  13.948  2.3105 -0.2231 -2.4297
17074TIP3   OH272636   0.324   1.873  11.349 -0.0433  0.2406  0.2968
17074TIP3    H172637   0.268   1.915  11.284 -0.8384 -0.0485  0.7745
17074TIP3    H272638   0.302   1.918  11.431 -0.9822 -1.1415  0.8349
17075TIP3   OH272639   2.351   0.838   0.848 -0.7751  0.0387 -0.4320
17075TIP3    H172640   2.441   0.864   0.830 -1.1143  0.5977 -1.3388
17075TIP3    H272641   2.349   0.822   0.943  0.5125 -0.9345 -0.5430
17076TIP3   OH272642   5.748   4.214   5.852  0.0300 -0.7012  0.0217
17076TIP3    H172643   5.691   4.214   5.929  0.4565  0.2097  0.3507
17076TIP3    H272644   5.778   4.304   5.845  0.8279 -1.0101 -0.6005
17077TIP3   OH272645   0.924   3.076  14.092 -0.3446 -0.0061 -0.4793
17077TIP3    H172646   1.003   3.035  14.128 -0.4740 -0.4693 -0.7209
17077TIP3    H272647   0.943   3.170  14.093  0.8528 -0.1978 -2.0505
17078TIP3   OH272648   2.413   3.058   3.522  0.2044 -0.3764  0.3381
17078TIP3    H172649   2.432   3.050   3.616  0.9050 -1.3516  0.1281
17078TIP3    H272650   2.499   3.065   3.481  0.0234 -2.0809 -0.4032
17079TIP3   OH272651   0.435   4.392  12.664 -0.0505 -0.3217  0.4357
17079TIP3    H172652   0.448   4.298  12.678  0.8795 -0.1700  0.6303
17079TIP3    H272653   0.429   4.401  12.569  0.0968 -0.5430  0.4049
17080TIP3   OH272654   3.019   1.850   1.537 -0.1020 -0.2007  0.2662
17080TIP3    H172655   2.993   1.924   1.592 -0.6850 -0.1859 -0.0255
17080TIP3    H272656   2.999   1.772   1.589 -0.4270 -0.1786  0.1785
17081TIP3   OH272657   4.814   4.791   3.351  0.5726  0.0439 -0.3509
17081TIP3    H172658   4.790   4.881   3.331 -1.0707 -0.3306 -0.2525
17081TIP3    H272659   4.773   4.773   3.436  0.7779 -0.8145 -0.4196
17082TIP3   OH272660   5.486   6.562  12.605  0.6935 -0.3770  0.6366
17082TIP3    H172661   5.495   6.656  12.621  1.6033 -0.1383 -1.0352
17082TIP3    H272662   5.568   6.524  12.639  0.7848 -0.4255  0.3611
17083TIP3   OH272663   1.020   0.017  11.041 -0.1773 -0.4926  0.0611
17083TIP3    H172664   0.976   0.020  11.125  0.9675  3.6230  0.7750
17083TIP3    H272665   1.014   0.107  11.008  1.8504 -1.2930 -2.9235
17084TIP3   OH272666   4.367   1.549  15.328  0.0084 -0.0964  0.0571
17084TIP3    H172667   4.384   1.541  15.234  0.0223 -1.2965  0.1469
17084TIP3    H272668   4.442   1.597  15.362 -0.0880  0.5189 -0.5632
17085TIP3   OH272669   4.518   5.769   2.694 -0.2283 -0.1568  0.0366
17085TIP3    H172670   4.594   5.732   2.739  0.7076  0.2421 -1.1744
17085TIP3    H272671   4.509   5.717   2.614  1.0645  2.0859 -1.6676
17086TIP3   OH272672   3.137   6.042   3.056 -0.0726 -0.2019 -0.0238
17086TIP3    H172673   3.147   6.077   2.968 -1.2199 -0.2686 -0.1895
17086TIP3    H272674   3.138   5.947   3.044 -0.0230 -0.2118  0.0587
17087TIP3   OH272675   0.936   3.387   4.083  0.2189 -0.0874 -0.5092
17087TIP3    H172676   0.978   3.473   4.082 -1.0946  0.5711 -1.1815
17087TIP3    H272677   0.975   3.340   4.009  0.0733  0.3627 -0.8734
17088TIP3   OH272678   5.677   2.520   3.567 -0.2439  0.3769 -0.1288
17088TIP3    H172679   5.643   2.458   3.503 -1.4149  1.8618 -1.0282
17088TIP3    H272680   5.756   2.555   3.526  0.6561 -0.7653  0.5624
17089TIP3   OH272681   0.237   4.172  11.246 -0.3604 -0.1499 -0.3736
17089TIP3    H172682   0.145   4.147  11.232  0.1512 -2.4362 -0.0283
17089TIP3    H272683   0.287   4.100  11.208  1.2793  0.6584  0.1810
17090TIP3   OH272684   2.788   6.825  11.068  0.1518  0.6594  0.1288
17090TIP3    H172685   2.800   6.820  11.163  0.0551 -1.4525  0.0861
17090TIP3    H272686   2.695   6.806  11.055  0.5970 -1.3993 -0.4523
17091TIP3   OH272687   1.889   5.405   3.236 -0.2408 -0.0900  0.1928
17091TIP3    H172688   1.878   5.354   3.156  1.4316  0.2889 -0.3085
17091TIP3    H272689   1.977   5.385   3.266  0.1295  1.7680  0.4944
17092TIP3   OH272690   6.393   1.153   5.440 -0.1950 -0.6510  0.9823
17092TIP3    H172691   6.346   1.071   5.430 -1.1042  0.0551 -1.0797
17092TIP3    H272692   6.486   1.127   5.440 -0.4158 -1.6194 -0.9390
17093TIP3   OH272693   5.560   3.177  10.981 -0.7216 -0.1713 -0.0585
17093TIP3    H172694   5.564   3.182  11.077 -1.0004 -0.0876 -0.0496
17093TIP3    H272695   5.467   3.162  10.962 -1.0373  1.8913 -0.4041
17094TIP3   OH272696   2.077   6.421   2.812 -0.8133  0.3328  0.0021
17094TIP3    H172697   2.168   6.443   2.834  0.2810 -1.3488 -2.4602
17094TIP3    H272698   2.033   6.506   2.807  1.0273  1.3178 -0.3909
17095TIP3   OH272699   2.995   1.308  16.694 -0.3804  0.5375 -0.0385
17095TIP3    H172700   3.064   1.306  16.761 -0.3679  0.0542 -0.0637
17095TIP3    H272701   3.041   1.293  16.612  0.1803  4.5972 -0.6874
17096TIP3   OH272702   2.811   5.708  11.411 -0.6843  0.2853  0.4711
17096TIP3    H172703   2.787   5.775  11.475 -1.4306  0.3591  0.1224
17096TIP3    H272704   2.745   5.716  11.342 -0.2449 -0.2027 -0.0109
17097TIP3   OH272705   1.976   5.630  16.180  0.3326  0.0188 -0.9398
17097TIP3    H172706   1.982   5.559  16.244 -0.4782  0.0740 -0.7970
17097TIP3    H272707   2.021   5.596  16.103  1.1358 -0.1259 -0.4142
17098TIP3   OH272708   3.241   4.386  16.617  0.5246 -0.1778 -0.1084
17098TIP3    H172709   3.205   4.302  16.587 -0.7154  0.8653 -1.7036
17098TIP3    H272710   3.170   4.426  16.666  0.1670  0.9948 -1.5107
17099TIP3   OH272711   4.268   1.072  13.419  0.5700 -0.0336  0.4425
17099TIP3    H172712   4.327   1.095  13.347 -2.9122  0.7464 -2.4532
17099TIP3    H272713   4.240   1.156  13.455 -1.0909 -0.2018 -0.3653
17100TIP3   OH272714   4.745   4.154  12.167  0.5735  0.5853  0.1936
17100TIP3    H172715   4.693   4.076  12.147  0.5627  0.5125  0.5046
17100TIP3    H272716   4.722   4.176  12.257 -1.4454  2.5059 -0.7143
17101TIP3   OH272717   3.003   1.635   1.292  0.1850  0.0858 -0.3451
17101TIP3    H172718   2.994   1.699   1.221 -1.1159 -0.7163 -0.9396
17101TIP3    H272719   2.935   1.660   1.355  0.5245  0.0482  0.0419
17102TIP3   OH272720   5.080   0.050   1.770 -0.4859  0.2529 -0.2343
17102TIP3    H172721   5.125   0.129   1.739 -1.0375  0.5488 -0.2964
17102TIP3    H272722   5.105  -0.018   1.707  0.1183  0.3330 -0.0899
17103TIP3   OH272723   4.615   2.106  11.034 -0.0151  0.6860 -1.0263
17103TIP3    H172724   4.605   2.123  10.940 -1.4612 -0.4959 -1.1296
17103TIP3    H272725   4.558   2.171  11.076 -1.7334 -0.6491 -1.1688
17104TIP3   OH272726   1.391   4.811  15.548  0.8888  0.1982 -0.1882
17104TIP3    H172727   1.408   4.868  15.623 -0.9335  0.5085  0.0212
17104TIP3    H272728   1.338   4.864  15.489 -1.2121 -1.3470  0.2016
17105TIP3   OH272729   3.140   5.125   4.881 -0.3815  0.7595 -0.1081
17105TIP3    H172730   3.144   5.057   4.949  3.2447 -0.5819 -1.4304
17105TIP3    H272731   3.047   5.131   4.859 -1.0954 -2.4720  1.3780
17106TIP3   OH272732   1.902   2.782   3.809 -0.3196 -0.5302  0.0283
17106TIP3    H172733   1.985   2.829   3.801 -0.9329  0.4388 -0.7975
17106TIP3    H272734   1.900   2.752   3.900  0.9362 -0.5768  0.0568
17107TIP3   OH272735   4.277   1.020   5.178 -0.1583  0.1010  0.1120
17107TIP3    H172736   4.183   1.030   5.192 -0.2280  0.1526 -0.3602
17107TIP3    H272737   4.295   0.930   5.203 -0.0651  0.5090  1.5770
17108TIP3   OH272738   5.620   6.012   3.781  0.0383 -0.0431 -0.3978
17108TIP3    H172739   5.676   6.070   3.834  1.9354 -2.2507  0.1663
17108TIP3    H272740   5.642   6.035   3.690 -0.5069  1.2459 -0.2262
17109TIP3   OH272741   4.020   2.136  13.742 -0.3491 -0.3044 -0.4965
17109TIP3    H172742   3.970   2.054  13.747 -0.0412 -0.4920 -0.5135
17109TIP3    H272743   4.059   2.135  13.654  1.5024 -1.2170  0.2899
17110TIP3   OH272744   1.310   1.398   1.502 -0.5567 -0.5065 -0.0186
17110TIP3    H172745   1.288   1.472   1.445  0.5049 -1.2040 -1.4011
17110TIP3    H272746   1.248   1.404   1.574 -2.5986 -0.1328 -1.7151
17111TIP3   OH272747   5.417   2.394   1.992  0.0312  0.4008  0.0447
17111TIP3    H172748   5.361   2.467   2.018 -1.4141 -0.5225 -0.3643
17111TIP3    H272749   5.471   2.430   1.921  1.0705  1.7198  1.4223
17112TIP3   OH272750   2.863   0.373  11.463 -0.1136  0.0445  0.4516
17112TIP3    H172751   2.768   0.382  11.456 -0.3127 -1.3872  1.0881
17112TIP3    H272752   2.886   0.423  11.541 -0.0469  2.0957 -0.8167
17113TIP3   OH272753   5.226   3.994  14.024 -1.0135 -0.0669 -0.3387
17113TIP3    H172754   5.211   3.902  14.003 -1.5840  0.1597 -0.9347
17113TIP3    H272755   5.199   4.042  13.946  0.7958  0.5148 -0.6608
17114TIP3   OH272756   5.832   6.522   4.414 -0.2302  0.1662  0.1253
17114TIP3    H172757   5.885   6.471   4.477  1.6796 -0.2612 -1.7048
17114TIP3    H272758   5.742   6.514   4.446  0.4208 -1.6808  1.6842
17115TIP3   OH272759   0.301   6.042   4.508 -0.0188  0.1384 -0.1614
17115TIP3    H172760   0.282   5.960   4.463 -1.2470 -0.0237  0.6003
17115TIP3    H272761   0.392   6.061   4.487  0.2082 -1.2830 -0.5483
17116TIP3   OH272762   0.025   4.866   5.639  0.8238 -0.0960 -0.5864
17116TIP3    H172763   0.000   4.776   5.617  0.1767  0.3077 -1.5654
17116TIP3    H272764  -0.033   4.921   5.586  0.9471  0.9066  0.2885
17117TIP3   OH272765   5.337   6.284  13.781 -0.2604  0.0527 -0.2539
17117TIP3    H172766   5.324   6.342  13.857  0.3207  0.7527 -0.6722
17117TIP3    H272767   5.431   6.291  13.761  0.0442 -1.8384  0.3021
17118TIP3   OH272768   6.067   5.583   2.162  0.1203  0.4642  0.7380
17118TIP3    H172769   6.045   5.540   2.245  0.9028 -0.6519  0.3894
17118TIP3    H272770   5.999   5.553   2.101  0.4228  0.0627  0.5989
17119TIP3   OH272771   6.718   2.328   3.907  0.2745  0.5459 -0.6194
17119TIP3    H172772   6.678   2.390   3.968  1.4035  0.1411  0.5709
17119TIP3    H272773   6.660   2.252   3.909  0.2649  0.5646 -0.1024
17120TIP3   OH272774   3.262   5.859   3.645 -0.0383  0.5362 -0.2366
17120TIP3    H172775   3.173   5.879   3.672 -0.1172  0.0005 -0.0863
17120TIP3    H272776   3.270   5.764   3.658  0.6897  0.6452  0.1717
17121TIP3   OH272777   5.623   0.987   4.221  0.3766  0.1750 -0.1335
17121TIP3    H172778   5.573   0.953   4.295  1.1775 -0.6197  0.0575
17121TIP3    H272779   5.610   1.082   4.224  0.0296  0.1030  0.7458
17122TIP3   OH272780   4.919   4.239  13.781 -0.5313 -0.1973  0.0259
17122TIP3    H172781   4.967   4.253  13.863 -1.8794 -1.8770  1.1580
17122TIP3    H272782   4.968   4.169  13.737 -1.7617 -1.8551  1.1449
17123TIP3   OH272783   5.173   0.267   3.249  0.4733 -0.1446 -0.4947
17123TIP3    H172784   5.161   0.321   3.327 -0.9332 -1.0455 -0.0391
17123TIP3    H272785   5.090   0.218   3.241  1.0777 -1.0056 -1.8120
17124TIP3   OH272786   5.653   3.002   0.745  0.4782 -0.0849 -0.3933
17124TIP3    H172787   5.670   2.970   0.657 -0.3443 -0.7315 -0.3228
17124TIP3    H272788   5.641   3.096   0.735  3.4885  0.3797 -0.5286
17125TIP3   OH272789   0.518   0.868   4.575 -0.0324  0.2443  0.2945
17125TIP3    H172790   0.475   0.821   4.503  2.2119  0.8389 -1.5212
17125TIP3    H272791   0.571   0.802   4.619 -1.0979 -0.0281  1.2546
17126TIP3   OH272792   2.846   3.152  11.874  0.4113  0.3145 -0.0668
17126TIP3    H172793   2.833   3.243  11.848 -2.0326 -0.0941 -0.5941
17126TIP3    H272794   2.793   3.102  11.811  0.1395 -1.3099  1.3740
17127TIP3   OH272795   6.295   4.576   3.938  0.1268  0.1355  0.5071
17127TIP3    H172796   6.335   4.641   3.881 -1.0371 -0.3919 -0.9596
17127TIP3    H272797   6.316   4.492   3.898  2.4072 -0.5674  2.8753
17128TIP3   OH272798   1.617   2.788   3.518 -0.1204 -0.4692 -0.0195
17128TIP3    H172799   1.529   2.821   3.532 -0.4000 -1.6952  1.3917
17128TIP3    H272800   1.631   2.795   3.424 -1.3424  0.6474 -0.1366
17129TIP3   OH272801   6.001   3.493  16.600  0.1495  0.2489 -0.1466
17129TIP3    H172802   5.950   3.533  16.670 -0.1990 -2.0219  0.9970
17129TIP3    H272803   6.090   3.488  16.635  0.7344  2.0387 -1.2120
17130TIP3   OH272804   6.532   5.103   2.099  0.0311  0.0900 -0.1771
17130TIP3    H172805   6.524   5.129   2.007 -0.6892 -0.0125 -0.1480
17130TIP3    H272806   6.627   5.099   2.114  0.1730 -0.6150 -1.1181
17131TIP3   OH272807   5.110   6.266  11.210 -0.0209  0.3334  0.1013
17131TIP3    H172808   5.088   6.200  11.145  0.6899  0.0322  0.1555
17131TIP3    H272809   5.025   6.300  11.240 -0.3923 -0.5711  0.0985
17132TIP3   OH272810   5.528   2.707   4.121 -0.7255 -0.1481  0.0495
17132TIP3    H172811   5.511   2.723   4.214 -2.5678 -1.4031 -0.0265
17132TIP3    H272812   5.493   2.619   4.105  0.7298 -0.4854 -1.5607
17133TIP3   OH272813   6.555   4.770  14.723  0.3539  0.1450 -0.5191
17133TIP3    H172814   6.645   4.748  14.698 -0.1723 -1.2016 -1.3243
17133TIP3    H272815   6.513   4.797  14.642 -0.0186  0.6085 -0.1763
17134TIP3   OH272816   6.697   5.921  10.731  0.2328  0.7234  0.0884
17134TIP3    H172817   6.615   5.969  10.744  0.0984  1.2714 -2.2737
17134TIP3    H272818   6.733   5.957  10.650  2.5762  0.1249  0.7944
17135TIP3   OH272819   6.013   5.826   1.641  0.3049  0.2465  0.2717
17135TIP3    H172820   6.065   5.824   1.721  0.0297  2.0368  0.5367
17135TIP3    H272821   5.926   5.854   1.670 -0.4116 -1.1543 -0.3885
17136TIP3   OH272822   5.674   2.739   5.500 -0.5856 -0.5476 -0.1040
17136TIP3    H172823   5.657   2.821   5.548 -0.8087  0.7286 -2.2522
17136TIP3    H272824   5.765   2.718   5.522  0.1252  1.3694 -0.9892
17137TIP3   OH272825   2.597   6.621  15.576 -0.1871 -0.4885 -0.1444
17137TIP3    H172826   2.644   6.636  15.494  1.2091 -1.2687  0.4695
17137TIP3    H272827   2.530   6.556  15.555 -1.3493  0.9522 -1.1372
17138TIP3   OH272828   0.019   1.843  14.871  0.4546 -0.3824  0.2198
17138TIP3    H172829  -0.006   1.751  14.869  1.7426 -0.7498 -0.3478
17138TIP3    H272830   0.086   1.848  14.940 -0.1588  0.2866  0.7789
17139TIP3   OH272831   4.209   1.645   4.258 -0.3305  0.0244  0.1550
17139TIP3    H172832   4.185   1.736   4.278  0.2829 -0.1827  2.0331
17139TIP3    H272833   4.204   1.600   4.342 -0.2880 -1.6218 -0.6912
17140TIP3   OH272834   1.174   5.554   3.976 -0.1166 -0.2667 -0.5529
17140TIP3    H172835   1.251   5.557   3.918  0.0389  1.2291 -0.2997
17140TIP3    H272836   1.111   5.613   3.935 -0.2004  0.4098  0.5202
17141TIP3   OH272837   0.940   0.522  11.032 -0.1729  0.2867 -0.2966
17141TIP3    H172838   0.963   0.612  11.007 -0.4852  0.1400 -1.1635
17141TIP3    H272839   0.870   0.498  10.971 -0.5743 -0.3024  0.3837
17142TIP3   OH272840   3.244   5.997  12.467 -0.4147  0.4694 -0.4907
17142TIP3    H172841   3.247   5.923  12.527  1.0037  0.5481 -0.4428
17142TIP3    H272842   3.156   5.992  12.428 -0.5459 -0.8954 -0.0839
17143TIP3   OH272843   4.264   4.198   2.362  0.1057  0.4538 -0.2299
17143TIP3    H172844   4.287   4.191   2.270  1.5693 -0.8950  0.1650
17143TIP3    H272845   4.297   4.116   2.400 -0.8220  0.8015  1.4115
17144TIP3   OH272846   1.296   0.520  15.123 -0.1067 -0.3450  0.4080
17144TIP3    H172847   1.221   0.488  15.174 -0.9356  0.5827 -0.2001
17144TIP3    H272848   1.364   0.454  15.138 -0.2749 -0.0880  2.7676
17145TIP3   OH272849   1.187   2.974  13.914 -0.2756  0.2810 -0.5238
17145TIP3    H172850   1.184   2.987  14.009  0.9588  3.6031 -0.8135
17145TIP3    H272851   1.097   2.955  13.889 -0.8000  0.3932  1.1900
17146TIP3   OH272852   2.273   6.007  15.421 -0.0242  0.3348  0.0839
17146TIP3    H172853   2.340   6.051  15.369 -1.3558  0.3980 -1.7052
17146TIP3    H272854   2.267   6.058  15.501  1.4357  0.8331 -0.0909
17147TIP3   OH272855   0.218   1.448  12.116  0.3923 -0.2328  0.2834
17147TIP3    H172856   0.152   1.486  12.058  0.9711  0.0194 -0.2182
17147TIP3    H272857   0.176   1.447  12.202 -0.3977 -0.4151 -0.0966
17148TIP3   OH272858   3.607   2.541  13.849  0.1602  0.4521 -0.2841
17148TIP3    H172859   3.580   2.492  13.927 -0.6011  0.9893 -0.2008
17148TIP3    H272860   3.607   2.633  13.877  2.5213  0.4738 -0.1614
17149TIP3   OH272861   0.842   5.897   1.864 -0.3861  0.3836 -0.1579
17149TIP3    H172862   0.901   5.827   1.833 -1.6571  0.1038 -2.0959
17149TIP3    H272863   0.889   5.936   1.938  1.7263 -0.5585 -0.9081
17150TIP3   OH272864   1.791   0.777  13.506 -0.5018 -0.0537  0.0988
17150TIP3    H172865   1.768   0.771  13.413  1.4391 -0.3531 -0.4099
17150TIP3    H272866   1.798   0.871  13.523  1.3326 -0.0132 -0.6874
17151TIP3   OH272867   2.509   2.945   2.493  0.6087 -0.2030 -0.0460
17151TIP3    H172868   2.466   3.015   2.542  0.4542 -0.3128 -0.0266
17151TIP3    H272869   2.595   2.936   2.535  1.9753  2.2041 -2.0355
17152TIP3   OH272870   6.616   3.295  16.308 -0.1734  0.2522  0.5435
17152TIP3    H172871   6.691   3.331  16.356  0.1658  0.2550  0.0212
17152TIP3    H272872   6.555   3.368  16.300 -0.6687  0.0036  1.8132
17153TIP3   OH272873   3.701   3.904   5.352  0.2104 -0.1694  0.1794
17153TIP3    H172874   3.725   3.997   5.355  0.1542 -0.0681 -1.4943
17153TIP3    H272875   3.697   3.884   5.258  0.7672 -2.0104  0.5240
17154TIP3   OH272876   1.601   2.528   5.654 -0.6677  0.7606  0.3685
17154TIP3    H172877   1.517   2.481   5.650 -0.9221  0.8869  2.5137
17154TIP3    H272878   1.586   2.607   5.602 -2.3255  1.3327  1.5967
17155TIP3   OH272879   3.216   0.620  13.250 -0.0188  0.1999 -0.3234
17155TIP3    H172880   3.252   0.537  13.282 -0.6633  0.0920  0.1472
17155TIP3    H272881   3.194   0.669  13.330  0.5004  0.8913 -0.5950
17156TIP3   OH272882   6.088   5.948  13.464  0.2323  0.0119  0.0062
17156TIP3    H172883   6.100   5.859  13.429 -0.2825  0.4942 -1.4734
17156TIP3    H272884   6.165   5.962  13.519 -0.2016 -1.7326  1.1500
17157TIP3   OH272885   5.279   6.031  12.417 -0.4022 -0.4516 -0.2902
17157TIP3    H172886   5.285   6.010  12.324  1.3145 -2.1720  0.1564
17157TIP3    H272887   5.274   5.946  12.461 -0.2631  0.3004  1.2491
17158TIP3   OH272888   0.008   4.173   6.235 -0.1628 -0.1253 -0.0441
17158TIP3    H172889  -0.088   4.165   6.239 -0.1332 -0.4939 -0.0659
17158TIP3    H272890   0.039   4.084   6.224  0.1573  0.0514 -0.6514
17159TIP3   OH272891   2.994   0.434  14.785  0.6389 -0.1932  0.3158
17159TIP3    H172892   3.072   0.484  14.762 -0.9374  1.4749 -1.8736
17159TIP3    H272893   2.923   0.478  14.738 -1.8127 -1.0259  2.9368
17160TIP3   OH272894   0.886   6.282  13.293  0.3566  0.0585 -0.1602
17160TIP3    H172895   0.872   6.218  13.363  1.6982 -0.6315 -0.4794
17160TIP3    H272896   0.921   6.231  13.220  1.0521  1.0906 -0.5754
17161TIP3   OH272897   5.452   5.072   1.605 -0.0397  0.2850  0.1616
17161TIP3    H172898   5.468   5.010   1.534 -1.3728 -1.0006  0.9487
17161TIP3    H272899   5.474   5.157   1.567  1.1417 -0.5728 -1.1635
17162TIP3   OH272900   1.491   3.149  15.386 -0.4909 -0.2947 -0.3307
17162TIP3    H172901   1.446   3.163  15.302 -1.8487  0.0293  0.4128
17162TIP3    H272902   1.450   3.213  15.445  2.1656  1.2310  0.0032
17163TIP3   OH272903   0.917   0.546   9.673  0.5323 -0.5120 -0.2347
17163TIP3    H172904   0.833   0.526   9.632  0.7125  0.6061 -1.2032
17163TIP3    H272905   0.916   0.641   9.684  1.2455 -0.6018  0.7268
17164TIP3   OH272906   6.106   5.826   5.357  0.5592 -0.2905  0.5098
17164TIP3    H172907   6.143   5.782   5.281 -0.7907  0.1847 -0.4529
17164TIP3    H272908   6.158   5.906   5.366  0.5162 -0.1840 -0.1239
17165TIP3   OH272909   3.767   2.979  11.615  0.4389 -0.1497  0.1056
17165TIP3    H172910   3.681   3.004  11.649  0.2623 -0.4517 -0.1161
17165TIP3    H272911   3.775   3.028  11.533  1.0954  1.0051  0.8250
17166TIP3   OH272912   5.906   2.403   4.387  0.2189  0.1128 -0.4223
17166TIP3    H172913   5.989   2.359   4.368  0.7936  0.9854  0.0243
17166TIP3    H272914   5.894   2.465   4.315 -1.0603 -1.3633 -1.5611
17167TIP3   OH272915   1.188   1.737   0.541 -0.6566 -0.0300  0.0536
17167TIP3    H172916   1.157   1.827   0.547 -1.6073 -0.2592 -1.0352
17167TIP3    H272917   1.108   1.686   0.525  0.0501 -0.8822 -0.8581
17168TIP3   OH272918   3.757   0.734  16.391 -0.5604 -0.4121 -0.1707
17168TIP3    H172919   3.708   0.802  16.344 -1.8922 -0.1769  1.4343
17168TIP3    H272920   3.723   0.652  16.355 -1.7211 -0.2396  0.4551
17169TIP3   OH272921   3.586   6.327   3.909 -0.6709 -0.6700  0.1499
17169TIP3    H172922   3.545   6.270   3.974  0.0208 -0.1480  1.0719
17169TIP3    H272923   3.572   6.416   3.943  3.0652 -0.4885  1.7826
17170TIP3   OH272924   3.234   0.112  12.802  0.0086 -0.0076  0.4530
17170TIP3    H172925   3.195   0.174  12.865  1.2399 -0.2925  1.5457
17170TIP3    H272926   3.166   0.099  12.736 -1.1490  0.7082  1.4565
17171TIP3   OH272927   2.508   3.917  15.484  0.3068  0.3568  0.2029
17171TIP3    H172928   2.436   3.916  15.420 -0.6871 -1.1514  1.2824
17171TIP3    H272929   2.477   3.977  15.552  0.1381 -0.1619  0.5858
17172TIP3   OH272930   2.618   2.616   2.321 -0.2119  0.0036 -0.6010
17172TIP3    H172931   2.552   2.586   2.384  0.4501  0.4505  0.3313
17172TIP3    H272932   2.586   2.701   2.292  0.2615  0.5177  0.3456
17173TIP3   OH272933   5.048   1.986  14.042 -0.1352 -0.7775  0.1135
17173TIP3    H172934   4.986   1.961  13.974 -1.3648  2.5740 -0.2000
17173TIP3    H272935   5.134   1.973  14.003 -0.7989  0.4341 -1.8928
17174TIP3   OH272936   1.110   6.100  15.116  0.2412  0.6420  0.1527
17174TIP3    H172937   1.188   6.114  15.170 -0.4028  1.5300  0.8736
17174TIP3    H272938   1.038   6.096  15.178 -0.2555 -0.6776 -0.4609
17175TIP3   OH272939   4.327   6.345   0.381  0.3206  0.3136 -0.4224
17175TIP3    H172940   4.266   6.413   0.411  0.2335 -0.0681  0.2724
17175TIP3    H272941   4.410   6.390   0.371  0.9938  0.0018  2.7603
17176TIP3   OH272942   0.942   3.705  12.273  0.4048 -0.1395  0.0798
17176TIP3    H172943   1.000   3.637  12.238  1.8648  0.4677  1.2386
17176TIP3    H272944   0.862   3.657  12.299  1.1088 -1.3016  0.1782
17177TIP3   OH272945   3.423   2.645   3.427 -0.0069  0.0756  0.1720
17177TIP3    H172946   3.336   2.650   3.467 -0.1127 -1.1163  0.1410
17177TIP3    H272947   3.407   2.603   3.342  0.0291  3.5196 -1.7365
17178TIP3   OH272948   3.411   6.394   0.411 -0.2006  0.1663 -0.2600
17178TIP3    H172949   3.435   6.415   0.502  0.2838  0.5629 -0.4722
17178TIP3    H272950   3.451   6.308   0.395 -1.4170 -0.5285  0.3210
17179TIP3   OH272951   1.582   4.198   4.317 -0.1157  0.1518  0.0408
17179TIP3    H172952   1.529   4.234   4.246  1.1069  0.9388 -0.5067
17179TIP3    H272953   1.600   4.108   4.290 -1.7443 -0.3706  0.5867
17180TIP3   OH272954   5.582   4.791   4.186 -0.8084  0.0711  0.1133
17180TIP3    H172955   5.617   4.875   4.216 -0.7158  0.2895 -0.5712
17180TIP3    H272956   5.570   4.740   4.265 -0.6927  0.6690  0.5235
17181TIP3   OH272957   6.778   3.153  16.954 -0.0436 -0.6722  0.1571
17181TIP3    H172958   6.856   3.121  16.999  0.2211 -0.0671  0.1361
17181TIP3    H272959   6.710   3.156  17.022  0.8602  2.1889  1.0866
17182TIP3   OH272960   4.545   1.296   6.452  0.3513 -0.0379 -0.0023
17182TIP3    H172961   4.634   1.301   6.417  0.2554  0.0955 -0.2268
17182TIP3    H272962   4.550   1.227   6.519  0.6032 -0.0910 -0.0734
17183TIP3   OH272963   5.523   6.065  11.011  0.2585  0.6537 -0.5433
17183TIP3    H172964   5.455   6.004  10.984 -0.0598  0.8056 -0.1076
17183TIP3    H272965   5.602   6.012  11.017  0.2099  0.5030 -1.1898
17184TIP3   OH272966   3.161   1.426   5.141 -0.3185 -0.4490  0.2393
17184TIP3    H172967   3.140   1.479   5.218 -1.2330 -0.2183 -0.1543
17184TIP3    H272968   3.204   1.349   5.176  1.2360  0.6368  0.8082
17185TIP3   OH272969   3.172   6.714  16.456  0.1982 -0.2904 -0.0149
17185TIP3    H172970   3.232   6.686  16.386  1.8409  0.6402  0.9340
17185TIP3    H272971   3.136   6.797  16.424 -0.6440 -0.8680 -0.6043
17186TIP3   OH272972   1.240   3.643  10.963 -0.6363 -0.5748 -0.2491
17186TIP3    H172973   1.201   3.667  10.879 -0.9619 -2.2817 -0.6235
17186TIP3    H272974   1.207   3.709  11.025  1.3767  2.0687 -1.7890
17187TIP3   OH272975   4.112   3.659   4.439  0.1269  0.0542 -0.0954
17187TIP3    H172976   4.205   3.637   4.442  0.3405  0.9665  0.0477
17187TIP3    H272977   4.097   3.689   4.349 -0.1479 -0.5548 -0.2633
17188TIP3   OH272978   3.114   4.567  14.094 -0.2776 -0.6678 -0.6848
17188TIP3    H172979   3.093   4.657  14.120 -0.3505 -0.4203 -1.5743
17188TIP3    H272980   3.104   4.567  13.999 -0.4833 -1.6773 -0.6693
17189TIP3   OH272981   5.531   3.704  12.950  0.1579  0.2683  0.3941
17189TIP3    H172982   5.457   3.741  12.999  1.0040  0.3576  1.6792
17189TIP3    H272983   5.517   3.733  12.860  0.4924  3.3903  1.2003
17190TIP3   OH272984   1.546   5.863   4.936 -0.3953  0.0270  0.4024
17190TIP3    H172985   1.538   5.799   4.865  1.9751  0.2120 -0.1267
17190TIP3    H272986   1.585   5.814   5.008  0.8300  0.6789  0.2134
17191TIP3   OH272987   5.720   5.089   1.716 -0.0690  0.5048 -0.1571
17191TIP3    H172988   5.751   5.072   1.627  0.4102 -2.3198  0.4491
17191TIP3    H272989   5.634   5.046   1.719 -0.2325  0.8755  0.6451
17192TIP3   OH272990   0.919   4.822   0.256  0.0981 -0.5998 -0.4179
17192TIP3    H172991   0.957   4.799   0.341  1.7444 -1.5246 -1.3796
17192TIP3    H272992   0.949   4.912   0.241  1.0792 -0.9657 -0.7016
17193TIP3   OH272993   0.163   0.624  16.662  0.2821 -0.6092  0.2797
17193TIP3    H172994   0.186   0.700  16.716  0.2241 -1.5565  1.6939
17193TIP3    H272995   0.228   0.624  16.592  1.7968 -0.6076  1.6148
17194TIP3   OH272996   1.168   3.041   4.432 -0.0456 -0.0490 -0.1157
17194TIP3    H172997   1.104   2.985   4.477  0.9195 -2.5870 -1.7243
17194TIP3    H272998   1.116   3.115   4.401 -1.6016 -0.5351  1.1529
17195TIP3   OH272999   5.765   1.278   4.903 -0.1807  0.1232  0.4447
17195TIP3    H173000   5.683   1.229   4.908  0.3282 -0.7562  0.2896
17195TIP3    H273001   5.812   1.254   4.982  0.7215 -0.8381 -0.3570
17196TIP3   OH273002   4.543   6.137   1.658  0.0490 -0.8914 -0.4862
17196TIP3    H173003   4.450   6.130   1.634 -0.8100  2.4223  1.2898
17196TIP3    H273004   4.542   6.159   1.751  2.5854 -0.4067 -0.5204
17197TIP3   OH273005   2.361   5.804   3.534 -0.0741 -0.7741  0.2763
17197TIP3    H173006   2.386   5.713   3.520 -2.0021 -1.1474 -1.1606
17197TIP3    H273007   2.278   5.799   3.581 -1.5833  0.1023 -2.1329
17198TIP3   OH273008   6.280   4.344  16.902 -0.1142 -0.2433  0.9694
17198TIP3    H173009   6.317   4.425  16.866 -0.2151 -0.2386  0.8758
17198TIP3    H273010   6.314   4.340  16.991  0.3333 -0.3790  0.7980
17199TIP3   OH273011   4.594   5.324  15.754  0.1605 -0.3056  0.3677
17199TIP3    H173012   4.675   5.279  15.731  0.2194 -0.2197  0.4083
17199TIP3    H273013   4.537   5.312  15.678  0.5290  0.3904 -0.0200
17200TIP3   OH273014   5.861   2.863   1.724 -0.9892 -0.1151  0.3192
17200TIP3    H173015   5.890   2.785   1.676  0.7125  0.1438  0.8685
17200TIP3    H273016   5.774   2.883   1.687 -0.1172 -0.3899 -2.0545
17201TIP3   OH273017   1.582   1.213   2.787  0.3043 -0.1905  0.2926
17201TIP3    H173018   1.628   1.186   2.866 -1.7033 -3.0104  0.6372
17201TIP3    H273019   1.542   1.297   2.810  0.6737 -0.4226  1.8870
17202TIP3   OH273020   6.410   0.502  14.021 -0.6469  0.2947  0.1552
17202TIP3    H173021   6.483   0.495  13.959 -0.9840  1.7379 -0.4502
17202TIP3    H273022   6.447   0.474  14.105 -0.0367 -1.1910 -0.5745
17203TIP3   OH273023   0.026   4.244  11.733  0.6299 -0.0089 -0.3736
17203TIP3    H173024   0.081   4.191  11.676  0.0842 -0.8811 -0.1091
17203TIP3    H273025   0.086   4.282  11.797  0.9330 -0.9527 -0.0884
17204TIP3   OH273026   6.551   6.668  12.355  0.2214 -0.3063  0.3705
17204TIP3    H173027   6.613   6.617  12.408 -1.3640 -2.9626 -0.1787
17204TIP3    H273028   6.601   6.746  12.330  3.6308 -2.5380 -0.5536
17205TIP3   OH273029   6.716   1.540  14.260  0.2705  0.3943  0.3244
17205TIP3    H173030   6.706   1.485  14.336 -0.6824 -0.3571 -0.3274
17205TIP3    H273031   6.802   1.516  14.224  0.1044 -0.2563  0.3591
17206TIP3   OH273032   0.384   2.233  12.938  0.4045  0.3570 -0.2931
17206TIP3    H173033   0.422   2.318  12.958 -0.1245  0.3397  0.8489
17206TIP3    H273034   0.431   2.171  12.993  0.8958 -0.1309 -1.2318
17207TIP3   OH273035   4.408   3.176  16.646 -0.6089  0.1749  0.0862
17207TIP3    H173036   4.387   3.121  16.571  0.8328  0.0118 -0.2282
17207TIP3    H273037   4.382   3.125  16.722  0.0261 -0.6345 -0.2323
17208TIP3   OH273038   4.967   5.214  11.870 -0.2832  1.0197  0.4567
17208TIP3    H173039   4.874   5.225  11.852 -0.3618 -0.6574 -0.3695
17208TIP3    H273040   4.974   5.211  11.965 -1.0020  1.6733  0.5302
17209TIP3   OH273041   3.205   1.958  10.462 -0.0909 -0.3853  0.4462
17209TIP3    H173042   3.263   1.889  10.495  0.7634  0.0549 -0.1030
17209TIP3    H273043   3.120   1.916  10.453  0.7663 -1.8278 -1.4128
17210TIP3   OH273044   5.920   4.303  13.961 -0.5607  0.3407 -0.5655
17210TIP3    H173045   6.012   4.287  13.985 -0.8235  1.0914  1.0730
17210TIP3    H273046   5.872   4.232  14.002 -0.8299  0.5804 -0.4639
17211TIP3   OH273047   0.164   4.392  15.097  0.0738 -0.8305  0.4175
17211TIP3    H173048   0.079   4.374  15.137 -0.0557 -1.4661 -0.1226
17211TIP3    H273049   0.211   4.309  15.102  0.2402 -0.7838 -0.2892
17212TIP3   OH273050   4.591   6.279   0.187 -0.0228 -0.2318  0.6393
17212TIP3    H173051   4.642   6.320   0.117  0.8664  1.0601  1.9911
17212TIP3    H273052   4.638   6.198   0.207  0.5220  0.0948  0.6988
17213TIP3   OH273053   6.617   4.004  12.453 -0.4542 -0.2470  0.2026
17213TIP3    H173054   6.552   4.028  12.388 -2.0552 -2.2669  0.9417
17213TIP3    H273055   6.701   4.016  12.409 -1.4533 -1.5521 -2.2925
17214TIP3   OH273056   3.909   4.994  14.264 -1.0367  0.9621 -0.1320
17214TIP3    H173057   3.909   4.952  14.178 -0.4009  0.9845 -0.1470
17214TIP3    H273058   4.002   5.007  14.284 -1.0908 -0.5046  1.2558
17215TIP3   OH273059   5.368   2.682   1.415 -0.4813  0.0673  0.2353
17215TIP3    H173060   5.439   2.741   1.390 -0.1735 -0.4101 -0.0225
17215TIP3    H273061   5.410   2.617   1.471 -0.9293  0.4196  0.9976
17216TIP3   OH273062   3.633   6.662  16.497 -0.4893  0.3486 -0.7326
17216TIP3    H173063   3.660   6.738  16.446 -0.3228  0.4702 -0.4633
17216TIP3    H273064   3.574   6.697  16.564  1.8659  0.7120  1.2745
17217TIP3   OH273065   3.222   5.182  16.185  0.7071 -0.8133 -0.2797
17217TIP3    H173066   3.303   5.138  16.210  1.2861  0.8763  1.0094
17217TIP3    H273067   3.251   5.263  16.143 -0.3151 -0.5363 -0.4733
17218TIP3   OH273068   6.438   2.230  15.696 -0.6145 -0.2607 -0.5714
17218TIP3    H173069   6.412   2.138  15.691  1.9570 -1.0139 -2.4025
17218TIP3    H273070   6.427   2.264  15.607  4.1119 -0.7136 -1.6265
17219TIP3   OH273071   0.913   6.404   5.536  0.7250 -0.3681  0.4385
17219TIP3    H173072   0.909   6.352   5.616 -1.8396  1.7400  1.8586
17219TIP3    H273073   0.838   6.374   5.484  0.1996  0.7148  0.5388
17220TIP3   OH273074   3.858   1.705   1.471 -0.1822  0.7344  0.3324
17220TIP3    H173075   3.899   1.772   1.527  1.8676  1.2268 -1.5831
17220TIP3    H273076   3.804   1.755   1.410  1.3506  0.7492 -1.1009
17221TIP3   OH273077   3.965   6.247  10.747  0.2681  0.3275 -0.0494
17221TIP3    H173078   4.030   6.307  10.783  1.0128  0.1848 -1.1277
17221TIP3    H273079   3.887   6.301  10.735  1.2345  1.3985 -1.9915
17222TIP3   OH273080   4.107   5.628  15.462 -0.2019 -0.1267 -0.0821
17222TIP3    H173081   4.074   5.706  15.508 -3.4894 -0.5484 -1.3997
17222TIP3    H273082   4.070   5.554  15.511  0.4307 -0.7446 -0.5158
17223TIP3   OH273083   1.051   1.107  12.382 -0.0704  0.2941 -0.6190
17223TIP3    H173084   1.140   1.075  12.395 -0.5141 -0.5999  0.2991
17223TIP3    H273085   1.048   1.190  12.430 -0.0720 -0.2723  0.3869
17224TIP3   OH273086   2.576   4.950  12.025 -0.2605  0.1248 -0.0826
17224TIP3    H173087   2.544   5.039  12.042 -0.0040  0.1405  0.3476
17224TIP3    H273088   2.540   4.897  12.096  0.5711  0.1282  0.3580
17225TIP3   OH273089   2.551   6.681   2.829  0.1282  0.1621  0.2841
17225TIP3    H173090   2.625   6.623   2.844 -0.0330  0.2325  1.4196
17225TIP3    H273091   2.589   6.759   2.788  0.7072  0.2534  0.9835
17226TIP3   OH273092   0.833   1.573  15.717 -0.0672 -0.2616 -0.1920
17226TIP3    H173093   0.752   1.558  15.669  0.0105 -0.0172 -0.4010
17226TIP3    H273094   0.874   1.486  15.721 -0.9101 -0.6287  0.9824
17227TIP3   OH273095   1.678   4.909  15.124 -0.3540  0.2913 -0.6795
17227TIP3    H173096   1.582   4.912  15.127 -0.4290 -0.5329 -1.6911
17227TIP3    H273097   1.705   4.941  15.210 -1.5869 -1.3326  0.3927
17228TIP3   OH273098   5.256   5.126  15.193 -0.3721 -0.3907  0.2883
17228TIP3    H173099   5.223   5.215  15.183  0.4985 -0.3135 -3.2724
17228TIP3    H273100   5.341   5.136  15.236  0.6131  0.7775 -1.8106
17229TIP3   OH273101   2.323   2.099   3.273  0.0314  0.7344  0.7023
17229TIP3    H173102   2.278   2.080   3.191  1.0828 -2.0207  0.6817
17229TIP3    H273103   2.367   2.183   3.257  1.4330 -0.4162 -2.1212
17230TIP3   OH273104   2.644   6.001   5.310 -0.3277  0.5968  0.1463
17230TIP3    H173105   2.572   5.978   5.369  0.0293 -0.8604  0.0608
17230TIP3    H273106   2.653   5.925   5.254  0.2475  1.4187 -0.9021
17231TIP3   OH273107   2.794   1.792  11.828  0.4283  0.2808  0.5287
17231TIP3    H173108   2.786   1.887  11.828 -1.9183  0.1416  0.6777
17231TIP3    H273109   2.771   1.766  11.739  1.3374 -0.1579  0.4075
17232TIP3   OH273110   0.037   0.323   4.318  0.5618 -0.6338 -0.8225
17232TIP3    H173111   0.130   0.326   4.294  0.8683  0.0142  0.3658
17232TIP3    H273112   0.027   0.393   4.382 -0.0382 -2.6577  1.4168
17233TIP3   OH273113   6.813   4.360  12.957 -0.0640 -0.1311 -0.7742
17233TIP3    H173114   6.866   4.287  12.925 -0.0426  0.6996 -2.7977
17233TIP3    H273115   6.725   4.342  12.924 -0.5841 -0.3649  0.6668
17234TIP3   OH273116   2.758   0.117  13.023  0.3290 -0.4327 -0.0216
17234TIP3    H173117   2.779   0.152  13.109 -0.2841 -0.5750  0.1916
17234TIP3    H273118   2.835   0.068  12.997  1.4420  1.4756 -0.5519
17235TIP3   OH273119   3.581   5.027  11.116 -0.2512 -0.1641 -0.0965
17235TIP3    H173120   3.636   5.087  11.065  0.4799 -0.7917 -0.0692
17235TIP3    H273121   3.492   5.058  11.101 -0.2536 -1.2944 -3.1779
17236TIP3   OH273122   0.966   1.534  14.549  0.0649  0.0996  0.1550
17236TIP3    H173123   0.895   1.471  14.563  0.1469 -0.5212 -1.8645
17236TIP3    H273124   0.921   1.617  14.530 -0.0915  0.0999  0.5325
17237TIP3   OH273125   0.885   6.689  12.670 -0.1201  0.1729 -0.2641
17237TIP3    H173126   0.953   6.621  12.669 -0.1798  0.0975  0.5184
17237TIP3    H273127   0.830   6.667  12.595 -1.3889 -1.9580  1.1559
17238TIP3   OH273128   5.065   2.633  14.933  0.1173 -0.7266 -0.5324
17238TIP3    H173129   5.121   2.706  14.906 -3.2030  2.2143 -0.2178
17238TIP3    H273130   5.002   2.624  14.862 -1.1599 -1.4109  0.6412
17239TIP3   OH273131   5.862   2.554  14.265 -0.3554  0.1910  0.2364
17239TIP3    H173132   5.935   2.494  14.250 -0.2782  0.0155  1.2330
17239TIP3    H273133   5.899   2.641  14.253 -0.4302  0.0595 -1.0684
17240TIP3   OH273134   6.159   0.625  12.470 -0.4473  0.2576 -0.6410
17240TIP3    H173135   6.094   0.605  12.402 -0.0149  0.8802 -1.2514
17240TIP3    H273136   6.217   0.549  12.470 -0.8474 -0.0542 -0.4805
17241TIP3   OH273137   4.128   1.777  14.447 -0.4556  0.1223 -0.1610
17241TIP3    H173138   4.220   1.765  14.471 -0.0545  0.7914 -1.2971
17241TIP3    H273139   4.104   1.862  14.483 -1.1578 -0.7578  1.5861
17242TIP3   OH273140   2.210   0.294  15.632  0.4185 -0.2867  0.0749
17242TIP3    H173141   2.240   0.366  15.687 -1.5775  1.1031 -0.5224
17242TIP3    H273142   2.217   0.216  15.687  1.0358  0.6278  1.3399
17243TIP3   OH273143   1.931   3.999   1.153  0.5564 -0.2367 -0.2766
17243TIP3    H173144   1.840   3.976   1.168  0.5870 -1.3216 -1.6243
17243TIP3    H273145   1.962   4.031   1.238 -1.2585  0.8603  0.0110
17244TIP3   OH273146   5.020   6.471   1.981 -0.3638  0.2286 -0.1537
17244TIP3    H173147   5.061   6.558   1.978 -0.8315  0.4261 -1.0030
17244TIP3    H273148   4.930   6.488   2.007 -1.3874  0.3854 -3.4028
17245TIP3   OH273149   5.801   2.939  11.239  0.0032  0.3641 -0.4158
17245TIP3    H173150   5.752   2.864  11.273 -0.0275  1.4162  2.1227
17245TIP3    H273151   5.893   2.912  11.243 -0.1382 -0.4279 -2.0091
17246TIP3   OH273152   0.116   1.997   2.946  0.2928  0.1720  0.1615
17246TIP3    H173153   0.024   1.972   2.937  0.9508 -2.8768  1.0037
17246TIP3    H273154   0.118   2.088   2.915 -2.2319 -0.8819 -3.9186
17247TIP3   OH273155   4.353   3.876   2.201  0.0304 -0.2259 -0.0205
17247TIP3    H173156   4.349   3.931   2.122  1.6074  0.9176  0.6439
17247TIP3    H273157   4.441   3.840   2.201 -0.4704 -1.5001  0.4186
17248TIP3   OH273158   6.304   4.484  12.128  0.4369 -0.0912  0.4285
17248TIP3    H173159   6.278   4.419  12.193 -2.0873 -0.5395 -0.9144
17248TIP3    H273160   6.250   4.465  12.051 -0.3228  3.4809 -0.1202
17249TIP3   OH273161   4.406   4.085  12.583 -0.0051 -0.1912 -0.6082
17249TIP3    H173162   4.428   4.110  12.673 -0.4410  0.9834 -0.8099
17249TIP3    H273163   4.323   4.038  12.592  0.4233 -0.9004 -0.3035
17250TIP3   OH273164   2.844   2.757   4.282  0.3079 -0.3502 -0.0680
17250TIP3    H173165   2.835   2.666   4.254  3.4625 -0.3000 -1.7316
17250TIP3    H273166   2.857   2.805   4.200 -1.2743  1.6488  0.7808
17251TIP3   OH273167   1.528   6.474   1.279 -0.7672 -0.3139  0.6306
17251TIP3    H173168   1.513   6.565   1.305 -2.5647 -0.1829 -0.6199
17251TIP3    H273169   1.480   6.422   1.344 -1.5644 -0.2197  0.1384
17252TIP3   OH273170   1.192   2.549  13.345  0.0809 -0.6837 -0.3404
17252TIP3    H173171   1.284   2.574  13.333  0.0607 -0.6731 -0.4677
17252TIP3    H273172   1.144   2.608  13.287 -0.1051  0.1389  0.6203
17253TIP3   OH273173   5.950   1.392   4.154 -0.2797  0.1637  0.0811
17253TIP3    H173174   6.038   1.406   4.188  0.3706  1.8129 -2.0849
17253TIP3    H273175   5.954   1.305   4.115  0.7490  0.6470 -0.9486
17254TIP3   OH273176   3.519   5.553  13.116  0.4600  0.2867 -0.5504
17254TIP3    H173177   3.522   5.475  13.060  1.2974  0.3202 -0.5595
17254TIP3    H273178   3.608   5.561  13.151  0.4265  1.3300 -0.6770
17255TIP3   OH273179   3.778   1.906  12.257 -0.2045 -0.3030  0.1523
17255TIP3    H173180   3.812   1.890  12.169 -0.1191  0.3484  0.0627
17255TIP3    H273181   3.855   1.931  12.309 -0.0402 -1.9424  0.7384
17256TIP3   OH273182   2.217   5.004  12.308  0.0019  0.2197  0.2811
17256TIP3    H173183   2.223   5.097  12.328 -0.9257  0.5556 -0.9022
17256TIP3    H273184   2.126   4.990  12.280 -0.1864 -1.2669  1.4887
17257TIP3   OH273185   1.276   3.597  12.068 -1.1205  0.0991 -0.0489
17257TIP3    H173186   1.310   3.526  12.014  1.5856 -0.0073  1.6005
17257TIP3    H273187   1.197   3.561  12.109 -0.1492 -1.7588  0.2754
17258TIP3   OH273188   4.426   4.982  12.080  0.5933 -0.2520  0.3792
17258TIP3    H173189   4.331   4.971  12.069  0.5903 -0.4942  0.6247
17258TIP3    H273190   4.453   5.032  12.004  0.2692 -0.1999  0.2943
17259TIP3   OH273191   3.831   1.410   1.817 -0.0578  0.0843 -0.6768
17259TIP3    H173192   3.796   1.327   1.851  2.0261 -0.6274 -0.1130
17259TIP3    H273193   3.833   1.468   1.893  2.3252 -0.7332 -0.0171
17260TIP3   OH273194   1.166   0.452   0.447  0.2931 -0.6367 -0.1964
17260TIP3    H173195   1.108   0.515   0.490  0.2244 -1.8347  1.5492
17260TIP3    H273196   1.250   0.498   0.441 -0.1565  0.1794 -0.3859
17261TIP3   OH273197   2.225   5.431   2.874 -0.1522 -0.4487  0.5837
17261TIP3    H173198   2.309   5.415   2.831 -0.5119 -0.8593  0.0202
17261TIP3    H273199   2.231   5.520   2.907 -0.6345  0.6589 -2.1197
17262TIP3   OH273200   3.715   0.243   2.007  0.0502 -0.3120 -0.2338
17262TIP3    H173201   3.624   0.271   2.016 -0.3283 -1.4594 -0.3386
17262TIP3    H273202   3.710   0.157   1.965  1.1797 -0.4234 -0.1772
17263TIP3   OH273203   1.819   6.832   6.021  0.1509 -0.0288 -0.6287
17263TIP3    H173204   1.842   6.918   6.057 -1.0077  0.7053 -1.5631
17263TIP3    H273205   1.833   6.772   6.094  0.4917  1.0267  0.2105
17264TIP3   OH273206   0.449   1.091   4.742  0.1540  0.4003  0.2397
17264TIP3    H173207   0.466   1.034   4.667  0.4742 -1.0681  1.3949
17264TIP3    H273208   0.458   1.180   4.707 -0.1852 -0.2379 -1.5618
17265TIP3   OH273209   1.149   3.608  11.324 -0.6119 -0.4943 -0.1734
17265TIP3    H173210   1.054   3.617  11.326 -0.6100  0.4651 -1.9938
17265TIP3    H273211   1.177   3.671  11.257  1.1249 -2.2415 -1.1728
17266TIP3   OH273212   0.385   3.358  11.691  0.3834 -0.4098  0.0735
17266TIP3    H173213   0.380   3.309  11.609  2.9513 -0.3278 -0.2267
17266TIP3    H273214   0.301   3.344  11.734 -0.7470 -1.0430 -2.2360
17267TIP3   OH273215   6.823   1.587  16.560  0.3254  0.2295 -0.3375
17267TIP3    H173216   6.734   1.562  16.585  0.1600  1.5022  0.4129
17267TIP3    H273217   6.879   1.537  16.620  0.0631  0.3777  0.0365
17268TIP3   OH273218   1.313   2.532   3.946 -0.2134 -0.7593 -0.1436
17268TIP3    H173219   1.408   2.538   3.948 -0.2019  3.1877  4.4442
17268TIP3    H273220   1.287   2.596   3.879  0.3300 -0.9256 -0.5221
17269TIP3   OH273221   2.844   2.371   4.532  0.1032 -0.3827 -0.7557
17269TIP3    H173222   2.858   2.343   4.442 -1.7818 -2.2008 -0.5706
17269TIP3    H273223   2.845   2.289   4.583 -1.0848  0.3475  0.5157
17270TIP3   OH273224   2.132   4.385  14.717  0.2181  0.4395  0.1091
17270TIP3    H173225   2.187   4.405  14.793  0.6124  1.4354 -0.4101
17270TIP3    H273226   2.194   4.354  14.651 -0.2540 -1.4943  0.5186
17271TIP3   OH273227   2.308   0.941  15.350 -0.1778 -0.0533  0.0197
17271TIP3    H173228   2.302   0.863  15.405  1.7449 -0.2591 -0.0067
17271TIP3    H273229   2.401   0.949  15.328 -0.1712  2.6988  0.6573
17272TIP3   OH273230   4.234   2.977   5.494 -0.5323 -0.1729 -0.8666
17272TIP3    H173231   4.245   2.922   5.571 -0.5601 -1.8308 -1.9885
17272TIP3    H273232   4.280   3.058   5.515  2.3367 -1.7932 -0.3194
17273TIP3   OH273233   4.168   6.047  16.082  0.3662  0.1986 -0.4870
17273TIP3    H173234   4.255   6.012  16.065  0.6098  0.4568  0.2119
17273TIP3    H273235   4.135   6.071  15.995  0.0746 -1.9470 -1.0281
17274TIP3   OH273236   5.163   4.517   4.269 -0.2476 -0.4173  0.1266
17274TIP3    H173237   5.195   4.438   4.312  0.2488  0.1210  0.7708
17274TIP3    H273238   5.207   4.518   4.184 -0.6853 -1.1150 -0.1198
17275TIP3   OH273239   0.274   3.092   0.112  0.4161 -0.1986  0.3170
17275TIP3    H173240   0.294   3.162   0.049  1.8199 -0.9527 -0.1292
17275TIP3    H273241   0.234   3.137   0.185 -0.7786  0.7774 -0.8850
17276TIP3   OH273242   4.346   0.737   1.112 -0.3866 -0.0345  0.7615
17276TIP3    H173243   4.309   0.741   1.024  2.4201  1.3130 -0.5029
17276TIP3    H273244   4.335   0.645   1.139 -0.4566 -0.7127 -1.4015
17277TIP3   OH273245   5.571   1.418   3.567 -0.3109  0.3991  1.1051
17277TIP3    H173246   5.483   1.432   3.600 -0.6355  0.2370  0.3234
17277TIP3    H273247   5.597   1.502   3.529  0.4933  0.9226  2.7135
17278TIP3   OH273248   6.295   5.210   3.051  0.2563 -0.2301  0.0635
17278TIP3    H173249   6.200   5.219   3.058 -0.0246 -1.9253 -0.9362
17278TIP3    H273250   6.329   5.257   3.127 -1.3464  0.6900  0.2661
17279TIP3   OH273251   0.358   2.883   5.621 -0.4723 -0.0413 -1.0180
17279TIP3    H173252   0.438   2.881   5.673 -0.0450 -2.5593 -1.6332
17279TIP3    H273253   0.292   2.842   5.677 -0.8062  0.1343 -1.2801
17280TIP3   OH273254   1.830   4.241  14.226 -0.0549 -0.0180 -0.3744
17280TIP3    H173255   1.786   4.316  14.184  1.4214  1.4199  0.5101
17280TIP3    H273256   1.817   4.255  14.319  0.8094 -0.5050 -0.1717
17281TIP3   OH273257   4.783   0.207   5.123 -0.5789 -0.1427 -0.7932
17281TIP3    H173258   4.791   0.265   5.198  1.8806 -0.7367 -0.4849
17281TIP3    H273259   4.731   0.256   5.059 -3.1716  0.1907  1.3922
17282TIP3   OH273260   5.544   0.115  11.712  0.4919  0.6445  0.1339
17282TIP3    H173261   5.555   0.208  11.691  1.6038  0.6823  0.8265
17282TIP3    H273262   5.453   0.108  11.738  0.1336  1.3514 -0.8244
17283TIP3   OH273263   3.876   6.395  15.678  0.2519 -0.5923 -0.5794
17283TIP3    H173264   3.826   6.348  15.745  0.8131 -1.2111 -0.5847
17283TIP3    H273265   3.903   6.476  15.721  1.4968 -1.4417  0.3178
17284TIP3   OH273266   3.997   6.105  13.542  0.6982  0.2832 -0.2564
17284TIP3    H173267   4.030   6.173  13.484  2.2461  0.7566  1.0878
17284TIP3    H273268   3.905   6.095  13.518  0.4573  2.7245 -0.6387
17285TIP3   OH273269   0.223   3.674  13.715  0.2844  0.1100 -0.0908
17285TIP3    H173270   0.263   3.632  13.791 -0.8022  0.0295  0.4455
17285TIP3    H273271   0.296   3.685  13.653  1.0889 -0.2268  0.7737
17286TIP3   OH273272   3.542   5.056   4.366 -0.2008 -0.0724  0.1382
17286TIP3    H173273   3.618   5.003   4.340 -1.2210 -1.4974  0.0013
17286TIP3    H273274   3.482   4.994   4.406 -1.6162  0.8992 -0.4256
17287TIP3   OH273275   0.839   5.588   3.292  0.8978  0.5098 -0.6201
17287TIP3    H173276   0.765   5.587   3.231  0.4733  0.9729 -0.1219
17287TIP3    H273277   0.908   5.634   3.246  0.9362 -0.0573 -1.1493
17288TIP3   OH273278   6.737   4.545   3.102 -0.2715 -0.6415 -0.4495
17288TIP3    H173279   6.776   4.627   3.070 -0.4774 -0.9161 -1.4324
17288TIP3    H273280   6.701   4.568   3.188 -2.2652  0.8968 -1.5911
17289TIP3   OH273281   6.648   4.614   5.740  0.1642  0.1012  0.0716
17289TIP3    H173282   6.596   4.538   5.768 -0.2140 -0.1281 -1.1727
17289TIP3    H273283   6.738   4.592   5.765 -0.1885  0.0610  1.3621
17290TIP3   OH273284   2.924   1.560  13.767  0.7138 -0.5233  0.0107
17290TIP3    H173285   2.887   1.619  13.701 -2.2264 -1.2753  0.8576
17290TIP3    H273286   2.975   1.617  13.824 -1.0098  1.0425  0.0835
17291TIP3   OH273287   2.091   5.243   4.176 -0.1496 -0.0372 -0.0382
17291TIP3    H173288   2.153   5.219   4.107 -0.6484  0.1688 -0.5673
17291TIP3    H273289   2.024   5.294   4.131 -0.6074 -0.1048  0.5566
17292TIP3   OH273290   2.985   1.710  14.884  1.1797  0.1173  0.4492
17292TIP3    H173291   2.999   1.654  14.808 -1.2579 -1.4845  1.0675
17292TIP3    H273292   2.982   1.799  14.848 -0.3942 -0.6289 -1.4405
17293TIP3   OH273293   2.804   4.259   6.031  0.1230  0.1630  0.4190
17293TIP3    H173294   2.735   4.196   6.051 -0.2400 -0.8029 -3.1097
17293TIP3    H273295   2.763   4.344   6.043 -0.1656 -0.2336  2.7908
17294TIP3   OH273296   3.991   0.313  14.372  0.1202 -0.4063 -0.1194
17294TIP3    H173297   4.062   0.377  14.366 -0.0745 -0.0914  0.7806
17294TIP3    H273298   3.967   0.295  14.281  0.3319  0.6364 -0.3983
17295TIP3   OH273299   4.678   6.594  13.518  0.0112 -0.3286 -0.1162
17295TIP3    H173300   4.729   6.514  13.505 -1.9683 -1.7160  0.3041
17295TIP3    H273301   4.731   6.662  13.477  2.5793 -1.5144  0.9749
17296TIP3   OH273302   6.342   3.170   4.725 -0.1494 -0.6091 -0.6588
17296TIP3    H173303   6.379   3.152   4.811  0.4296 -1.3565 -1.0544
17296TIP3    H273304   6.261   3.119   4.721  0.6498 -1.8770 -1.1564
17297TIP3   OH273305   5.767   0.403   2.051 -0.0787 -0.2152 -0.3396
17297TIP3    H173306   5.763   0.455   2.132  0.0722  0.6953 -0.8968
17297TIP3    H273307   5.677   0.397   2.022  0.0736  1.2919 -1.2126
17298TIP3   OH273308   3.115   1.564  13.968  0.0231  0.1909 -0.7590
17298TIP3    H173309   3.126   1.656  13.993 -0.3609  0.4108 -1.3702
17298TIP3    H273310   3.150   1.515  14.042 -1.8441  0.8068  0.6041
17299TIP3   OH273311   2.521   0.492   2.720  0.1737  0.5653  0.5163
17299TIP3    H173312   2.453   0.461   2.781 -0.1525 -0.1165 -0.1768
17299TIP3    H273313   2.496   0.454   2.636  0.2168  2.0719 -0.2084
17300TIP3   OH273314   3.541   1.526   1.375 -0.0186 -0.4251 -0.0801
17300TIP3    H173315   3.626   1.501   1.412  0.0088 -0.4501 -0.1597
17300TIP3    H273316   3.526   1.462   1.305  0.3009  0.1036 -0.6408
17301TIP3   OH273317   4.179   4.162  16.829 -0.0589 -0.1459  0.6541
17301TIP3    H173318   4.233   4.227  16.873 -1.2313 -0.3947  2.5461
17301TIP3    H273319   4.205   4.078  16.866  0.3802 -0.6224 -0.6660
17302TIP3   OH273320   1.463   5.361   4.036 -0.2381 -0.3900 -0.7742
17302TIP3    H173321   1.464   5.269   4.011 -0.6810 -0.0167 -2.2783
17302TIP3    H273322   1.380   5.372   4.083  0.4305 -1.0226  0.6102
17303TIP3   OH273323   3.183   1.715   4.821  0.2150  0.1093 -0.1591
17303TIP3    H173324   3.243   1.789   4.815  0.2209  0.1501  0.3904
17303TIP3    H273325   3.236   1.643   4.856  0.1492 -0.0850 -0.4574
17304TIP3   OH273326   3.329   2.175  10.348 -0.3698 -0.4542  0.6606
17304TIP3    H173327   3.312   2.098  10.403 -0.3608 -0.5018  0.5987
17304TIP3    H273328   3.424   2.182  10.346 -0.3791 -0.2176  0.9688
17305TIP3   OH273329   4.403   6.667   5.103  0.1379 -0.0671 -0.1270
17305TIP3    H173330   4.461   6.606   5.058  0.5567  0.6571 -0.5958
17305TIP3    H273331   4.450   6.751   5.100 -1.4119  0.8300 -1.5925
17306TIP3   OH273332   6.102   1.309  12.108  0.5846  0.6315  0.2177
17306TIP3    H173333   6.165   1.239  12.091 -0.0702  0.3622 -1.3544
17306TIP3    H273334   6.149   1.373  12.160  1.1705 -1.0253  1.8367
17307TIP3   OH273335   0.237   0.568  11.478  0.2078  0.6108  0.6371
17307TIP3    H173336   0.273   0.499  11.421  0.2057  1.2115 -0.1040
17307TIP3    H273337   0.143   0.560  11.468  0.2244  1.5103 -0.4336
17308TIP3   OH273338   1.385   2.396   2.903 -0.1777 -0.1811 -0.0205
17308TIP3    H173339   1.335   2.472   2.934 -0.7116 -0.6094  0.1760
17308TIP3    H273340   1.445   2.377   2.975  1.9198  1.7259 -1.1160
17309TIP3   OH273341   0.933   3.602  10.980  0.4811 -0.0691  0.1306
17309TIP3    H173342   1.000   3.562  10.926  0.1898  0.7229 -0.8614
17309TIP3    H273343   0.852   3.591  10.930 -0.2106 -1.3269  1.4740
17310TIP3   OH273344   6.419   0.072   0.649  0.3460 -0.1399 -0.2298
17310TIP3    H173345   6.400   0.157   0.608  0.0365 -0.4181 -0.6677
17310TIP3    H273346   6.444   0.094   0.739 -2.0316  0.2443  0.3937
17311TIP3   OH273347   5.273   0.514  15.059 -0.0670  0.5628 -0.0649
17311TIP3    H173348   5.195   0.468  15.026 -0.9023  0.9159  1.3245
17311TIP3    H273349   5.334   0.513  14.985 -1.5929  0.7737 -1.3878
17312TIP3   OH273350   0.369   3.828   1.609 -0.4460  0.4455  0.0326
17312TIP3    H173351   0.275   3.819   1.628 -0.1021  0.0804  1.7510
17312TIP3    H273352   0.399   3.895   1.670  0.2394  1.3320 -1.2394
17313TIP3   OH273353   0.291   2.166   4.922  0.0323  0.5626  0.2053
17313TIP3    H173354   0.267   2.185   4.832 -1.3124 -2.0043 -0.0504
17313TIP3    H273355   0.217   2.197   4.974  0.3998  1.1829  0.3819
17314TIP3   OH273356   4.702   3.759   0.024 -0.5568 -0.4816  0.1463
17314TIP3    H173357   4.722   3.813   0.101  3.3552  0.6868 -1.4545
17314TIP3    H273358   4.711   3.669   0.056 -2.4372 -0.1532  1.7641
17315TIP3   OH273359   2.075   0.570  15.100 -0.3292 -0.2834  0.3063
17315TIP3    H173360   2.048   0.562  15.009 -0.9768  1.4240  0.3113
17315TIP3    H273361   2.170   0.583  15.096 -0.0133 -2.3148  0.0452
17316TIP3   OH273362   0.968   1.334  15.748  0.0822  0.5197  0.4494
17316TIP3    H173363   1.063   1.334  15.734  0.0629  0.0396  0.2762
17316TIP3    H273364   0.959   1.339  15.843  0.2371  2.4378  0.3992
17317TIP3   OH273365   4.222   5.226   3.763  0.1716 -0.9077 -0.1499
17317TIP3    H173366   4.247   5.191   3.677  0.3596 -1.2796  0.0515
17317TIP3    H273367   4.233   5.152   3.823  0.1469 -0.6211  0.2133
17318TIP3   OH273368   5.735   3.890  12.955 -0.1046  0.6689  0.5715
17318TIP3    H173369   5.800   3.908  12.887  1.1793  0.1677  1.6136
17318TIP3    H273370   5.693   3.809  12.927 -0.2348  0.9396 -0.0539
17319TIP3   OH273371   5.696   5.212  13.117  0.1138  0.0008  0.4726
17319TIP3    H173372   5.697   5.202  13.022  1.7458  0.9789  0.3576
17319TIP3    H273373   5.759   5.148  13.149  0.5529  0.5794  0.7835
17320TIP3   OH273374   5.253   5.558  15.667  0.4895 -0.0080  0.5133
17320TIP3    H173375   5.270   5.567  15.573  0.2614  1.8863  0.6183
17320TIP3    H273376   5.318   5.495  15.697 -1.0226 -2.6265 -1.3231
17321TIP3   OH273377   1.199   5.427  10.818 -0.0047 -0.0012  0.5593
17321TIP3    H173378   1.156   5.428  10.903  0.9275  2.5329  1.0867
17321TIP3    H273379   1.246   5.510  10.814 -1.5734  0.9047 -3.2300
17322TIP3   OH273380   1.700   0.394  12.351 -0.0186  0.4047 -0.8532
17322TIP3    H173381   1.657   0.469  12.392  1.9124 -0.1102  2.4703
17322TIP3    H273382   1.628   0.338  12.323 -1.4869  1.9843 -0.4394
17323TIP3   OH273383   5.098   1.252  10.262 -0.1098  0.3173  1.0870
17323TIP3    H173384   5.181   1.251  10.214 -0.1519  1.9351  0.9195
17323TIP3    H273385   5.062   1.164  10.250  0.2048  0.4495 -1.2668
17324TIP3   OH273386   6.354   5.566   0.062 -0.2974 -0.1832  0.1596
17324TIP3    H173387   6.296   5.497   0.094  0.7271 -1.2639 -0.2464
17324TIP3    H273388   6.381   5.537  -0.025  0.8395  0.2858  0.3308
17325TIP3   OH273389   2.768   2.318   0.323  0.2911  0.2284 -0.0250
17325TIP3    H173390   2.809   2.259   0.259  1.6762 -1.1236  1.9664
17325TIP3    H273391   2.675   2.295   0.320  0.6373 -1.3382 -0.0937
17326TIP3   OH273392   1.982   1.404  15.640 -0.6216 -0.1289  0.2299
17326TIP3    H173393   1.914   1.338  15.626 -1.1995  0.5613 -0.3063
17326TIP3    H273394   1.996   1.442  15.554  0.2479 -0.0560  0.3922
17327TIP3   OH273395   1.469   5.076  15.499  1.1449 -0.2675  0.2315
17327TIP3    H173396   1.452   5.049  15.408  0.6933 -3.9413  1.2354
17327TIP3    H273397   1.396   5.133  15.521 -1.6759 -3.3076 -0.3453
17328TIP3   OH273398   3.574   3.206  15.894 -1.0000 -0.3451 -0.1387
17328TIP3    H173399   3.604   3.297  15.887 -1.2396 -0.1388  1.1320
17328TIP3    H273400   3.504   3.199  15.830 -1.0786  0.4238 -0.1517
17329TIP3   OH273401   6.787   0.073  16.632 -0.0473  0.0226  0.0456
17329TIP3    H173402   6.865   0.046  16.583  0.3025  2.6357 -1.0595
17329TIP3    H273403   6.714   0.028  16.589  0.3057  1.8710 -2.7400
17330TIP3   OH273404   6.430   1.387  16.326  0.9377  0.3821  0.1578
17330TIP3    H173405   6.335   1.397  16.318  0.8981  0.8054  0.9772
17330TIP3    H273406   6.456   1.338  16.249  0.0627  0.3556 -0.1308
17331TIP3   OH273407   6.072   1.758   2.558 -0.7951 -0.1108 -0.3286
17331TIP3    H173408   6.094   1.696   2.489 -0.5831 -1.1243  0.6264
17331TIP3    H273409   6.094   1.713   2.639 -0.4651  1.2867  0.3916
17332TIP3   OH273410   2.258   5.296   4.972 -0.0474  0.1325  0.2690
17332TIP3    H173411   2.167   5.312   4.948 -0.4385 -1.4609  0.5753
17332TIP3    H273412   2.281   5.216   4.925  1.3358  0.7272 -0.1182
17333TIP3   OH273413   2.776   0.082  11.803 -0.4564 -0.8189 -0.2590
17333TIP3    H173414   2.691   0.041  11.816 -0.6919 -0.4163 -0.4833
17333TIP3    H273415   2.839   0.022  11.843 -0.9007 -0.8444  0.4195
17334TIP3   OH273416   6.427   4.852   2.017 -0.2519  0.3020 -0.1235
17334TIP3    H173417   6.447   4.922   2.079 -1.7324  1.7206 -1.1762
17334TIP3    H273418   6.493   4.863   1.948  1.0113 -0.8963  0.8248
17335TIP3   OH273419   2.053   2.205  17.015  0.1534  0.1864  0.1986
17335TIP3    H173420   2.079   2.135  16.954 -2.1607 -1.3141  0.8389
17335TIP3    H273421   2.061   2.165  17.102 -1.1086  0.7192  0.5765
17336TIP3   OH273422   3.277   0.528  16.705  0.7112  0.1795  0.0630
17336TIP3    H173423   3.222   0.455  16.732  1.5380 -0.4863 -0.0088
17336TIP3    H273424   3.287   0.581  16.785 -0.7049  0.7730 -0.1258
17337TIP3   OH273425   3.114   0.086   0.585 -0.4736  0.8063 -0.5738
17337TIP3    H173426   3.096   0.080   0.491  2.0061  0.3434 -1.0972
17337TIP3    H273427   3.151   0.174   0.596  0.5151  0.3732 -0.3222
17338TIP3   OH273428   5.048   6.074  10.439  0.0984 -0.9040  0.1595
17338TIP3    H173429   5.135   6.099  10.469  0.1158 -2.0887  1.1773
17338TIP3    H273430   5.047   6.095  10.345  0.4020  1.9381  0.7185
17339TIP3   OH273431   0.862   5.797  12.447 -0.2496 -0.3191  0.3703
17339TIP3    H173432   0.873   5.799  12.542 -2.6197 -1.1405  0.7261
17339TIP3    H273433   0.776   5.757  12.433 -0.2087  0.2701 -2.1187
17340TIP3   OH273434   3.476   4.286   1.461 -0.5881  0.0087 -1.0408
17340TIP3    H173435   3.553   4.314   1.510 -0.4310  0.5848 -1.6009
17340TIP3    H273436   3.453   4.201   1.498  0.5717 -0.3639 -1.1460
17341TIP3   OH273437   1.872   0.567   3.288 -0.7096 -0.1371 -0.6646
17341TIP3    H173438   1.876   0.498   3.354 -0.3563 -0.7057 -1.2791
17341TIP3    H273439   1.959   0.607   3.290 -1.3587  1.3529  0.7900
17342TIP3   OH273440   3.151   2.352   3.331 -0.2278 -0.3102  0.0221
17342TIP3    H173441   3.144   2.331   3.238  0.0744  0.3362 -0.1517
17342TIP3    H273442   3.242   2.377   3.343 -0.2379 -0.5105  0.5197
17343TIP3   OH273443   6.147   0.871  12.621  0.5574  0.0925  0.2702
17343TIP3    H173444   6.236   0.898  12.642  0.3551  1.2657 -0.3241
17343TIP3    H273445   6.159   0.798  12.560  1.1110  0.1903  0.2564
17344TIP3   OH273446   4.056   0.648   5.701 -0.1555  0.1515  0.0646
17344TIP3    H173447   4.046   0.740   5.728  1.4473  0.7835 -1.3129
17344TIP3    H273448   4.031   0.598   5.779 -0.8163  1.7460  0.9405
17345TIP3   OH273449   5.143   5.346  12.719 -0.2434 -0.1573 -0.6398
17345TIP3    H173450   5.126   5.327  12.812  1.0851  1.2994 -0.0567
17345TIP3    H273451   5.236   5.329  12.707  0.0216  1.4669 -1.1996
17346TIP3   OH273452   3.035   5.840   4.258  0.6402  0.2838  0.0844
17346TIP3    H173453   3.080   5.912   4.303 -0.1914  1.2159 -0.5470
17346TIP3    H273454   2.960   5.820   4.314 -0.3152  1.3500 -0.7488
17347TIP3   OH273455   3.125   3.906  11.745 -0.5820  0.0204  0.2472
17347TIP3    H173456   3.083   3.841  11.802 -0.1545  0.4361  1.0504
17347TIP3    H273457   3.062   3.978  11.742 -1.6796 -0.9485 -1.7500
17348TIP3   OH273458   0.037   6.117  11.649  0.0606  0.0158 -0.1432
17348TIP3    H173459   0.094   6.153  11.717 -0.2762 -0.3202  0.3259
17348TIP3    H273460  -0.031   6.070  11.697 -0.5491  0.3185 -0.6889
17349TIP3   OH273461   5.502   3.846  11.196 -0.0130 -0.4248 -0.3788
17349TIP3    H173462   5.579   3.880  11.151 -0.6012  0.0488 -1.0667
17349TIP3    H273463   5.430   3.902  11.165 -0.5935 -0.7166  0.4141
17350TIP3   OH273464   6.093   2.762  15.362 -0.3017 -0.0387  0.4008
17350TIP3    H173465   6.155   2.723  15.424  1.2110 -1.1032 -1.6547
17350TIP3    H273466   6.015   2.707  15.370 -0.6479  0.6437  2.2422
17351TIP3   OH273467   1.572   1.064   1.993  0.3088  0.1724  0.4041
17351TIP3    H173468   1.541   0.982   1.954  0.4722 -0.9371  2.4769
17351TIP3    H273469   1.505   1.128   1.970 -0.8458 -0.9897  0.3991
17352TIP3   OH273470   5.700   6.211   0.388 -0.8304 -0.0413  0.0656
17352TIP3    H173471   5.709   6.166   0.304  0.3471  0.0954  0.1084
17352TIP3    H273472   5.658   6.147   0.446 -1.5633 -0.1671 -0.5895
17353TIP3   OH273473   2.725   4.379   0.216 -0.1643 -0.2212  0.2364
17353TIP3    H173474   2.686   4.465   0.199 -1.4660 -0.7721  0.3549
17353TIP3    H273475   2.695   4.324   0.144 -1.4930 -1.2357  1.5072
17354TIP3   OH273476   4.864   5.935  16.098 -0.3554  0.2275  0.4133
17354TIP3    H173477   4.821   6.013  16.135  0.0234  0.4990  0.2914
17354TIP3    H273478   4.955   5.942  16.127 -0.1703  0.1695 -0.1381
17355TIP3   OH273479   6.064   2.811  14.771 -0.0345 -0.1990  0.3145
17355TIP3    H173480   6.008   2.823  14.694 -0.4308  0.1472  0.6539
17355TIP3    H273481   6.087   2.900  14.798 -0.2991 -0.3016  0.8906
17356TIP3   OH273482   4.034   2.106   6.033  0.3109 -0.4566  0.2334
17356TIP3    H173483   4.101   2.127   6.098  0.7223  0.2773 -0.4083
17356TIP3    H273484   4.022   2.188   5.984 -0.4839 -0.8040 -0.1728
17357TIP3   OH273485   3.254   4.945   2.554  0.5663  0.3608  0.5696
17357TIP3    H173486   3.180   4.938   2.615 -1.0577 -0.1030 -1.3571
17357TIP3    H273487   3.331   4.947   2.611 -0.9168  1.6576  2.7182
17358TIP3   OH273488   1.181   6.331   4.981  0.1857  0.1186  0.5428
17358TIP3    H173489   1.238   6.255   4.993  0.9033  0.6817  0.7970
17358TIP3    H273490   1.145   6.322   4.893  0.7104 -0.2254  0.3633
17359TIP3   OH273491   4.463   3.397   0.993  0.0439  0.1339  0.2925
17359TIP3    H173492   4.542   3.388   1.045  0.0370  1.6803  0.6185
17359TIP3    H273493   4.491   3.383   0.903  0.8884  1.5328  0.3141
17360TIP3   OH273494   0.854   3.869  13.615 -0.7981  0.1178 -0.1419
17360TIP3    H173495   0.796   3.906  13.549  1.6529  0.8185 -2.0343
17360TIP3    H273496   0.932   3.840  13.567 -0.5728 -3.2465  1.8900
17361TIP3   OH273497   0.134   0.480  12.218 -0.1945  0.3063 -0.1579
17361TIP3    H173498   0.043   0.498  12.243 -0.9988 -0.4713 -2.2248
17361TIP3    H273499   0.159   0.405  12.271 -0.4167  1.1122  1.1145
17362TIP3   OH273500   5.871   4.796   1.551  0.5809  0.2429  0.2133
17362TIP3    H173501   5.920   4.754   1.481 -0.8732 -0.1523 -0.6032
17362TIP3    H273502   5.866   4.888   1.525 -1.0166 -0.1098 -0.9057
17363TIP3   OH273503   5.883   4.893  12.077 -0.3136  0.1535  0.1403
17363TIP3    H173504   5.965   4.894  12.028 -0.6582 -0.3680 -0.4704
17363TIP3    H273505   5.905   4.850  12.160 -0.3405 -1.6703 -0.7496
17364TIP3   OH273506   3.309   6.313   5.604 -0.0903 -0.0241  0.4458
17364TIP3    H173507   3.244   6.242   5.609  0.9840 -1.1292 -0.5724
17364TIP3    H273508   3.393   6.268   5.593  0.8139  1.3868  1.3298
17365TIP3   OH273509   4.803   6.195  16.157  0.1811 -0.4663 -0.2192
17365TIP3    H173510   4.803   6.255  16.083  0.1978 -0.2605 -0.0515
17365TIP3    H273511   4.867   6.232  16.218  0.0641 -0.5619 -0.0386
17366TIP3   OH273512   4.797   3.655  13.313 -0.3402 -0.4401  0.3689
17366TIP3    H173513   4.792   3.589  13.381 -0.1186 -2.5444 -1.5330
17366TIP3    H273514   4.868   3.624  13.255 -1.3179  0.5622 -1.4562
17367TIP3   OH273515   1.024   6.220   2.816 -0.1994  0.5343  0.0683
17367TIP3    H173516   1.064   6.272   2.885 -0.6393  0.8767  0.0724
17367TIP3    H273517   1.041   6.269   2.735  0.3939  0.0882 -0.0852
17368TIP3   OH273518   0.502   2.720  16.590  0.5857 -0.5081  0.1261
17368TIP3    H173519   0.547   2.640  16.564  2.0582  0.8562 -1.8417
17368TIP3    H273520   0.565   2.766  16.645  1.3844  1.0066 -1.9210
17369TIP3   OH273521   3.141   2.559   3.738  0.5753 -0.7004 -0.9778
17369TIP3    H173522   3.103   2.472   3.735  1.1787 -0.9736 -0.8887
17369TIP3    H273523   3.067   2.619   3.731 -0.2571 -1.1303  2.5408
17370TIP3   OH273524   2.554   1.268  10.826  0.2156  0.4825 -0.4259
17370TIP3    H173525   2.528   1.331  10.894 -0.1003  0.2289 -0.3084
17370TIP3    H273526   2.629   1.222  10.864 -0.1275  0.1545 -0.1288
17371TIP3   OH273527   2.511   0.169  16.727  0.1069  0.6661 -0.6522
17371TIP3    H173528   2.505   0.263  16.739  1.3736  0.6571  0.2618
17371TIP3    H273529   2.442   0.148  16.664 -1.0953  2.0024  0.1579
17372TIP3   OH273530   0.998   6.610  15.198 -0.3077  0.1152 -0.1192
17372TIP3    H173531   1.014   6.587  15.290  0.3145  0.3984 -0.1464
17372TIP3    H273532   1.060   6.681  15.181  1.3506 -1.5342 -1.4396
17373TIP3   OH273533   2.161   2.053  16.710  0.4944 -0.3083 -0.1549
17373TIP3    H173534   2.251   2.049  16.678  0.1003 -2.3028 -1.1948
17373TIP3    H273535   2.123   1.968  16.687 -1.9385  0.7960 -0.5847
17374TIP3   OH273536   2.401   2.440  13.431  0.0169  0.5365  0.1564
17374TIP3    H173537   2.404   2.532  13.456  2.8767  0.6431 -0.1858
17374TIP3    H273538   2.412   2.440  13.336  1.1148 -0.1212  0.2555
17375TIP3   OH273539   6.195   2.833  11.443 -0.0629  0.4902  0.2016
17375TIP3    H173540   6.196   2.738  11.432  2.7071  0.4236  0.3677
17375TIP3    H273541   6.140   2.848  11.520 -1.7929 -0.8004 -0.7142
17376TIP3   OH273542   6.199   1.726   4.796 -0.0834  0.4606 -0.1889
17376TIP3    H173543   6.180   1.632   4.802  1.1226  0.2592  1.1294
17376TIP3    H273544   6.188   1.758   4.886  0.1146  1.4607 -0.5085
17377TIP3   OH273545   3.604   5.325  14.020 -0.1433  0.0535  0.4114
17377TIP3    H173546   3.556   5.349  14.100 -1.8871 -2.8805  0.3830
17377TIP3    H273547   3.678   5.273  14.052 -0.0319  0.0629  0.1694
17378TIP3   OH273548   0.433   6.165   4.766 -0.3248 -0.3712  0.0422
17378TIP3    H173549   0.495   6.202   4.828  0.2057 -0.5280 -0.3852
17378TIP3    H273550   0.404   6.083   4.806 -1.7709  0.6240  1.1615
17379TIP3   OH273551   0.516   2.394  14.791 -0.4380  0.0372  0.4072
17379TIP3    H173552   0.442   2.333  14.782 -0.4781  0.2995 -1.3604
17379TIP3    H273553   0.485   2.460  14.853 -0.2486 -1.8860  2.7137
17380TIP3   OH273554   1.353   4.831   1.645  0.1016  0.2552 -0.0732
17380TIP3    H173555   1.441   4.814   1.678  0.1399  1.7122  0.6401
17380TIP3    H273556   1.315   4.744   1.633  1.8556 -0.4131 -1.0485
17381TIP3   OH273557   2.447   2.818   1.772  0.0088  0.4038  0.5056
17381TIP3    H173558   2.390   2.746   1.797 -0.6837  0.4648 -0.7804
17381TIP3    H273559   2.520   2.815   1.834  0.9812 -2.5664 -0.6056
17382TIP3   OH273560   6.027   4.738  13.728 -0.3086  0.1758 -0.5528
17382TIP3    H173561   6.094   4.799  13.758 -1.5454  1.4694 -0.2798
17382TIP3    H273562   6.008   4.683  13.803  0.3477 -0.1159 -0.5967
17383TIP3   OH273563   6.079   5.399  12.469 -0.1153  0.2441 -0.1257
17383TIP3    H173564   6.158   5.417  12.520 -0.6204  1.1612  0.3437
17383TIP3    H273565   6.101   5.320  12.419  0.8989  0.1650  0.4143
17384TIP3   OH273566   3.926   6.476   5.521  0.0385  0.2554 -0.6019
17384TIP3    H173567   3.965   6.563   5.508  1.4122 -0.2408  0.0653
17384TIP3    H273568   3.954   6.426   5.444 -0.0244  0.1576 -0.5604
17385TIP3   OH273569   0.711   0.362   4.661 -0.4570  0.4307 -0.3437
17385TIP3    H173570   0.631   0.311   4.653 -0.0987 -0.1331 -0.3816
17385TIP3    H273571   0.736   0.354   4.753  0.5535 -0.9338 -0.7133
17386TIP3   OH273572   0.425   1.622   0.918 -0.2404 -0.9749 -0.2972
17386TIP3    H173573   0.442   1.715   0.901 -0.6386 -0.6592  0.9227
17386TIP3    H273574   0.495   1.595   0.977 -0.5401 -1.2569 -0.0699
17387TIP3   OH273575   0.237   2.310  11.231  0.1275  0.2215  0.3258
17387TIP3    H173576   0.163   2.307  11.170  0.8897  1.0533 -0.6789
17387TIP3    H273577   0.308   2.265  11.186  0.9007  1.4207  0.2929
17388TIP3   OH273578   3.152   1.022  15.212 -0.3687  0.2112  0.6956
17388TIP3    H173579   3.095   1.055  15.144 -0.3462 -0.3037  0.4251
17388TIP3    H273580   3.237   1.009  15.169  0.0384  1.2438  1.1577
17389TIP3   OH273581   4.277   4.823   1.820 -0.8235  0.3160  0.2631
17389TIP3    H173582   4.249   4.854   1.906 -1.2055  0.0774  0.2259
17389TIP3    H273583   4.226   4.875   1.758 -0.3508  0.6779  0.1741
17390TIP3   OH273584   4.686   4.003  11.687 -0.1528  0.3415  0.2643
17390TIP3    H173585   4.614   3.945  11.659  0.0845 -0.8999  2.0496
17390TIP3    H273586   4.654   4.091  11.668 -1.2289 -0.2759 -1.0082
17391TIP3   OH273587   5.229   1.692   1.206 -0.4109  0.4135 -0.1334
17391TIP3    H173588   5.139   1.723   1.195 -1.4029 -1.4471  1.9501
17391TIP3    H273589   5.266   1.751   1.272 -1.4744 -1.1105  1.9497
17392TIP3   OH273590   0.827   0.888   3.175 -0.1918 -0.2757  0.1531
17392TIP3    H173591   0.813   0.970   3.127 -3.4062  0.0124  1.3503
17392TIP3    H273592   0.860   0.828   3.109  1.2638  1.6695 -0.9995
17393TIP3   OH273593   5.128   2.459  14.252  0.3945  0.0919  0.0879
17393TIP3    H173594   5.104   2.455  14.159 -1.3662  0.2185  0.5064
17393TIP3    H273595   5.045   2.457  14.299  1.0291  2.9039  1.5759
17394TIP3   OH273596   2.924   5.050  16.106  0.4415 -0.4955 -0.2685
17394TIP3    H173597   2.901   4.967  16.064 -1.3418 -0.8191  1.1881
17394TIP3    H273598   2.984   5.025  16.177  0.3098 -0.4862 -0.1527
17395TIP3   OH273599   1.711   4.197   2.605  0.0441 -0.3103  0.0966
17395TIP3    H173600   1.644   4.264   2.618  0.7004  0.2563  0.6972
17395TIP3    H273601   1.763   4.199   2.685  2.3747  1.1502 -1.2937
17396TIP3   OH273602   0.240   2.034  15.933  0.0840  0.3229 -0.4140
17396TIP3    H173603   0.298   1.987  15.993  1.5513  0.3861 -1.7139
17396TIP3    H273604   0.156   1.989  15.941  0.8073 -1.0038  0.1199
17397TIP3   OH273605   4.158   1.841  11.363  0.3859  0.4313 -0.8147
17397TIP3    H173606   4.215   1.783  11.414 -1.4020 -1.3615 -0.7520
17397TIP3    H273607   4.217   1.886  11.303  1.9714 -0.6750 -0.1493
17398TIP3   OH273608   4.864   5.011   5.000 -0.4839  0.0087  0.0814
17398TIP3    H173609   4.787   5.042   5.049  0.5266  0.5156  1.4078
17398TIP3    H273610   4.932   5.076   5.019  1.1802 -2.0063  1.4558
17399TIP3   OH273611   2.297   3.321  13.536  0.1370  0.1594 -0.5388
17399TIP3    H173612   2.263   3.238  13.568  0.8264  0.6761  1.7160
17399TIP3    H273613   2.227   3.384  13.553  0.9110  0.6375  1.1418
17400TIP3   OH273614   4.921   4.641  15.966  0.1112  0.6006 -0.4744
17400TIP3    H173615   4.880   4.566  15.922  0.4821  0.5445 -0.7232
17400TIP3    H273616   4.848   4.701  15.984 -0.3210 -0.1690  0.4520
17401TIP3   OH273617   5.230   1.453   6.294  0.1118 -0.3716  0.0161
17401TIP3    H173618   5.299   1.405   6.340 -0.3825 -0.4124  0.7325
17401TIP3    H273619   5.149   1.409   6.321 -0.1992 -0.3221 -0.8132
17402TIP3   OH273620   5.892   4.423  16.544 -0.1923 -0.0432  0.1989
17402TIP3    H173621   5.970   4.462  16.584 -0.7538  1.4785 -0.1150
17402TIP3    H273622   5.855   4.367  16.613  1.3054 -1.0233  0.2504
17403TIP3   OH273623   0.698   2.662   3.071  0.2610 -0.1760  0.5551
17403TIP3    H173624   0.657   2.642   3.156  0.1056 -0.2971  0.4527
17403TIP3    H273625   0.646   2.734   3.036 -0.5020 -0.9906 -0.0314
17404TIP3   OH273626   4.594   0.801   2.004  0.4135 -0.4496  0.2195
17404TIP3    H173627   4.575   0.886   2.044  0.4841 -0.7247  0.8394
17404TIP3    H273628   4.575   0.737   2.072 -1.2451 -1.0672 -0.7566
17405TIP3   OH273629   2.781   1.749  12.093 -0.4073 -0.0160  0.3478
17405TIP3    H173630   2.719   1.822  12.094  0.3322  0.6284  0.5935
17405TIP3    H273631   2.814   1.746  12.003 -0.4310 -0.0399  0.3400
17406TIP3   OH273632   2.559   2.044   3.394 -0.5561 -0.5086 -0.5243
17406TIP3    H173633   2.465   2.056   3.378 -1.3412 -2.4502  1.9687
17406TIP3    H273634   2.565   1.958   3.436  2.2432 -0.0193  0.2680
17407TIP3   OH273635   1.017   5.561   3.654 -0.5416 -0.4578  0.0605
17407TIP3    H173636   0.965   5.534   3.579  2.4733 -0.0159 -2.3783
17407TIP3    H273637   1.030   5.655   3.642  0.6115 -0.5228  0.7003
17408TIP3   OH273638   6.548   5.435   2.673  0.0005 -0.2172 -0.1371
17408TIP3    H173639   6.607   5.435   2.748  0.1322 -2.7471 -0.1492
17408TIP3    H273640   6.577   5.508   2.619  0.7064  0.8839  1.6399
17409TIP3   OH273641   2.920   4.725  10.725 -0.3816  0.2282  0.4796
17409TIP3    H173642   2.953   4.774  10.650 -2.2944  1.0047  0.0904
17409TIP3    H273643   2.998   4.687  10.765  0.7448  0.2908 -1.5384
17410TIP3   OH273644   5.594   5.697  13.908  0.0566 -0.5943 -0.5083
17410TIP3    H173645   5.670   5.738  13.867 -0.3225  0.9206  0.2284
17410TIP3    H273646   5.520   5.727  13.856 -0.1939 -0.6239 -0.1752
17411TIP3   OH273647   0.540   3.773  11.037 -0.3975  0.0383  0.6220
17411TIP3    H173648   0.616   3.804  11.087  0.3896  1.5384 -1.3900
17411TIP3    H273649   0.494   3.715  11.098  1.4795  0.3366  2.4460
17412TIP3   OH273650   3.631   2.092   5.021 -0.2931  0.2444 -0.2137
17412TIP3    H173651   3.546   2.048   5.020 -1.4073  2.2631 -0.5289
17412TIP3    H273652   3.619   2.165   5.081  1.3041  0.4726 -0.1301
17413TIP3   OH273653   2.677   1.537  15.175  0.2008 -0.3825 -0.1232
17413TIP3    H173654   2.651   1.621  15.213 -1.6397  0.0049 -2.0551
17413TIP3    H273655   2.709   1.558  15.088  1.9172 -1.4916  0.1996
17414TIP3   OH273656   0.567   5.049   4.885  0.0511 -0.0546  0.4893
17414TIP3    H173657   0.549   5.115   4.953 -0.1818  0.8741 -0.4367
17414TIP3    H273658   0.548   5.095   4.803  2.2208 -0.5060 -0.3278
17415TIP3   OH273659   1.949   1.647  15.766 -0.0253 -0.0691  0.1164
17415TIP3    H173660   1.856   1.626  15.773 -0.1257  0.7992  2.8345
17415TIP3    H273661   1.989   1.569  15.728 -1.6653 -1.0585  0.3390
17416TIP3   OH273662   2.360   2.091   4.616  0.0180  0.2215  0.5836
17416TIP3    H173663   2.290   2.071   4.554  0.9181 -0.7884 -0.1254
17416TIP3    H273664   2.332   2.050   4.698 -1.0162  1.2835  0.7992
17417TIP3   OH273665   4.695   0.687  16.795  0.0260  0.0363 -0.2427
17417TIP3    H173666   4.639   0.610  16.786 -0.5478  0.4183 -0.0225
17417TIP3    H273667   4.636   0.761  16.783  0.3426  0.4625  0.7169
17418TIP3   OH273668   1.547   2.127   0.226 -0.1145 -0.1540  0.1569
17418TIP3    H173669   1.599   2.079   0.162  0.8334 -0.4517  1.1280
17418TIP3    H273670   1.602   2.200   0.253 -1.7238  1.8757 -1.6698
17419TIP3   OH273671   4.405   2.173   4.117  0.4357  0.2142 -0.6897
17419TIP3    H173672   4.487   2.168   4.167  1.3893 -0.3925 -2.2338
17419TIP3    H273673   4.432   2.157   4.027 -1.6404 -1.8784 -1.0225
17420TIP3   OH273674   1.611   0.784  15.181  0.0789  0.4157 -0.4306
17420TIP3    H173675   1.640   0.874  15.196 -0.2001  0.1275  2.2380
17420TIP3    H273676   1.519   0.784  15.207  0.0930 -0.6503 -0.3668
17421TIP3   OH273677   3.462   4.546  16.715  0.6151  0.0593  0.2095
17421TIP3    H173678   3.544   4.496  16.711  1.2682  1.0792  0.5107
17421TIP3    H273679   3.397   4.487  16.678  1.2700 -1.1955  0.9649
17422TIP3   OH273680   5.127   2.780  11.486 -0.3818  0.3543 -0.1394
17422TIP3    H173681   5.038   2.751  11.468 -0.4173  0.8688 -0.8796
17422TIP3    H273682   5.119   2.875  11.497  0.1455  0.4844 -0.7989
17423TIP3   OH273683   1.606   2.613   1.870  0.3957  0.1355  0.0912
17423TIP3    H173684   1.614   2.645   1.780  1.0224  1.7316  0.6579
17423TIP3    H273685   1.532   2.662   1.907 -0.5234 -1.2584  0.1726
17424TIP3   OH273686   6.146   2.824   1.487  0.0212  0.5027 -0.2726
17424TIP3    H173687   6.235   2.859   1.495  0.4702 -0.8965  1.5604
17424TIP3    H273688   6.096   2.894   1.446  2.1303  1.0218 -2.1493
17425TIP3   OH273689   4.589   6.825  14.708  0.2512 -0.4602  0.0954
17425TIP3    H173690   4.530   6.848  14.636 -0.0309 -0.5829  0.2829
17425TIP3    H273691   4.545   6.752  14.752  0.8868 -1.0154 -0.1864
17426TIP3   OH273692   3.440   5.600   2.850  0.0338 -0.0283  0.0238
17426TIP3    H173693   3.409   5.527   2.904 -0.8628  0.3695  0.0687
17426TIP3    H273694   3.458   5.562   2.765 -0.8664 -0.2307 -0.0864
17427TIP3   OH273695   3.795   3.377   4.224 -0.7422 -0.1198 -0.0417
17427TIP3    H173696   3.867   3.367   4.287 -1.7572  2.1744  1.6337
17427TIP3    H273697   3.717   3.353   4.275 -1.5347  1.2877 -0.5446
17428TIP3   OH273698   1.767   1.520   1.833  0.1706  0.2100 -0.2067
17428TIP3    H173699   1.834   1.544   1.897  1.0050 -2.1005 -0.1349
17428TIP3    H273700   1.725   1.443   1.870 -2.9125  1.8209 -0.0489
17429TIP3   OH273701   1.092   0.048  13.413  0.5158  0.4041 -0.1697
17429TIP3    H173702   1.066   0.032  13.504 -1.6142  0.6765 -0.6821
17429TIP3    H273703   1.076   0.141  13.400  0.8332  0.3729 -0.8195
17430TIP3   OH273704   4.803   2.506   0.024  0.5997 -0.0719 -0.2481
17430TIP3    H173705   4.822   2.472   0.111  2.2917  0.4089 -0.3847
17430TIP3    H273706   4.727   2.563   0.036  1.7132  1.1839  1.2407
17431TIP3   OH273707   6.738   4.965  15.057  0.0867  0.4171 -0.1385
17431TIP3    H173708   6.647   4.955  15.087  0.8049  0.6132  2.2942
17431TIP3    H273709   6.749   5.060  15.046 -0.0161  0.3833 -0.5806
17432TIP3   OH273710   1.867   6.568  10.504 -0.1945  0.1989 -0.4348
17432TIP3    H173711   1.910   6.556  10.419  0.6437  1.4521 -0.2205
17432TIP3    H273712   1.937   6.553  10.567 -0.8981 -1.0810  0.0749
17433TIP3   OH273713   5.524   6.181  16.005  0.3112 -0.3787  0.2383
17433TIP3    H173714   5.460   6.138  15.949 -1.9959  0.0611  2.3700
17433TIP3    H273715   5.511   6.274  15.991 -1.2182 -0.2126  2.3211
17434TIP3   OH273716   2.007   1.060   0.436 -0.4910  0.6556 -0.5700
17434TIP3    H173717   2.003   1.092   0.526  2.8825  0.2566 -0.1730
17434TIP3    H273718   2.094   1.023   0.427 -0.8034  0.4247 -3.9662
17435TIP3   OH273719   5.352   6.034  11.785  0.3250  0.4444  0.7775
17435TIP3    H173720   5.347   6.092  11.709  1.3349 -1.4078 -0.8056
17435TIP3    H273721   5.446   6.014  11.792 -0.0273 -1.2063  1.0665
17436TIP3   OH273722   6.179   0.266   0.209  0.4160 -0.1079 -0.1391
17436TIP3    H173723   6.246   0.226   0.153  0.0988 -0.8052 -0.0306
17436TIP3    H273724   6.197   0.232   0.297  0.2595  0.1400 -0.0085
17437TIP3   OH273725   2.484   0.293  11.716 -0.1728 -0.7640  0.7141
17437TIP3    H173726   2.499   0.366  11.775  0.7978 -0.6461  0.3454
17437TIP3    H273727   2.572   0.259  11.697 -0.5309 -1.3644  0.0625
17438TIP3   OH273728   0.450   3.070  15.148  0.5268  0.1057 -0.8281
17438TIP3    H173729   0.436   2.984  15.110  0.5933  0.8454 -2.6405
17438TIP3    H273730   0.385   3.078  15.218  3.0512 -2.9326  2.2599
17439TIP3   OH273731   6.747   1.070   4.136 -0.0565  0.5842  0.2481
17439TIP3    H173732   6.723   0.994   4.083  0.4407  0.6142 -0.0278
17439TIP3    H273733   6.665   1.115   4.153 -0.6709 -1.1046  2.1419
17440TIP3   OH273734   3.115   3.950   2.555  1.0085 -0.5300  0.2480
17440TIP3    H173735   3.107   3.932   2.649  0.0519 -1.0229  0.0842
17440TIP3    H273736   3.112   4.046   2.549 -0.0794 -0.5199  0.6436
17441TIP3   OH273737   0.670   0.431  13.645 -0.1175 -0.0675  0.0173
17441TIP3    H173738   0.636   0.451  13.558 -0.1482  0.5767  0.1727
17441TIP3    H273739   0.630   0.497  13.702 -0.1880 -0.5570  0.5352
17442TIP3   OH273740   2.551   3.333  11.577  0.8917  0.7893  0.6418
17442TIP3    H173741   2.546   3.407  11.637 -1.3496  0.7367  0.6221
17442TIP3    H273742   2.549   3.372  11.489  1.6588  0.7695  0.6122
17443TIP3   OH273743   5.361   2.430  15.946  0.2980  0.2169 -0.1216
17443TIP3    H173744   5.441   2.393  15.981 -0.7604 -0.2993  1.9119
17443TIP3    H273745   5.386   2.517  15.915  1.0865  1.5334  3.6817
17444TIP3   OH273746   4.628   3.579  14.371  0.0243  0.2318  0.1205
17444TIP3    H173747   4.660   3.668  14.362 -0.9548  1.0085  3.1057
17444TIP3    H273748   4.685   3.539  14.436 -0.4931 -0.8298 -0.0507
17445TIP3   OH273749   4.861   4.647  10.993 -0.1173 -0.5086 -0.2430
17445TIP3    H173750   4.879   4.716  10.929 -1.1121 -1.2843 -1.4143
17445TIP3    H273751   4.768   4.658  11.014  0.1549 -0.3742  0.9698
17446TIP3   OH273752   2.848   0.280  10.764 -0.1670  0.0063  0.0841
17446TIP3    H173753   2.837   0.335  10.686  1.1769 -0.5858 -0.5606
17446TIP3    H273754   2.940   0.252  10.761 -0.4446 -1.1200  1.1562
17447TIP3   OH273755   5.283   1.537   4.851  0.4760 -0.4532 -0.2529
17447TIP3    H173756   5.355   1.598   4.836 -0.5103  0.6314 -0.6759
17447TIP3    H273757   5.236   1.572   4.926  0.3766 -1.1574  0.0257
17448TIP3   OH273758   6.670   5.452  16.186  0.0221 -0.1345  0.4423
17448TIP3    H173759   6.735   5.508  16.144 -0.5586  0.9030  0.8859
17448TIP3    H273760   6.612   5.426  16.114  0.6281 -0.6654  0.1330
17449TIP3   OH273761   4.353   6.672   4.019 -0.2464  0.1158 -0.4166
17449TIP3    H173762   4.312   6.609   4.079 -0.3262  0.5907  0.0335
17449TIP3    H273763   4.287   6.684   3.949 -1.1418  1.2966  0.5891
17450TIP3   OH273764   0.306   3.661  12.357  0.2891 -0.3582  0.1467
17450TIP3    H173765   0.287   3.654  12.263  0.5573  0.1947  0.0416
17450TIP3    H273766   0.227   3.699  12.395  0.3241 -0.2114  0.0762
17451TIP3   OH273767   6.219   5.469  14.183 -0.4712  0.4920 -0.0336
17451TIP3    H173768   6.250   5.390  14.226 -3.1130 -0.7577 -0.2238
17451TIP3    H273769   6.262   5.469  14.098  0.9953  0.3314  0.6680
17452TIP3   OH273770   3.544   6.835   3.301 -0.4208 -0.0827 -0.0131
17452TIP3    H173771   3.506   6.882   3.227 -0.3265 -0.1508 -0.1044
17452TIP3    H273772   3.487   6.857   3.375 -0.8048 -0.4194 -0.2097
17453TIP3   OH273773   5.058   1.372   5.138  0.5786  0.5694  0.2139
17453TIP3    H173774   5.031   1.415   5.219 -0.6294  0.0247  0.1305
17453TIP3    H273775   5.018   1.424   5.069  0.0896 -0.0035  0.0591
17454TIP3   OH273776   1.908   3.549  12.494  0.1646  0.0337  0.3657
17454TIP3    H173777   1.862   3.606  12.556  2.1801  0.5087  1.4866
17454TIP3    H273778   1.890   3.460  12.527  1.6117  0.2957  1.9875
17455TIP3   OH273779   6.187   6.524   3.540  0.0256  0.0166 -0.0422
17455TIP3    H173780   6.237   6.454   3.581 -0.2734 -2.7516 -3.8300
17455TIP3    H273781   6.095   6.505   3.561 -0.0347 -0.6515 -0.8487
17456TIP3   OH273782   0.857   2.811   4.051 -1.0972 -0.0480 -0.0097
17456TIP3    H173783   0.828   2.811   4.142 -1.3249  0.6304 -0.0827
17456TIP3    H273784   0.916   2.886   4.044 -1.6871  0.3749 -0.6083
17457TIP3   OH273785   3.456   1.136  12.413 -0.6153 -0.0576 -0.7003
17457TIP3    H173786   3.429   1.050  12.446 -0.3107  0.4411  0.9300
17457TIP3    H273787   3.551   1.137  12.425 -0.6592  0.6325 -0.4175
17458TIP3   OH273788   3.284   2.251   2.502  0.2193  0.8064 -0.2754
17458TIP3    H173789   3.237   2.210   2.574 -1.8122  2.5369 -0.5200
17458TIP3    H273790   3.346   2.184   2.473 -2.2375 -1.7615 -0.0866
17459TIP3   OH273791   2.250   0.245  16.903  0.2252  0.4967 -0.0007
17459TIP3    H173792   2.199   0.208  16.974  0.3936 -0.6877 -0.4751
17459TIP3    H273793   2.187   0.295  16.851 -0.2117  0.0351  0.0798
17460TIP3   OH273794   2.115   5.566   2.655 -0.2027 -0.0526 -0.4737
17460TIP3    H173795   2.147   5.515   2.730 -0.5773 -0.8529 -0.8441
17460TIP3    H273796   2.146   5.655   2.671 -0.2540 -0.2250  0.6130
17461TIP3   OH273797   3.532   5.363  14.273 -0.1806  0.5283  0.6528
17461TIP3    H173798   3.581   5.438  14.306 -0.0064  0.5127  0.4277
17461TIP3    H273799   3.460   5.352  14.336 -0.9088  1.6217  0.0459
17462TIP3   OH273800   1.803   2.850  13.575 -0.4146  0.1927  0.3311
17462TIP3    H173801   1.836   2.939  13.581 -0.4498  0.2522 -0.2808
17462TIP3    H273802   1.715   2.854  13.610 -0.6095  0.5121 -0.1870
17463TIP3   OH273803   1.829   3.040   1.230  0.5222  0.3362 -0.8950
17463TIP3    H173804   1.832   2.945   1.239  1.9618  0.1469 -2.7686
17463TIP3    H273805   1.881   3.073   1.303 -0.7506 -0.2236  0.3110
17464TIP3   OH273806   3.757   6.767  17.021  0.1827 -0.0648  0.1067
17464TIP3    H173807   3.848   6.738  17.015 -0.1755 -1.0831 -0.6443
17464TIP3    H273808   3.743   6.783  17.114  1.6884  2.0362  0.0411
17465TIP3   OH273809   0.097   4.818  14.371  0.1854  0.9593  0.2818
17465TIP3    H173810   0.157   4.762  14.322 -0.5565 -0.8950  1.3582
17465TIP3    H273811   0.146   4.843  14.449 -0.3142 -0.4484  1.0972
17466TIP3   OH273812   4.179   5.025  12.004  0.6905 -0.6341  0.1976
17466TIP3    H173813   4.130   5.086  12.060  1.1973 -0.2570  0.2405
17466TIP3    H273814   4.111   4.973  11.961  0.2628 -0.3602  0.5208
17467TIP3   OH273815   5.492   6.686  16.249 -0.0969  0.2136  0.2180
17467TIP3    H173816   5.572   6.728  16.218 -0.8051  1.1815 -0.3491
17467TIP3    H273817   5.522   6.603  16.287  1.2007  0.6897  0.2993
17468TIP3   OH273818   5.134   4.634  16.330 -0.0109  0.3471  0.4589
17468TIP3    H173819   5.176   4.550  16.348 -0.3909  0.0365 -0.0832
17468TIP3    H273820   5.054   4.632  16.382  0.4252  0.7609  1.1592
17469TIP3   OH273821   3.262   1.895   1.070 -0.1100  0.1009  0.3552
17469TIP3    H173822   3.168   1.875   1.071  0.5053 -3.3717  0.0084
17469TIP3    H273823   3.295   1.859   1.152  1.1607 -0.3000 -0.3084
17470TIP3   OH273824   0.033   5.703  12.270 -0.5182  0.4127 -0.5191
17470TIP3    H173825   0.124   5.702  12.241 -0.2467  1.3172  0.2614
17470TIP3    H273826   0.014   5.612  12.295  0.4883  0.4083  0.2845
17471TIP3   OH273827   5.753   6.015   0.220 -0.4749  0.1699  0.3111
17471TIP3    H173828   5.786   5.928   0.240  1.4802  0.5656 -0.9617
17471TIP3    H273829   5.751   6.019   0.125 -1.5727  1.1584  0.3556
17472TIP3   OH273830   2.765   3.449  17.023 -0.3241  0.2886 -0.5489
17472TIP3    H173831   2.835   3.385  17.032 -0.9011 -0.3605 -0.6348
17472TIP3    H273832   2.795   3.525  17.073 -0.3744 -0.6611  0.9641
17473TIP3   OH273833   4.056   6.287  16.383 -0.4615 -0.5232  0.0607
17473TIP3    H173834   4.075   6.196  16.408  1.6783 -0.5294 -1.3427
17473TIP3    H273835   4.139   6.333  16.397 -1.4019  1.1444  0.3656
17474TIP3   OH273836   6.157   5.469   4.333  0.1362  0.4617 -0.0853
17474TIP3    H173837   6.241   5.427   4.345 -0.1305 -0.0295  0.0832
17474TIP3    H273838   6.178   5.559   4.310  0.7003  0.8409  1.7463
17475TIP3   OH273839   3.302   3.696   0.497 -0.0874 -0.3603  0.2015
17475TIP3    H173840   3.348   3.657   0.572 -0.1605  1.7134  1.4224
17475TIP3    H273841   3.215   3.717   0.531 -0.0238  0.8928 -0.3276
17476TIP3   OH273842   5.145   2.040  16.457 -0.5941 -0.2573 -0.3538
17476TIP3    H173843   5.161   1.948  16.438  0.2483 -0.3433  0.6861
17476TIP3    H273844   5.081   2.067  16.391  1.2930 -0.8099 -2.5717
17477TIP3   OH273845   0.082   5.327   2.121 -0.4387  0.2137 -0.3850
17477TIP3    H173846   0.057   5.390   2.190  0.4013  1.1657 -0.9202
17477TIP3    H273847   0.152   5.372   2.073  0.8053 -1.5004 -0.2437
17478TIP3   OH273848   5.020   3.843   1.741  0.1716  0.0472  0.4910
17478TIP3    H173849   4.996   3.927   1.781  1.3141 -0.1664  1.7074
17478TIP3    H273850   4.964   3.779   1.784 -2.2867  0.3548 -1.9890
17479TIP3   OH273851   2.512   0.163  12.064  0.3172 -0.0524  0.1203
17479TIP3    H173852   2.556   0.230  12.011 -0.2260  0.1630 -0.0605
17479TIP3    H273853   2.419   0.183  12.056  0.1927 -0.4028  0.6479
17480TIP3   OH273854   4.747   3.634   5.542 -0.9756 -0.4435 -0.3034
17480TIP3    H173855   4.699   3.709   5.507  0.2211  0.0683 -0.9008
17480TIP3    H273856   4.824   3.627   5.487 -1.5503 -2.7696 -0.9251
17481TIP3   OH273857   2.644   5.501  13.694 -1.3377  0.5129  0.1581
17481TIP3    H173858   2.702   5.571  13.725 -0.8665 -0.2295  0.9829
17481TIP3    H273859   2.637   5.441  13.768 -1.6204 -0.3981 -0.5862
17482TIP3   OH273860   4.412   2.459  11.028 -0.1428 -0.1224  0.2220
17482TIP3    H173861   4.504   2.450  11.055  0.1489  1.3629 -0.1906
17482TIP3    H273862   4.362   2.449  11.109  0.4346 -0.2852  0.5627
17483TIP3   OH273863   1.073   2.916   1.022 -0.0711 -0.1324 -0.2940
17483TIP3    H173864   1.092   2.830   0.985  0.6833  0.6448 -1.7825
17483TIP3    H273865   1.037   2.897   1.109  1.5151 -1.9121  0.0569
17484TIP3   OH273866   2.668   1.369   5.231 -0.6335  0.5150 -0.4971
17484TIP3    H173867   2.577   1.343   5.246 -1.0437  2.8001  1.7373
17484TIP3    H273868   2.720   1.303   5.277 -1.1556 -0.5083 -1.3425
17485TIP3   OH273869   5.540   1.161  13.224  0.2881  0.4769  0.6829
17485TIP3    H173870   5.491   1.227  13.175  0.6164 -0.6408 -1.2668
17485TIP3    H273871   5.473   1.102  13.259  0.0943  0.5322  0.4115
17486TIP3   OH273872   2.143   0.911   1.495 -0.0543 -0.3576  0.0875
17486TIP3    H173873   2.182   0.991   1.529 -1.3223  0.0293  0.6772
17486TIP3    H273874   2.070   0.941   1.441 -1.5353 -1.1225  1.5872
17487TIP3   OH273875   5.291   1.140   4.570 -0.4374 -0.0745 -0.5844
17487TIP3    H173876   5.318   1.213   4.627  0.9509 -1.7988  1.1145
17487TIP3    H273877   5.196   1.150   4.561 -0.2564  2.0431 -0.6062
17488TIP3   OH273878   3.857   0.710  13.104 -0.1695  0.2433  0.7043
17488TIP3    H173879   3.844   0.788  13.050  0.9943  0.2351  0.3866
17488TIP3    H273880   3.769   0.686  13.134 -0.7392  0.7138 -0.5354
17489TIP3   OH273881   4.323   5.066   2.456  0.1320 -0.1858 -0.0727
17489TIP3    H173882   4.374   5.011   2.516 -1.5593 -0.7893  0.8912
17489TIP3    H273883   4.317   5.015   2.376 -1.2102 -1.3587  0.7322
17490TIP3   OH273884   2.231   0.283  12.116 -0.0168  0.2804  0.3242
17490TIP3    H173885   2.136   0.278  12.124 -0.3027 -0.4565 -2.4400
17490TIP3    H273886   2.257   0.354  12.176 -2.2650  0.4232  1.2114
17491TIP3   OH273887   1.712   1.731   6.204 -0.1877 -0.2658 -0.0033
17491TIP3    H173888   1.769   1.672   6.254 -0.0375 -0.0115  0.1297
17491TIP3    H273889   1.748   1.728   6.115  0.6767  0.6728  0.2911
17492TIP3   OH273890   1.322   2.574  16.911 -0.6141  0.2914  0.1377
17492TIP3    H173891   1.311   2.658  16.867 -0.4642 -0.5514 -1.6005
17492TIP3    H273892   1.416   2.569  16.929 -0.5802  0.3922 -0.0071
17493TIP3   OH273893   0.154   3.491   4.864 -0.8307  0.3504  0.8335
17493TIP3    H173894   0.226   3.501   4.802 -0.3487  0.1320  1.3466
17493TIP3    H273895   0.172   3.409   4.909 -1.4075  0.2890  0.9663
17494TIP3   OH273896   0.845   1.343  12.188  0.6335  0.0346 -0.2437
17494TIP3    H173897   0.883   1.280  12.128  2.2179  1.3619 -0.7198
17494TIP3    H273898   0.758   1.308  12.209 -0.6900  0.2497 -4.5151
17495TIP3   OH273899   2.108   0.880  14.085  0.0479  0.4957  0.2427
17495TIP3    H173900   2.144   0.954  14.038  1.0360  1.5725  2.5656
17495TIP3    H273901   2.091   0.814  14.017  3.6076  1.0189 -1.3528
17496TIP3   OH273902   1.242   6.402  15.203 -0.6697 -0.2561  0.2466
17496TIP3    H173903   1.190   6.441  15.273 -0.1851  0.7905  0.0460
17496TIP3    H273904   1.202   6.436  15.122  0.4949  0.8294  0.0944
17497TIP3   OH273905   5.423   4.481   0.498 -0.3087 -0.4942  0.4686
17497TIP3    H173906   5.488   4.411   0.499  1.2257  0.8468  0.0033
17497TIP3    H273907   5.351   4.446   0.446  0.3710 -1.7646  0.3366
17498TIP3   OH273908   3.565   1.780   6.330 -0.0955  0.6689  0.5244
17498TIP3    H173909   3.590   1.838   6.258 -1.8959 -0.2692 -0.9625
17498TIP3    H273910   3.644   1.731   6.350  0.7859  1.8575  0.0936
17499TIP3   OH273911   2.437   3.682  17.027 -0.4300 -0.7114 -0.0688
17499TIP3    H173912   2.481   3.765  17.043 -0.0801 -1.1571  1.4840
17499TIP3    H273913   2.362   3.705  16.972  0.1422  0.4825 -0.3841
17500TIP3   OH273914   1.434   1.596  16.217  0.3217 -0.3343  0.0446
17500TIP3    H173915   1.407   1.571  16.128  1.0611 -0.9532 -0.0215
17500TIP3    H273916   1.438   1.513  16.264  0.5058 -0.0694  0.4975
17501TIP3   OH273917   1.287   0.377   3.612  0.1172  1.0220 -0.1412
17501TIP3    H173918   1.272   0.394   3.519 -0.2526  3.3431  0.2834
17501TIP3    H273919   1.381   0.361   3.619 -0.0819 -0.7688 -1.0936
17502TIP3   OH273920   3.498   5.572   1.530  0.9935 -0.5644  0.0378
17502TIP3    H173921   3.588   5.588   1.557  1.2273  2.2137 -1.9728
17502TIP3    H273922   3.494   5.479   1.511  3.4836 -0.7035 -0.0306
17503TIP3   OH273923   6.614   5.966  15.179 -0.5187  0.2176  0.6518
17503TIP3    H173924   6.616   5.870  15.171 -1.7087  0.0982  1.6664
17503TIP3    H273925   6.679   5.996  15.115 -0.6071 -1.2329 -0.1645
17504TIP3   OH273926   1.423   4.261  11.042  0.4722  0.5550  0.0579
17504TIP3    H173927   1.511   4.270  11.007  0.0894  0.1783 -1.0387
17504TIP3    H273928   1.409   4.166  11.049  0.3310  0.6185  0.6941
17505TIP3   OH273929   5.536   4.968  15.395  0.0527 -0.1039 -0.0402
17505TIP3    H173930   5.517   4.994  15.305 -2.1206 -0.2275  0.3404
17505TIP3    H273931   5.585   4.885  15.386  0.4279  0.2091 -1.0887
17506TIP3   OH273932   4.622   3.396   4.017  0.9214 -0.2183 -1.0453
17506TIP3    H173933   4.529   3.414   4.012  0.9911  0.6323  0.1953
17506TIP3    H273934   4.643   3.350   3.936  0.0500  2.4209 -2.8967
17507TIP3   OH273935   0.645   1.817   2.073 -0.1707 -0.3329 -0.2757
17507TIP3    H173936   0.653   1.809   1.978  1.9617 -2.3384 -0.0161
17507TIP3    H273937   0.580   1.751   2.097  0.0088 -0.4920 -0.2344
17508TIP3   OH273938   5.473   2.047  15.800 -0.6484 -0.2724  0.7228
17508TIP3    H173939   5.455   2.047  15.894  0.0791 -4.5743  1.0743
17508TIP3    H273940   5.565   2.072  15.793 -0.8168  0.4663  1.1033
17509TIP3   OH273941   5.992   4.102   4.262  1.0615  0.2869 -0.1874
17509TIP3    H173942   6.036   4.138   4.339  0.1698  1.6036 -0.2519
17509TIP3    H273943   5.907   4.072   4.294  1.3122 -0.6563 -0.3760
17510TIP3   OH273944   4.194   5.059  11.625  0.2212 -0.5293  0.1460
17510TIP3    H173945   4.188   5.150  11.656  1.9445 -1.2212  2.9046
17510TIP3    H273946   4.106   5.024  11.633 -1.0488  1.4077 -3.2113
17511TIP3   OH273947   4.985   3.881  13.778  0.2980 -0.1850  0.4737
17511TIP3    H173948   5.078   3.877  13.754 -0.3416  0.6492 -2.5424
17511TIP3    H273949   4.967   3.796  13.817  2.1973 -0.5388  0.6962
17512TIP3   OH273950   4.773   2.890  15.288  0.4410  0.1103  0.4477
17512TIP3    H173951   4.844   2.885  15.352  1.3297 -0.4541 -0.5607
17512TIP3    H273952   4.723   2.810  15.301  0.1143  0.3988  1.0025
17513TIP3   OH273953   2.476   4.725   1.184  0.3657  0.3647 -0.4156
17513TIP3    H173954   2.499   4.774   1.105  0.3223  1.4382  0.2163
17513TIP3    H273955   2.494   4.786   1.256 -1.0514 -0.0428  0.3116
17514TIP3   OH273956   6.049   3.425   3.127  0.4905 -0.2003  0.5347
17514TIP3    H173957   6.135   3.448   3.163 -0.6324  0.9831  2.6625
17514TIP3    H273958   5.988   3.442   3.198 -1.4839 -1.5198 -0.7445
17515TIP3   OH273959   3.292   0.136  14.689 -0.1646  0.6873  0.1992
17515TIP3    H173960   3.355   0.071  14.660 -0.6439 -0.3576  1.3995
17515TIP3    H273961   3.341   0.191  14.750  0.4054  1.8742 -1.2779
17516TIP3   OH273962   6.586   0.937   2.076 -0.1090  0.5314 -0.1750
17516TIP3    H173963   6.632   0.891   2.005 -0.0688 -0.6596  0.5958
17516TIP3    H273964   6.635   0.916   2.155 -1.1274  0.4280  0.4525
17517TIP3   OH273965   1.140   1.449   1.712 -0.2093 -0.0363  0.2616
17517TIP3    H173966   1.086   1.395   1.769 -1.4251  0.9331  0.0751
17517TIP3    H273967   1.191   1.504   1.772 -0.3588 -0.0776  0.4250
17518TIP3   OH273968   1.880   1.303  14.346 -0.0063  0.0267 -0.4228
17518TIP3    H173969   1.810   1.241  14.328 -0.3024 -0.0919  1.0772
17518TIP3    H273970   1.849   1.386  14.308 -0.9868 -0.0113  0.2762
17519TIP3   OH273971   3.472   2.857  10.970 -0.0352 -0.6129  0.6651
17519TIP3    H173972   3.565   2.834  10.966 -0.4295 -2.1984 -0.3290
17519TIP3    H273973   3.446   2.837  11.060  0.3459 -1.2176  0.6502
17520TIP3   OH273974   0.858   4.815  14.645 -0.9027 -0.1221 -0.0362
17520TIP3    H173975   0.852   4.834  14.739 -0.1648  0.6945 -0.1459
17520TIP3    H273976   0.870   4.721  14.640  0.0062 -0.0570  0.7389
17521TIP3   OH273977   0.036   3.010  16.265  0.1435 -0.0309  0.3691
17521TIP3    H173978   0.083   3.065  16.202  0.8023 -3.2515 -2.2848
17521TIP3    H273979   0.104   2.952  16.300 -1.1377 -2.3962 -0.7970
17522TIP3   OH273980   6.649   3.966  14.338  0.6121  0.4748 -0.5132
17522TIP3    H173981   6.590   4.040  14.353 -0.6422 -0.3978 -0.8920
17522TIP3    H273982   6.717   3.976  14.403 -0.3758  1.1216  0.4569
17523TIP3   OH273983   2.784   3.046  13.259  0.0677 -0.0876  0.4728
17523TIP3    H173984   2.708   3.072  13.207  0.9039  1.3072 -0.1038
17523TIP3    H273985   2.762   3.073  13.348 -0.8520 -1.3823  0.6866
17524TIP3   OH273986   0.618   2.607  13.914 -0.1811 -0.5569 -0.1468
17524TIP3    H173987   0.707   2.594  13.882 -0.3436  1.6428 -1.7537
17524TIP3    H273988   0.629   2.635  14.005  0.9367  1.2554 -0.7864
17525TIP3   OH273989   4.336   0.199   5.568  0.2840  0.7321  0.2094
17525TIP3    H173990   4.240   0.190   5.569  0.0727  2.6289  1.2897
17525TIP3    H273991   4.355   0.259   5.640  2.3959 -0.3085  0.5830
17526TIP3   OH273992   0.357   0.136  11.859 -0.7213  0.4556 -0.0144
17526TIP3    H173993   0.292   0.105  11.923 -1.0906 -0.5529 -0.8504
17526TIP3    H273994   0.364   0.065  11.796  1.4313  0.4247  0.2029
17527TIP3   OH273995   2.024   1.959  11.022 -0.0182 -0.1636 -0.4646
17527TIP3    H173996   2.049   1.997  10.938  0.0916  0.0563 -0.3330
17527TIP3    H273997   2.010   2.035  11.080  0.0124 -0.3155 -0.2563
17528TIP3   OH273998   1.055   2.494  13.585  0.8385  0.3551  0.4802
17528TIP3    H173999   1.104   2.513  13.505 -0.5277 -1.8901 -1.0095
17528TIP3    H274000   1.117   2.448  13.641  1.3524  0.4807  0.0252
17529TIP3   OH274001   4.202   0.033  14.967 -0.5855  0.4076 -0.0002
17529TIP3    H174002   4.169  -0.052  14.996 -0.3511  0.4331  0.3537
17529TIP3    H274003   4.207   0.026  14.872  0.1206 -0.2284  0.0753
17530TIP3   OH274004   0.861   4.044  15.053 -0.5081 -0.1239  0.5893
17530TIP3    H174005   0.897   3.957  15.070 -1.3426 -0.8832 -1.2484
17530TIP3    H274006   0.877   4.093  15.134  0.2081 -1.8991  1.5757
17531TIP3   OH274007   3.133   3.987  13.638  0.1264 -0.1560  0.0403
17531TIP3    H174008   3.134   3.934  13.718 -1.2434 -3.1771 -1.7907
17531TIP3    H274009   3.052   4.037  13.643  0.5997  0.5511  1.0040
17532TIP3   OH274010   5.063   4.524  11.732  0.3583  0.2324 -0.1195
17532TIP3    H174011   5.028   4.579  11.803  0.9148 -0.7174  0.9222
17532TIP3    H274012   5.118   4.584  11.681 -0.9109  1.1896 -0.4192
17533TIP3   OH274013   5.309   3.454  13.503  0.3996 -0.1990  0.0371
17533TIP3    H174014   5.247   3.525  13.522  0.4069  0.0098 -0.7209
17533TIP3    H274015   5.318   3.408  13.587  2.0136  1.9486  1.1244
17534TIP3   OH274016   5.152   3.876  16.233  0.5607  0.1580  0.1052
17534TIP3    H174017   5.173   3.940  16.302 -1.9470  0.2692  0.8571
17534TIP3    H274018   5.231   3.822  16.226  1.5187  1.2342  1.8372
17535TIP3   OH274019   5.409   6.044  13.430  0.4936  0.1521  0.4379
17535TIP3    H174020   5.443   6.130  13.409  0.5425 -0.0188 -0.1986
17535TIP3    H274021   5.459   5.984  13.375  1.0176 -0.3671  1.4472
17536TIP3   OH274022   1.482   5.951   9.599  0.2172  0.0643 -0.4503
17536TIP3    H174023   1.505   5.892   9.670 -0.1048  0.2342 -0.2062
17536TIP3    H274024   1.567   5.976   9.561  0.3570 -0.4614 -0.4839
17537TIP3   OH274025   6.768   0.405  15.585  0.2055  0.1857  0.4106
17537TIP3    H174026   6.713   0.479  15.611 -0.5890  0.0698 -0.8276
17537TIP3    H274027   6.723   0.328  15.621 -1.7247 -0.1258 -2.3278
17538TIP3   OH274028   2.662   5.023   2.357  0.0550  0.1432 -0.0766
17538TIP3    H174029   2.567   5.014   2.353 -0.2061  1.6248  1.5835
17538TIP3    H274030   2.695   4.934   2.366 -1.2490 -0.3132  0.2958
17539TIP3   OH274031   1.826   5.028  15.748  0.5495  0.1189  0.0351
17539TIP3    H174032   1.770   5.078  15.688  0.3194 -0.9499 -0.6617
17539TIP3    H274033   1.897   4.996  15.692 -0.5375 -2.2969 -0.0834
17540TIP3   OH274034   4.326   1.332  13.121  0.3453  0.4437 -0.4233
17540TIP3    H174035   4.382   1.368  13.052  0.6262  0.2233 -0.3147
17540TIP3    H274036   4.279   1.260  13.077 -0.6931  1.3265 -0.8117
17541TIP3   OH274037   2.359   5.051   4.845 -0.1861 -0.6599  0.0628
17541TIP3    H174038   2.421   4.994   4.891  0.9485 -0.3606 -1.0529
17541TIP3    H274039   2.409   5.087   4.772 -1.0911  1.1882  0.2956
17542TIP3   OH274040   2.126   5.710   2.954 -0.1566  0.1567 -0.2681
17542TIP3    H174041   2.139   5.797   2.991  0.9903  0.5186 -1.4332
17542TIP3    H274042   2.051   5.720   2.895 -0.1131  0.3284 -0.2951
17543TIP3   OH274043   2.351   6.639   2.094 -0.0542 -0.5366  0.0728
17543TIP3    H174044   2.390   6.658   2.179  1.4391 -1.0014 -0.4786
17543TIP3    H274045   2.308   6.721   2.069  1.9577  0.5595  0.0034
17544TIP3   OH274046   0.262   5.993  15.444 -0.6843  0.4446  0.5740
17544TIP3    H174047   0.253   6.085  15.468  1.1079  1.0203 -0.7469
17544TIP3    H274048   0.214   5.984  15.362 -0.2812  0.3737  0.3424
17545TIP3   OH274049   2.788   3.673  15.115  0.4464 -0.1718 -0.0423
17545TIP3    H174050   2.804   3.647  15.206  0.3822 -0.7700 -0.1984
17545TIP3    H274051   2.761   3.592  15.071 -1.8312  0.5074 -0.0593
17546TIP3   OH274052   5.402   5.745   2.098  0.3464 -0.2593 -0.8224
17546TIP3    H174053   5.473   5.721   2.038  1.4808 -0.0439  0.3964
17546TIP3    H274054   5.410   5.840   2.107 -0.0516 -0.2459 -0.6148
17547TIP3   OH274055   3.731   4.614   0.989 -0.0374 -0.4709  0.5946
17547TIP3    H174056   3.755   4.689   0.935 -1.1171 -0.3117  0.3135
17547TIP3    H274057   3.752   4.538   0.935 -3.4770 -0.3126 -1.2278
17548TIP3   OH274058   6.735   5.439   2.852  0.3490  0.0055  0.2145
17548TIP3    H174059   6.739   5.350   2.888 -0.8831 -0.7670 -1.4311
17548TIP3    H274060   6.823   5.473   2.863  1.0244 -1.6635  0.3128
17549TIP3   OH274061   5.261   0.944  16.954  0.1396 -0.0741  0.1779
17549TIP3    H174062   5.235   0.884  16.885  1.3424 -0.0979 -0.2872
17549TIP3    H274063   5.312   1.011  16.908 -0.0050  0.5322  0.8896
17550TIP3   OH274064   5.931   2.931  15.602 -0.0523 -0.5127  0.4132
17550TIP3    H174065   5.864   2.995  15.626  1.6002  0.8607  1.6150
17550TIP3    H274066   5.891   2.879  15.532 -2.7200 -0.4438  1.7870
17551TIP3   OH274067   5.142   2.486  15.316  0.1397  0.1679  0.2396
17551TIP3    H174068   5.050   2.461  15.318  0.3550 -0.6208  2.3876
17551TIP3    H274069   5.188   2.405  15.293  0.3731  0.3278  0.1393
17552TIP3   OH274070   1.182   5.799   0.498  0.4558  0.5636  0.8644
17552TIP3    H174071   1.180   5.732   0.566 -0.4930  0.3100  0.6019
17552TIP3    H274072   1.223   5.755   0.423 -0.9001 -0.0205  0.4220
17553TIP3   OH274073   0.153   6.087   4.145  0.0439 -0.7771  0.3423
17553TIP3    H174074   0.134   6.062   4.236  0.2493  1.5700  1.1131
17553TIP3    H274075   0.098   6.030   4.092 -1.4441 -0.9867  2.0217
17554TIP3   OH274076   3.131   2.581   5.491 -0.2086 -0.1259  0.1436
17554TIP3    H174077   3.142   2.668   5.529 -0.4938  0.5257 -1.2009
17554TIP3    H274078   3.182   2.523   5.548 -1.2988  0.6356  2.0136
17555TIP3   OH274079   5.666   2.491   0.739  0.5400 -0.5612 -0.1927
17555TIP3    H174080   5.624   2.405   0.735 -0.4446 -0.1426  0.7207
17555TIP3    H274081   5.618   2.544   0.675  0.2601 -0.3302  0.2050
17556TIP3   OH274082   2.138   0.148   3.090 -0.7445 -0.6489 -0.0199
17556TIP3    H174083   2.149   0.053   3.090 -2.7839 -1.0487  3.3191
17556TIP3    H274084   2.145   0.173   3.183  0.7423  2.6436 -0.8845
17557TIP3   OH274085   0.056   5.367  10.487 -0.4173 -0.3070 -0.2310
17557TIP3    H174086   0.052   5.461  10.501 -4.0713 -0.1175 -1.4984
17557TIP3    H274087   0.132   5.354  10.430  1.0942  1.5782  1.2213
17558TIP3   OH274088   1.417   6.611   3.440  0.3098  0.2144 -0.3196
17558TIP3    H174089   1.468   6.535   3.466 -0.3289  0.2788  1.2151
17558TIP3    H274090   1.356   6.578   3.374  2.1066  0.0919 -2.0325
17559TIP3   OH274091   0.816   0.941  10.494  0.1114 -0.7203  0.3040
17559TIP3    H174092   0.901   0.897  10.504  0.9550  0.8505  0.2879
17559TIP3    H274093   0.813   0.967  10.402 -0.9499 -1.8256  0.0031
17560TIP3   OH274094   0.287   6.268   0.441 -0.4700 -0.2570 -0.4647
17560TIP3    H174095   0.231   6.206   0.394 -1.3732  0.5949 -0.5558
17560TIP3    H274096   0.230   6.343   0.458  0.4645  0.3523  0.0611
17561TIP3   OH274097   1.627   1.715  14.195  0.1203  0.8096  0.3619
17561TIP3    H174098   1.718   1.703  14.223 -0.0661 -0.4782  0.4802
17561TIP3    H274099   1.579   1.645  14.239 -0.6675  0.5231 -0.8956
17562TIP3   OH274100   4.348   3.681  16.547 -0.0829  1.5229 -0.5757
17562TIP3    H174101   4.342   3.658  16.639  1.5821  1.5194 -0.4481
17562TIP3    H274102   4.391   3.766  16.545  2.3432  0.3832 -1.3882
17563TIP3   OH274103   1.490   3.339  13.714 -0.0164  0.1100 -0.0618
17563TIP3    H174104   1.519   3.298  13.633  1.5321 -0.2574  0.6526
17563TIP3    H274105   1.395   3.325  13.715 -0.2289  0.9871 -2.2619
17564TIP3   OH274106   4.158   3.948  12.587 -0.0907  0.1310 -0.1992
17564TIP3    H174107   4.071   3.946  12.547 -0.4768  0.3226  0.6077
17564TIP3    H274108   4.145   3.994  12.670  1.1050  1.6591 -0.8138
17565TIP3   OH274109   6.340   1.415   1.037 -0.3801 -0.0755  0.0697
17565TIP3    H174110   6.361   1.472   1.110  1.1778  0.3318 -0.6609
17565TIP3    H274111   6.257   1.374   1.061 -0.5842  1.0910  1.4262
17566TIP3   OH274112   4.590   2.705  11.132 -0.1430  0.0122 -0.6188
17566TIP3    H174113   4.633   2.630  11.092 -0.3940 -1.0236  0.9875
17566TIP3    H274114   4.538   2.668  11.204 -0.2820  1.7129  0.2057
17567TIP3   OH274115   1.780   3.304   0.439 -0.0420 -0.0788  0.1258
17567TIP3    H174116   1.798   3.390   0.400 -0.0978 -0.2738 -0.3370
17567TIP3    H274117   1.685   3.292   0.428  0.0238 -0.3630 -0.1556
17568TIP3   OH274118   6.721   3.203   0.893 -0.0783  0.6898  0.2676
17568TIP3    H174119   6.732   3.110   0.872 -0.1036  1.1971 -2.3583
17568TIP3    H274120   6.805   3.229   0.931  0.4008 -0.1207 -0.2001
17569TIP3   OH274121   4.457   6.338  10.153  0.1461  0.1638  0.2303
17569TIP3    H174122   4.456   6.243  10.142  0.6120  0.2049 -0.1881
17569TIP3    H274123   4.544   6.365  10.122 -0.4242  0.8695 -0.8081
17570TIP3   OH274124   3.418   2.167  13.601  0.4851  0.1502  0.7430
17570TIP3    H174125   3.505   2.193  13.631  0.4534 -0.0454  1.0197
17570TIP3    H274126   3.426   2.157  13.507  1.3138 -1.8951  0.9840
17571TIP3   OH274127   2.702   2.589   3.811  0.2676  0.0484  0.1883
17571TIP3    H174128   2.610   2.609   3.795  0.5667  1.6758  0.3935
17571TIP3    H274129   2.704   2.494   3.820 -1.5802  0.0713  1.3488
17572TIP3   OH274130   0.610   1.560   5.470  0.3674 -0.2873  0.4147
17572TIP3    H174131   0.548   1.544   5.541  0.2303 -0.8371  0.1744
17572TIP3    H274132   0.696   1.551   5.511  0.2968 -1.5710  0.3149
17573TIP3   OH274133   2.182   1.314   0.381  0.3415 -0.1403 -0.1492
17573TIP3    H174134   2.137   1.236   0.348  2.3111 -1.6682  0.5525
17573TIP3    H274135   2.270   1.307   0.345  0.5990  1.7320  0.0424
17574TIP3   OH274136   5.324   6.528   6.100  0.4543 -0.3767 -0.0113
17574TIP3    H174137   5.260   6.489   6.160  0.6985 -1.1753 -0.2514
17574TIP3    H274138   5.345   6.613   6.139 -0.3699 -0.3200  0.3351
17575TIP3   OH274139   2.112   3.108  16.548 -0.5571 -0.3299 -0.4214
17575TIP3    H174140   2.171   3.119  16.623 -1.5976 -1.0784  0.5457
17575TIP3    H274141   2.119   3.190  16.499 -0.5168  0.5318  0.9848
17576TIP3   OH274142   1.561   0.606   4.688 -0.6153 -0.8695 -0.1676
17576TIP3    H174143   1.587   0.652   4.767 -0.5033 -0.6124 -0.3549
17576TIP3    H274144   1.528   0.674   4.629 -0.4083 -1.0196 -0.4597
17577TIP3   OH274145   1.599   5.603  15.270  0.2786 -0.1732  0.1317
17577TIP3    H174146   1.664   5.602  15.200  0.1638  0.4873  0.0113
17577TIP3    H274147   1.525   5.554  15.234  0.2870  0.0178 -0.1464
17578TIP3   OH274148   2.864   1.225  11.634 -0.2846 -0.3175 -0.6604
17578TIP3    H174149   2.931   1.269  11.687 -0.5661  2.4210 -2.3743
17578TIP3    H274150   2.913   1.163  11.580  0.6644  0.4214 -0.6810
17579TIP3   OH274151   0.099   4.965   4.262  0.0715  0.5864 -0.2365
17579TIP3    H174152   0.132   5.019   4.190  0.0541  1.2814  0.2582
17579TIP3    H274153   0.015   5.005   4.286 -0.5972 -0.4823 -0.7392
17580TIP3   OH274154   5.688   0.063  14.245 -0.0212  0.0244  0.1885
17580TIP3    H174155   5.718  -0.028  14.237 -1.0681 -0.2977 -0.1046
17580TIP3    H274156   5.769   0.114  14.247  0.6384 -1.0134  1.7701
17581TIP3   OH274157   2.805   5.298   3.444  0.4042  0.6092  0.3605
17581TIP3    H174158   2.803   5.216   3.394  1.7727  1.4430 -1.1555
17581TIP3    H274159   2.879   5.346   3.408 -1.3047  3.2301  0.0485
17582TIP3   OH274160   2.988   5.900  15.043  0.1268 -0.2335  1.0689
17582TIP3    H174161   2.989   5.873  15.135  1.0901 -0.4722  1.0045
17582TIP3    H274162   3.068   5.862  15.007 -1.5660 -2.4535 -0.5715
17583TIP3   OH274163   1.327   4.836  13.616 -0.5472 -0.1922 -0.1956
17583TIP3    H174164   1.414   4.842  13.578 -0.4241 -1.2276 -0.1239
17583TIP3    H274165   1.342   4.828  13.711 -0.7689  0.6312 -0.0878
17584TIP3   OH274166   3.527   3.659   5.085  0.7157 -0.0535 -0.0121
17584TIP3    H174167   3.483   3.647   5.000 -0.2950 -1.0986  0.6267
17584TIP3    H274168   3.458   3.644   5.150  0.6718  3.8469  1.0430
17585TIP3   OH274169   1.643   0.862   3.002  0.1442  0.0342  0.0496
17585TIP3    H174170   1.659   0.845   3.094  2.6981  1.1673 -0.0957
17585TIP3    H274171   1.644   0.958   2.995  2.4950 -0.0199 -1.4464
17586TIP3   OH274172   0.984   1.031  10.733  0.2602 -0.1521 -0.2555
17586TIP3    H174173   0.986   0.991  10.646  0.8853 -0.7893  0.0467
17586TIP3    H274174   0.918   0.980  10.781  0.3830 -0.2192 -0.1578
17587TIP3   OH274175   3.934   0.292   5.939  0.2736 -0.1467 -0.0153
17587TIP3    H174176   3.984   0.367   5.970 -0.0944  0.9507 -1.9053
17587TIP3    H274177   3.898   0.253   6.018  1.0074  1.2729  1.0719
17588TIP3   OH274178   5.751   2.881   2.021 -0.1211 -0.2314 -0.0013
17588TIP3    H174179   5.800   2.853   1.944  0.0239 -0.1635  0.0662
17588TIP3    H274180   5.792   2.964   2.047 -0.2849 -0.1623  0.0415
17589TIP3   OH274181   4.471   0.411  16.570 -0.5161  0.3202 -0.1262
17589TIP3    H174182   4.424   0.327  16.565  1.7320 -1.0637  0.7605
17589TIP3    H274183   4.492   0.430  16.478 -1.0319 -0.0762 -0.3398
17590TIP3   OH274184   5.266   3.691  12.109  0.0180  0.2370 -0.1550
17590TIP3    H174185   5.217   3.609  12.093  1.2264 -0.5912  0.2594
17590TIP3    H274186   5.202   3.760  12.091 -0.5891 -0.7444 -2.1293
17591TIP3   OH274187   0.709   3.929  12.601  0.1509 -0.1413  0.7453
17591TIP3    H174188   0.738   4.015  12.571 -0.0777 -0.1746  0.4273
17591TIP3    H274189   0.653   3.896  12.531 -0.0996 -0.3728  1.0499
17592TIP3   OH274190   4.665   1.309  16.979 -0.0555  0.0556 -0.3741
17592TIP3    H174191   4.754   1.276  16.990  0.2620 -0.6735 -3.9227
17592TIP3    H274192   4.673   1.379  16.914 -2.2999 -2.0469 -3.1632
17593TIP3   OH274193   3.741   1.997  15.872  0.0955  0.0766 -0.2844
17593TIP3    H174194   3.795   2.070  15.841  2.4931 -0.9773  1.1587
17593TIP3    H274195   3.801   1.922  15.874 -1.8690 -1.5638 -0.1516
17594TIP3   OH274196   3.233   5.264   5.207  0.1378 -0.0750  0.3257
17594TIP3    H174197   3.292   5.337   5.229  0.6375 -0.6584  0.9608
17594TIP3    H274198   3.286   5.206   5.153 -0.4554  0.3217 -0.7154
17595TIP3   OH274199   1.683   0.366  15.412 -0.2603 -0.6105 -0.2074
17595TIP3    H174200   1.757   0.384  15.470  0.0706  3.9499 -1.7117
17595TIP3    H274201   1.724   0.327  15.334  0.1627 -0.7631  0.0833
17596TIP3   OH274202   4.323   3.146   0.645  0.0084  0.2438  0.1952
17596TIP3    H174203   4.321   3.051   0.633 -0.4353  0.1230  1.1665
17596TIP3    H274204   4.232   3.171   0.657  0.0399  0.9099 -0.8057
17597TIP3   OH274205   1.546   1.187  16.082  0.9107  0.1118  0.2752
17597TIP3    H174206   1.515   1.253  16.020  0.6638  1.0695  1.3805
17597TIP3    H274207   1.568   1.111  16.027 -1.6775  0.0054 -0.7493
17598TIP3   OH274208   2.980   4.337   0.628 -0.4834 -0.7037 -0.3191
17598TIP3    H174209   3.017   4.250   0.612 -0.5477 -1.1707  1.7200
17598TIP3    H274210   2.905   4.321   0.686 -3.0396  0.3653 -3.0807
17599TIP3   OH274211   0.289   5.426   1.974 -0.6251 -0.2211 -0.7478
17599TIP3    H174212   0.262   5.518   1.965 -0.6331 -0.3055 -1.7682
17599TIP3    H274213   0.335   5.407   1.892 -0.5151 -1.0929 -0.4900
17600TIP3   OH274214   1.709   0.617  10.182  0.4194 -0.2816  0.5920
17600TIP3    H174215   1.703   0.572  10.098  1.8068 -1.0473  0.8718
17600TIP3    H274216   1.749   0.553  10.241 -1.8894 -0.3037  2.2907
17601TIP3   OH274217   6.291   3.834   2.016  0.3018 -0.3314 -0.2502
17601TIP3    H174218   6.201   3.823   1.987  0.0195 -0.2295  0.5746
17601TIP3    H274219   6.305   3.929   2.017  0.6367 -0.3609 -0.9994
17602TIP3   OH274220   5.411   0.748   3.888  0.1016 -0.7728 -0.0813
17602TIP3    H174221   5.451   0.700   3.960  0.2773  1.7320  1.6341
17602TIP3    H274222   5.465   0.826   3.878 -3.0122  1.7399  0.9617
17603TIP3   OH274223   5.122   5.506   4.879  0.2019  0.1429 -0.4613
17603TIP3    H174224   5.199   5.492   4.933 -1.3425 -1.9721  1.3430
17603TIP3    H274225   5.136   5.592   4.839  1.8604  1.4064  2.5666
17604TIP3   OH274226   0.807   1.722   1.270 -0.0960 -0.2982 -0.1691
17604TIP3    H174227   0.868   1.795   1.280 -1.4327  1.1491 -1.8787
17604TIP3    H274228   0.862   1.644   1.272  1.8698  0.9510 -1.8789
17605TIP3   OH274229   2.223   0.311  10.604 -1.1506  0.5024  0.7957
17605TIP3    H174230   2.307   0.331  10.561 -1.6146  1.2526  0.2052
17605TIP3    H274231   2.167   0.280  10.533 -2.4066  3.1885  0.4701
17606TIP3   OH274232   4.328   3.741  13.542  0.3459 -1.3250  0.7387
17606TIP3    H174233   4.275   3.751  13.463  0.7532 -1.8984  0.3878
17606TIP3    H274234   4.418   3.754  13.512  0.3874  0.0172  1.3955
17607TIP3   OH274235   1.448   2.456  11.730 -0.1018  0.3065  0.1557
17607TIP3    H174236   1.512   2.395  11.769 -1.1334 -1.9313 -1.4485
17607TIP3    H274237   1.499   2.505  11.666  0.8642  1.6274  1.8401
17608TIP3   OH274238   3.331   4.922  16.728 -0.9175  0.3648  0.1858
17608TIP3    H174239   3.402   4.962  16.678  0.2262 -1.2943  0.3852
17608TIP3    H274240   3.374   4.890  16.807 -2.0951  0.1664  0.7576
17609TIP3   OH274241   6.515   5.920  13.041 -0.3185 -0.0832 -0.0198
17609TIP3    H174242   6.595   5.936  12.990 -0.9195 -0.8040 -1.2399
17609TIP3    H274243   6.452   5.984  13.008 -1.6887 -2.4848 -2.5472
17610TIP3   OH274244   1.475   4.857  11.327 -0.8212  0.5816  0.2212
17610TIP3    H174245   1.381   4.853  11.313 -0.6607  0.1755 -0.7853
17610TIP3    H274246   1.500   4.946  11.302 -0.3376 -0.4675 -3.6921
17611TIP3   OH274247   2.774   0.836  10.664  0.0567  0.1800 -0.5926
17611TIP3    H174248   2.698   0.808  10.714  0.5214 -0.3163 -0.1553
17611TIP3    H274249   2.760   0.798  10.577 -0.0627 -0.1456 -0.4344
17612TIP3   OH274250   1.988   4.784   3.962 -0.3960  0.1590  0.1979
17612TIP3    H174251   2.069   4.835   3.960  0.5061 -1.2248 -0.5492
17612TIP3    H274252   1.925   4.840   4.009  1.2490  0.8820  1.6662
17613TIP3   OH274253   1.754   0.609  13.718 -0.6126 -0.0058  0.5911
17613TIP3    H174254   1.660   0.611  13.700 -0.4051  0.8316 -0.5549
17613TIP3    H274255   1.793   0.665  13.650  1.0032 -2.4738 -0.6869
17614TIP3   OH274256   6.354   6.835   4.072 -0.1278  0.2359 -0.5497
17614TIP3    H174257   6.449   6.836   4.059 -0.0766 -1.0736 -0.4998
17614TIP3    H274258   6.320   6.786   3.997 -0.6983  0.1520 -0.2420
17615TIP3   OH274259   6.095   4.906  16.344 -0.6581  0.5733  0.3720
17615TIP3    H174260   6.123   4.971  16.280  0.3287 -1.6313 -1.6008
17615TIP3    H274261   6.011   4.874  16.311  0.3857 -1.3855 -0.5733
17616TIP3   OH274262   5.442   2.485   5.734 -0.7234 -0.3505  0.1714
17616TIP3    H174263   5.352   2.483   5.769 -0.6053 -3.6001  0.5624
17616TIP3    H274264   5.492   2.429   5.793  0.9864 -0.6902 -1.5066
17617TIP3   OH274265   5.770   5.006  10.772  0.2981  0.0348 -0.6268
17617TIP3    H174266   5.694   5.064  10.782  1.7425  2.1292 -1.2125
17617TIP3    H274267   5.744   4.946  10.702 -1.5921 -0.7246  0.6308
17618TIP3   OH274268   4.298   5.272  15.883 -1.0799 -0.3850  0.3589
17618TIP3    H174269   4.389   5.301  15.881 -1.5893  1.3195 -0.5311
17618TIP3    H274270   4.302   5.177  15.895  0.8136 -0.3983 -0.1810
17619TIP3   OH274271   4.849   5.599  16.459  0.2011  0.4702 -0.5441
17619TIP3    H174272   4.882   5.689  16.464 -1.6212  1.1397  0.1459
17619TIP3    H274273   4.821   5.590  16.368  1.2948  0.2235 -0.8786
17620TIP3   OH274274   1.909   3.727   2.593  0.0236  0.1641  0.2071
17620TIP3    H174275   1.855   3.788   2.644  0.4035 -1.3727  2.6009
17620TIP3    H274276   1.922   3.771   2.509 -1.2250  2.5470  1.1702
17621TIP3   OH274277   4.091   1.337   1.662 -0.3002 -0.6045  0.6682
17621TIP3    H174278   4.062   1.247   1.674  0.1128 -0.4253  3.7990
17621TIP3    H274279   4.025   1.390   1.705 -0.8585  0.7312 -1.6590
17622TIP3   OH274280   1.131   6.106  14.839  0.3990 -0.2220  0.1944
17622TIP3    H174281   1.089   6.189  14.819  0.4268 -0.4014 -0.6502
17622TIP3    H274282   1.117   6.094  14.933 -0.7978  0.0691  0.0697
17623TIP3   OH274283   5.739   0.554  12.943  0.5124  0.1090 -0.3413
17623TIP3    H174284   5.777   0.466  12.942  0.6583  0.1351  1.0746
17623TIP3    H274285   5.762   0.589  13.029  0.7780  1.6873 -1.0181
17624TIP3   OH274286   2.692   1.637  14.671  0.2203 -0.5364 -0.0169
17624TIP3    H174287   2.615   1.616  14.618  0.6434 -0.5780 -0.6279
17624TIP3    H274288   2.767   1.610  14.617  0.7952  1.9557 -0.6125
17625TIP3   OH274289   5.695   3.450  13.623  0.2276  0.8507  0.4326
17625TIP3    H174290   5.605   3.438  13.594  0.8482 -1.3153 -0.8544
17625TIP3    H274291   5.701   3.404  13.706  0.2947  0.4013  0.1817
17626TIP3   OH274292   1.754   0.456   2.626 -0.1434 -0.0432 -0.4645
17626TIP3    H174293   1.697   0.512   2.678 -1.1884  0.0643 -1.6869
17626TIP3    H274294   1.822   0.516   2.594  0.5007 -0.1083  0.7275
17627TIP3   OH274295   1.753   3.270  11.621  0.0163  0.0384  1.0303
17627TIP3    H174296   1.684   3.327  11.653 -1.0111 -1.4760  1.6287
17627TIP3    H274297   1.825   3.283  11.683 -0.5196  0.0499  1.6661
17628TIP3   OH274298   0.325   0.717  15.258  0.0576  0.2344  0.6393
17628TIP3    H174299   0.290   0.805  15.273 -0.0421  0.2982  0.0680
17628TIP3    H274300   0.249   0.665  15.230  0.7430  1.0154 -3.2691
17629TIP3   OH274301   6.397   4.080  12.269 -0.2137 -0.4395 -0.4762
17629TIP3    H174302   6.449   4.160  12.256 -0.2239 -0.5591 -1.2678
17629TIP3    H274303   6.306   4.109  12.263 -0.2133 -0.6500 -1.6717
17630TIP3   OH274304   2.376   4.901   5.193 -0.4433  0.0107 -0.1254
17630TIP3    H174305   2.316   4.835   5.159  0.2824 -0.0847 -1.2770
17630TIP3    H274306   2.463   4.863   5.180 -0.0795  0.5779  0.5567
17631TIP3   OH274307   6.677   1.402   2.722  0.1909 -0.1826  0.0092
17631TIP3    H174308   6.763   1.362   2.728 -0.1398 -0.8939  0.0955
17631TIP3    H274309   6.616   1.331   2.739 -0.5159 -0.2762 -2.4359
17632TIP3   OH274310   0.338   0.067  14.694 -0.5525 -0.0560  0.2342
17632TIP3    H174311   0.292  -0.014  14.675  0.5916 -0.5495 -0.6040
17632TIP3    H274312   0.420   0.039  14.734 -0.1452  0.6783 -0.0639
17633TIP3   OH274313   3.267   1.494  10.583  0.0247 -0.1766  0.3448
17633TIP3    H174314   3.190   1.539  10.549  0.7459  1.0453  0.2434
17633TIP3    H274315   3.340   1.551  10.558  1.0157 -1.5301  0.0181
17634TIP3   OH274316   6.762   4.363  12.433  0.3596 -0.5148 -0.0365
17634TIP3    H174317   6.705   4.434  12.465  0.0587 -0.6669 -0.2293
17634TIP3    H274318   6.782   4.312  12.511 -0.8473 -1.2208 -0.1705
17635TIP3   OH274319   2.397   0.405   3.614 -0.2622 -0.3518 -0.6368
17635TIP3    H174320   2.435   0.318   3.624 -0.0328 -0.3833 -1.7008
17635TIP3    H274321   2.315   0.390   3.567 -0.0367  0.0466 -1.1567
17636TIP3   OH274322   3.011   5.271  12.471  0.2053  0.1427  0.3760
17636TIP3    H174323   2.953   5.241  12.542 -0.7685 -0.3981 -0.6129
17636TIP3    H274324   2.960   5.258  12.392  1.3579  0.5491 -0.4574
17637TIP3   OH274325   0.646   0.856  14.037 -0.3460 -0.1598  0.0728
17637TIP3    H174326   0.738   0.845  14.009 -0.7331 -0.9993 -0.9549
17637TIP3    H274327   0.621   0.770  14.070 -1.0442 -0.2178 -0.5733
17638TIP3   OH274328   1.704   4.586   6.296 -0.8654 -0.3322 -0.1037
17638TIP3    H174329   1.610   4.570   6.300 -1.6091  1.2169 -4.9714
17638TIP3    H274330   1.711   4.680   6.277  1.7587 -0.3335  0.5348
17639TIP3   OH274331   0.306   1.440   1.118  0.5567 -0.7531 -0.4821
17639TIP3    H174332   0.323   1.355   1.077  0.2000 -0.8684 -0.3934
17639TIP3    H274333   0.336   1.504   1.053  0.2543 -0.9400 -0.8142
17640TIP3   OH274334   0.790   5.417  12.852 -0.0262  0.6450 -0.1831
17640TIP3    H174335   0.757   5.452  12.935 -0.2214 -0.8547  0.3992
17640TIP3    H274336   0.798   5.323  12.867  0.6641  0.4443 -1.6314
17641TIP3   OH274337   1.603   0.670   2.372  0.2470  0.8328  0.2289
17641TIP3    H174338   1.581   0.611   2.299  1.8731  0.7459 -0.2207
17641TIP3    H274339   1.620   0.754   2.330  0.7690  0.8926  0.5503
17642TIP3   OH274340   2.339   4.948  14.830  0.0362  0.2185 -0.1099
17642TIP3    H174341   2.372   4.989  14.909 -1.6986  3.3743 -0.8295
17642TIP3    H274342   2.244   4.942  14.844 -0.2608  0.4773 -1.7544
17643TIP3   OH274343   2.162   0.915   3.621  0.3254  0.0647 -0.0611
17643TIP3    H174344   2.158   0.941   3.713  0.6466  0.5433 -0.1765
17643TIP3    H274345   2.145   0.996   3.572 -1.1871 -0.4546 -0.4250
17644TIP3   OH274346   6.657   1.015   2.591  0.7527  0.9799 -0.1697
17644TIP3    H174347   6.665   1.105   2.562  1.4328  0.6905 -0.9194
17644TIP3    H274348   6.656   0.963   2.511  1.2764  0.2580  0.2681
17645TIP3   OH274349   2.075   5.493  12.193 -0.3931  0.3577 -0.4059
17645TIP3    H174350   2.057   5.399  12.198  1.0655  0.0995  0.6754
17645TIP3    H274351   2.148   5.507  12.254  2.1671  1.4900 -3.4344
17646TIP3   OH274352   6.560   2.042  16.481  0.3657 -0.1528 -0.5922
17646TIP3    H174353   6.564   2.037  16.576 -0.4021  0.2204 -0.5292
17646TIP3    H274354   6.515   2.125  16.463 -3.0041 -1.9300 -1.1811
17647TIP3   OH274355   3.330   1.320  15.176  0.2073 -0.2185 -0.1561
17647TIP3    H174356   3.377   1.250  15.220 -1.0544 -0.5090  0.7755
17647TIP3    H274357   3.268   1.352  15.241  0.7764  1.8101 -0.5339
17648TIP3   OH274358   4.681   1.492   1.431  0.5064  0.0786 -0.0277
17648TIP3    H174359   4.682   1.587   1.435 -1.9205  0.2239 -1.1060
17648TIP3    H274360   4.658   1.472   1.340 -2.4657 -1.4099  0.9370
17649TIP3   OH274361   5.620   3.859  13.880 -0.0892 -0.2066  0.9919
17649TIP3    H174362   5.666   3.810  13.813 -0.7753 -0.0774  0.4125
17649TIP3    H274363   5.545   3.804  13.904 -1.0344  0.6575  0.1209
17650TIP3   OH274364   1.550   4.483   1.110 -0.0641 -1.1014  0.4735
17650TIP3    H174365   1.589   4.397   1.124 -0.5948 -1.4082  0.1347
17650TIP3    H274366   1.462   4.463   1.076 -0.2999 -0.4292  0.6822
17651TIP3   OH274367   6.094   3.695   2.151  0.1396  0.0799 -0.3619
17651TIP3    H174368   6.023   3.711   2.213  1.4226 -0.4074  1.3118
17651TIP3    H274369   6.150   3.772   2.159 -0.6336  0.9089 -2.3759
17652TIP3   OH274370   6.511   5.136   1.801  0.2974  0.8746 -0.3432
17652TIP3    H174371   6.510   5.046   1.770  0.1365  1.4110 -1.9997
17652TIP3    H274372   6.581   5.179   1.750 -0.3415  1.9322 -0.3670
17653TIP3   OH274373   3.439   4.039   6.104 -0.5432  0.6045 -0.4793
17653TIP3    H174374   3.355   3.995   6.118 -0.8045  0.9000 -1.1060
17653TIP3    H274375   3.505   3.973   6.128 -0.9306 -0.0978 -1.2959
17654TIP3   OH274376   1.945   1.498   5.839  0.2311 -0.2169 -0.3135
17654TIP3    H174377   2.001   1.421   5.847  1.2495  0.4975 -0.3499
17654TIP3    H274378   1.999   1.563   5.794 -0.4739  0.6465  0.0413
17655TIP3   OH274379   1.743   0.620  16.319 -0.0290  0.0287  0.3681
17655TIP3    H174380   1.688   0.541  16.313 -0.2334  0.1167  1.0550
17655TIP3    H274381   1.812   0.597  16.382 -0.1454  0.4306  0.6442
17656TIP3   OH274382   1.761   3.221   5.249 -0.0104 -0.1033 -0.3354
17656TIP3    H174383   1.723   3.303   5.216  0.2212 -0.5375 -1.7514
17656TIP3    H274384   1.817   3.248   5.322 -1.4047  0.7783  0.4587
17657TIP3   OH274385   0.684   1.884  16.905  0.4055  0.5506  0.0677
17657TIP3    H174386   0.761   1.832  16.882  1.2695  1.2318  1.3107
17657TIP3    H274387   0.710   1.974  16.888  0.5212  0.9451  2.1057
17658TIP3   OH274388   4.566   0.755  11.280 -0.0294 -0.2833 -0.7218
17658TIP3    H174389   4.624   0.830  11.288 -0.3114 -0.1395  0.1429
17658TIP3    H274390   4.478   0.793  11.269 -0.2202 -0.4701  0.0882
17659TIP3   OH274391   1.765   5.587   4.376  0.8467  0.0266  0.1724
17659TIP3    H174392   1.735   5.510   4.327 -1.7651  1.7611 -1.1433
17659TIP3    H274393   1.859   5.572   4.387  0.7366 -2.5469 -1.5026
17660TIP3   OH274394   1.242   6.113  13.890 -0.6253 -0.8204  0.4851
17660TIP3    H174395   1.246   6.018  13.890  0.6786 -0.7974 -0.9887
17660TIP3    H274396   1.255   6.138  13.799  1.1430  0.8171  1.1210
17661TIP3   OH274397   5.545   1.829   0.761  0.7458  0.1865  0.7446
17661TIP3    H174398   5.473   1.766   0.760 -0.6574  1.6692  2.3650
17661TIP3    H274399   5.518   1.895   0.825  2.4483  2.0886 -0.3997
17662TIP3   OH274400   0.107   3.096  14.970 -0.1308  0.4387 -0.5635
17662TIP3    H174401   0.051   3.041  14.916  0.7870 -1.1093  0.0119
17662TIP3    H274402   0.134   3.040  15.043 -0.3483  2.0894  0.8763
17663TIP3   OH274403   1.140   4.211   5.431 -0.5490 -0.3176  0.1672
17663TIP3    H174404   1.169   4.246   5.516  0.5491 -0.5946 -0.0733
17663TIP3    H274405   1.095   4.130   5.453 -1.6801  0.4053  0.6025
17664TIP3   OH274406   3.513   6.753  14.925 -0.2928 -0.7890  0.3878
17664TIP3    H174407   3.499   6.665  14.890 -2.2555 -0.5498  0.4702
17664TIP3    H274408   3.489   6.812  14.853  0.5148 -0.3182  0.4967
17665TIP3   OH274409   5.586   3.291  11.575  0.5091 -0.3265 -0.7549
17665TIP3    H174410   5.662   3.329  11.619  1.8629 -1.7499 -1.7858
17665TIP3    H274411   5.581   3.337  11.491  0.8773 -0.9640 -1.1292
17666TIP3   OH274412   5.218   1.510  13.549 -0.1655  0.1516  0.0854
17666TIP3    H174413   5.293   1.518  13.607 -2.1528  2.7446  2.5680
17666TIP3    H274414   5.216   1.592  13.500 -1.6822  0.3889  0.4917
17667TIP3   OH274415   0.984   4.856   2.991 -0.3200  0.4599  0.4763
17667TIP3    H174416   0.996   4.788   3.057 -1.8353  0.3028  0.6322
17667TIP3    H274417   1.060   4.913   3.001  1.1025 -1.3001  0.1905
17668TIP3   OH274418   5.791   1.004  14.736  0.0231 -0.2877  0.1749
17668TIP3    H174419   5.754   1.022  14.823  0.4265 -0.7120  0.4372
17668TIP3    H274420   5.781   0.910  14.725 -1.2799 -0.0608 -0.8248
17669TIP3   OH274421   4.867   2.816  11.021  0.0576 -0.7359 -0.2908
17669TIP3    H174422   4.918   2.848  11.096 -2.0481  1.3975  0.3519
17669TIP3    H274423   4.892   2.724  11.013  2.5153 -0.2858  1.1617
17670TIP3   OH274424   1.161   0.087  11.474  0.0145 -0.0173  0.2701
17670TIP3    H174425   1.111   0.085  11.393  0.8900 -0.3459 -0.2728
17670TIP3    H274426   1.247   0.051  11.451  0.5374  0.6143  1.1580
17671TIP3   OH274427   3.858   3.659   3.187 -0.0632 -0.1913  0.6483
17671TIP3    H174428   3.870   3.730   3.249  1.4047 -1.0054  1.3448
17671TIP3    H274429   3.939   3.658   3.136 -1.1174  0.2846 -1.1381
17672TIP3   OH274430   6.722   6.719  13.508 -0.1511 -0.3896 -0.4384
17672TIP3    H174431   6.810   6.742  13.538 -0.4893  0.3119  0.0587
17672TIP3    H274432   6.735   6.648  13.446  1.0782  1.6732 -2.7098
17673TIP3   OH274433   3.192   4.101  16.998 -0.5984  0.3222  0.3642
17673TIP3    H174434   3.248   4.033  17.036  0.7149  1.1448 -0.0227
17673TIP3    H274435   3.252   4.171  16.975 -1.8882  1.5210  0.5176
17674TIP3   OH274436   6.194   0.813  10.777  0.6429 -0.4685  0.3561
17674TIP3    H174437   6.200   0.739  10.839  0.8826 -0.5023  0.2951
17674TIP3    H274438   6.285   0.827  10.749  0.6016 -0.1191  0.4021
17675TIP3   OH274439   1.178   0.614  12.877  1.1206 -0.2850  0.1600
17675TIP3    H174440   1.194   0.529  12.917  0.8791 -1.0895 -1.3959
17675TIP3    H274441   1.266   0.650  12.862  1.2803 -0.9854 -0.6534
17676TIP3   OH274442   2.974   0.041  13.897  0.4308  0.3264  0.3157
17676TIP3    H174443   2.910   0.016  13.964 -0.2364  1.7168  0.2305
17676TIP3    H274444   2.979   0.136  13.904 -0.2022  0.5879 -2.1045
17677TIP3   OH274445   3.592   6.533  13.654  0.0707  0.0038 -0.2965
17677TIP3    H174446   3.581   6.512  13.561  0.4243  0.2503 -0.3945
17677TIP3    H274447   3.610   6.627  13.656  1.4015 -0.2276 -0.0956
17678TIP3   OH274448   1.873   6.231  15.263 -0.1668  0.1995  0.0126
17678TIP3    H174449   1.960   6.250  15.298 -0.2338  0.6368 -0.0542
17678TIP3    H274450   1.816   6.230  15.339 -0.2142  0.5694 -0.0174
17679TIP3   OH274451   3.858   5.303   2.759 -0.0125  0.4262 -0.1690
17679TIP3    H174452   3.765   5.289   2.738 -0.1697  1.0049  0.1038
17679TIP3    H274453   3.879   5.387   2.718 -0.1235  1.2139  1.3158
17680TIP3   OH274454   5.586   4.461  15.414 -0.1231  0.0780 -0.3512
17680TIP3    H174455   5.620   4.534  15.363  3.1381 -2.2207 -1.8020
17680TIP3    H274456   5.664   4.421  15.454 -1.3643 -3.8558 -1.4197
17681TIP3   OH274457   2.710   0.573  13.179  0.7272  0.1962 -0.6161
17681TIP3    H174458   2.803   0.551  13.169  0.4367 -0.8488 -1.0546
17681TIP3    H274459   2.675   0.505  13.237 -0.0539 -0.1802 -1.5132
17682TIP3   OH274460   1.746   0.797   4.513  0.1208  0.5284 -0.3702
17682TIP3    H174461   1.653   0.783   4.529  0.1615 -0.7656 -1.1189
17682TIP3    H274462   1.790   0.723   4.556  0.5703 -0.3514 -2.1986
17683TIP3   OH274463   5.197   1.967   1.802 -0.5128 -0.0409 -0.1644
17683TIP3    H174464   5.102   1.977   1.794 -0.7832 -1.9568  0.1375
17683TIP3    H274465   5.208   1.900   1.869  0.9508 -1.6385 -1.8737
17684TIP3   OH274466   3.450   6.816  11.810  0.2602 -0.6387  0.1003
17684TIP3    H174467   3.543   6.804  11.825 -0.1724 -1.4319  2.4161
17684TIP3    H274468   3.435   6.778  11.723  2.0489 -0.5191 -0.3072
17685TIP3   OH274469   2.385   1.062   0.073  0.9415 -0.4388 -0.5644
17685TIP3    H174470   2.377   0.972   0.043 -1.7625 -0.5509  0.1787
17685TIP3    H274471   2.298   1.100   0.058  1.6339  1.6585  0.3187
17686TIP3   OH274472   1.403   1.115  14.429 -0.2856 -0.3237  0.1993
17686TIP3    H174473   1.312   1.116  14.398 -0.0203 -0.8709 -0.6303
17686TIP3    H274474   1.426   1.023  14.433  0.1280 -0.2016  0.7688
17687TIP3   OH274475   2.101   2.967   3.857 -0.2817 -0.4733 -0.4666
17687TIP3    H174476   2.133   2.953   3.946 -0.4195 -1.1209 -0.5128
17687TIP3    H274477   2.112   3.061   3.842 -0.0620 -0.3941  0.1559
17688TIP3   OH274478   5.164   3.020   1.845 -0.2211  0.4073  0.0958
17688TIP3    H174479   5.251   3.056   1.863  0.1482 -0.5503  0.2805
17688TIP3    H274480   5.181   2.934   1.807 -1.0840  0.4960 -0.5272
17689TIP3   OH274481   5.129   5.710   2.067 -0.2136 -0.1615 -0.5006
17689TIP3    H174482   5.222   5.725   2.084 -0.3446  0.9366 -0.6418
17689TIP3    H274483   5.125   5.621   2.031  0.6527 -0.5810  0.4110
17690TIP3   OH274484   0.058   6.613   2.778 -0.4640  0.0186 -0.5951
17690TIP3    H174485   0.150   6.639   2.777 -0.2341 -0.4878  1.5413
17690TIP3    H274486   0.060   6.518   2.763 -0.6208 -0.0091 -0.4431
17691TIP3   OH274487   3.048   5.220   1.727 -0.3867  0.8454  0.5094
17691TIP3    H174488   3.139   5.194   1.742 -0.7731 -0.6580  0.4519
17691TIP3    H274489   3.021   5.168   1.651 -1.2087  1.4854  0.3537
17692TIP3   OH274490   3.952   5.023  11.403 -0.3059 -0.2816 -0.2119
17692TIP3    H174491   3.973   5.042  11.311  0.4317 -3.7742 -0.9322
17692TIP3    H274492   3.867   4.979  11.399  0.2643 -1.5021  0.5806
17693TIP3   OH274493   4.804   2.423  15.644  0.2274 -0.1359  1.0022
17693TIP3    H174494   4.766   2.341  15.613  0.1471  0.4014 -0.3682
17693TIP3    H274495   4.865   2.397  15.713 -1.8531 -1.1011  2.5971
17694TIP3   OH274496   6.591   3.272  13.981 -0.7545  0.8175  0.8449
17694TIP3    H174497   6.522   3.247  14.043 -1.0851 -2.3073 -0.6023
17694TIP3    H274498   6.549   3.267  13.895  1.0226 -0.4974 -0.0213
17695TIP3   OH274499   1.729   0.614   1.647  0.3418  0.0110 -0.0483
17695TIP3    H174500   1.758   0.590   1.735  0.3260 -0.4645 -0.1701
17695TIP3    H274501   1.686   0.535   1.614 -0.5429  0.4986 -0.1020
17696TIP3   OH274502   5.593   2.345  13.352 -0.0810  0.2011  0.4095
17696TIP3    H174503   5.568   2.281  13.418 -2.1618 -0.5190 -0.9789
17696TIP3    H274504   5.527   2.335  13.283  1.6379  1.3329 -1.4994
17697TIP3   OH274505   5.793   3.705  12.620 -0.6549  0.1705  0.0925
17697TIP3    H174506   5.830   3.621  12.595  0.4276  1.0438 -1.4557
17697TIP3    H274507   5.705   3.685  12.653 -1.1192 -1.3987 -1.9344
17698TIP3   OH274508   0.093   3.706  16.251  0.4184 -0.0472  0.5766
17698TIP3    H174509   0.117   3.796  16.227  2.6355 -0.8544 -0.6248
17698TIP3    H274510   0.115   3.699  16.344  1.6283  0.2845  0.3359
17699TIP3   OH274511   4.686   6.385   0.768 -0.3584 -0.2062  1.0155
17699TIP3    H174512   4.598   6.392   0.805 -0.6837 -2.2490  0.7458
17699TIP3    H274513   4.722   6.473   0.776 -2.1998  0.5451  1.6784
17700TIP3   OH274514   0.649   6.019  11.533  0.1168 -1.4000 -0.0769
17700TIP3    H174515   0.736   5.979  11.534  0.7847 -0.1280 -1.9768
17700TIP3    H274516   0.596   5.961  11.480 -0.1734 -2.0979  0.9575
17701TIP3   OH274517   4.615   4.725  13.842 -0.4389 -0.6176 -0.2322
17701TIP3    H174518   4.547   4.792  13.837  3.0396  3.2833 -1.1417
17701TIP3    H274519   4.618   4.701  13.934 -1.1563  1.3071  0.3432
17702TIP3   OH274520   2.422   2.589   3.918 -0.5947  0.1893  0.2479
17702TIP3    H174521   2.350   2.619   3.862 -0.5956  0.9254  0.6428
17702TIP3    H274522   2.471   2.668   3.940 -0.5946 -0.0854  1.2876
17703TIP3   OH274523   5.647   2.088  16.733 -0.1773 -0.4492 -0.1334
17703TIP3    H174524   5.602   2.048  16.658 -0.8179  1.1263 -0.6451
17703TIP3    H274525   5.690   2.015  16.777 -1.2656 -1.6752 -1.0148
17704TIP3   OH274526   5.145   0.980  11.796  0.0108  0.3348 -0.4855
17704TIP3    H174527   5.100   1.037  11.858 -0.9765 -1.4263  0.5297
17704TIP3    H274528   5.168   1.036  11.722 -0.5366  2.0828  0.6245
17705TIP3   OH274529   5.067   6.417  11.789 -0.2693 -0.2602  0.2795
17705TIP3    H174530   5.054   6.332  11.830  3.6902 -0.5326  1.3664
17705TIP3    H274531   5.097   6.397  11.700  2.2483 -0.1917  1.0421
17706TIP3   OH274532   6.652   2.294  16.059 -0.2336  0.0487  0.2232
17706TIP3    H174533   6.563   2.329  16.062 -0.3102 -0.0809 -0.5573
17706TIP3    H274534   6.654   2.236  15.983  1.0905  1.6033 -1.0038
17707TIP3   OH274535   1.343   1.344   4.658  0.0439 -0.3751  0.4431
17707TIP3    H174536   1.335   1.406   4.586 -1.2416 -0.4245  0.5206
17707TIP3    H274537   1.341   1.398   4.737 -1.3461 -0.4939  0.5217
17708TIP3   OH274538   6.834   3.674  14.190 -0.3253  0.4038 -0.5203
17708TIP3    H174539   6.873   3.608  14.248 -1.0134  0.8003  0.4165
17708TIP3    H274540   6.800   3.623  14.115 -2.8394 -0.6690  1.1960
17709TIP3   OH274541   3.332   5.163   0.567  0.2616 -0.3303  0.4583
17709TIP3    H174542   3.425   5.161   0.588  0.4340  0.2311 -0.2226
17709TIP3    H274543   3.329   5.163   0.471 -0.4056  0.6437  0.4645
17710TIP3   OH274544   1.541   0.436  10.392 -0.0705 -0.1083 -0.1254
17710TIP3    H174545   1.637   0.439  10.382 -0.0677 -0.5754 -0.2333
17710TIP3    H274546   1.527   0.377  10.465 -0.2746  0.0341 -0.0506
17711TIP3   OH274547   1.950   2.039   3.765  0.4419 -0.4384  0.2557
17711TIP3    H174548   2.035   2.071   3.795 -0.1608  0.6426  0.8729
17711TIP3    H274549   1.971   1.961   3.714  1.9441  0.8048 -1.1308
17712TIP3   OH274550   4.983   4.559   0.209  0.4212 -0.0273 -0.2649
17712TIP3    H174551   5.019   4.507   0.281 -0.5950  1.1372  1.1611
17712TIP3    H274552   5.053   4.621   0.187  0.5461 -0.0417  0.0832
17713TIP3   OH274553   5.210   6.355  16.668  0.0172  0.6966  0.8890
17713TIP3    H174554   5.294   6.343  16.624 -0.1677 -0.0357  0.7191
17713TIP3    H274555   5.187   6.446  16.650  0.5634  0.7764  0.5590
17714TIP3   OH274556   2.408   1.703  11.106 -0.3481 -0.1108  0.5766
17714TIP3    H174557   2.477   1.767  11.125 -0.5562  0.0272  0.8624
17714TIP3    H274558   2.338   1.755  11.065  0.5286 -0.5568 -1.6320
17715TIP3   OH274559   6.577   0.333  16.419 -0.3692  0.0261 -0.3617
17715TIP3    H174560   6.655   0.369  16.461  0.3651 -0.4558 -1.2555
17715TIP3    H274561   6.601   0.243  16.398  0.3318  0.8733 -4.0507
17716TIP3   OH274562   6.189   1.117  16.376 -0.4202  1.4505 -0.1594
17716TIP3    H174563   6.104   1.159  16.382 -1.9868 -1.5736  1.2309
17716TIP3    H274564   6.229   1.129  16.462 -1.2898 -0.4847  0.5783
17717TIP3   OH274565   3.463   2.541   0.165 -0.0920  0.4110 -0.0001
17717TIP3    H174566   3.491   2.545   0.074  0.8265  1.2732  0.3003
17717TIP3    H274567   3.537   2.501   0.211 -0.5578 -0.0345  0.3682
17718TIP3   OH274568   1.165   1.655  10.892  0.4524 -0.1731  0.2924
17718TIP3    H174569   1.124   1.612  10.817  0.0142 -0.6880  0.8120
17718TIP3    H274570   1.110   1.631  10.967  0.6560  0.6496  0.7219
17719TIP3   OH274571   4.085   4.416  15.847 -0.2815  0.7247 -0.1689
17719TIP3    H174572   4.129   4.470  15.913  1.9332 -1.7738  0.6118
17719TIP3    H274573   4.123   4.444  15.764  0.0773  1.0726  0.1067
17720TIP3   OH274574   3.226   0.230   3.043  0.2614 -0.1137  0.8303
17720TIP3    H174575   3.213   0.251   3.136  0.4083  0.8132  0.6549
17720TIP3    H274576   3.185   0.304   2.997  0.0792 -0.6295  0.1523
17721TIP3   OH274577   1.610   3.181  12.661  0.1615  0.1407  0.1036
17721TIP3    H174578   1.619   3.156  12.569  1.6184 -1.2232  0.5869
17721TIP3    H274579   1.532   3.134  12.691 -0.0882  0.2759 -0.3101
17722TIP3   OH274580   2.602   3.810   3.813  0.2186 -0.3983  0.0220
17722TIP3    H174581   2.628   3.870   3.743  2.0935  1.0424  1.8048
17722TIP3    H274582   2.602   3.724   3.773  1.3431  0.3557 -1.7243
17723TIP3   OH274583   4.958   3.182  14.234  0.1141  0.5027 -0.0957
17723TIP3    H174584   4.930   3.203  14.323  0.0780  0.6375 -0.1396
17723TIP3    H274585   5.020   3.251  14.211  2.2750 -1.0042  0.8450
17724TIP3   OH274586   4.645   2.419   1.792  0.3990 -0.4618 -0.1156
17724TIP3    H174587   4.642   2.406   1.698 -0.8004  0.4659 -0.2209
17724TIP3    H274588   4.695   2.344   1.825 -0.4522 -1.6093 -1.3421
17725TIP3   OH274589   1.690   4.234  11.781  0.0583  0.0896 -0.0295
17725TIP3    H174590   1.652   4.155  11.742 -2.1554  1.0608  0.0050
17725TIP3    H274591   1.675   4.223  11.875 -2.7527  1.6607 -0.1945
17726TIP3   OH274592   2.571   4.235   3.703  0.0605 -0.6295 -0.5528
17726TIP3    H174593   2.650   4.289   3.709  0.2205 -0.6713 -2.1107
17726TIP3    H274594   2.592   4.157   3.755  1.7684 -1.4748 -2.4011
17727TIP3   OH274595   4.036   0.139   5.561 -0.0491  0.9463 -0.4665
17727TIP3    H174596   4.038   0.052   5.523 -1.3679  0.8237 -0.2949
17727TIP3    H274597   3.946   0.151   5.590  0.9684  0.7759  3.2709
17728TIP3   OH274598   3.890   3.534  12.920 -0.5768 -0.6779  0.0306
17728TIP3    H174599   3.801   3.547  12.953 -0.3416 -0.0988  0.4531
17728TIP3    H274600   3.901   3.439  12.916 -0.7396 -0.7535  1.2680
17729TIP3   OH274601   5.826   3.222   2.401  0.7285  0.3693 -0.2658
17729TIP3    H174602   5.808   3.316   2.402 -1.3041  0.0712 -1.9588
17729TIP3    H274603   5.739   3.181   2.402  1.5367 -1.6355  3.1096
17730TIP3   OH274604   3.652   3.596   0.907  0.1796 -0.3947 -0.2087
17730TIP3    H174605   3.592   3.586   0.834  0.4650  0.5247 -0.5812
17730TIP3    H274606   3.739   3.603   0.866  0.2605  0.9566  0.1477
17731TIP3   OH274607   3.593   1.950   5.778 -0.6638 -0.4648 -0.5518
17731TIP3    H174608   3.580   2.013   5.707 -1.4052 -0.5806 -0.5253
17731TIP3    H274609   3.649   1.996   5.841  1.1022 -0.8185 -1.7831
17732TIP3   OH274610   3.343   1.687  16.796  0.0024  0.4232 -0.3188
17732TIP3    H174611   3.340   1.632  16.875  1.5729 -0.6004 -0.9199
17732TIP3    H274612   3.279   1.647  16.737  0.8391 -0.5436 -0.5935
17733TIP3   OH274613   2.923   1.357   3.421  0.1419  0.3533 -0.2136
17733TIP3    H174614   2.942   1.447   3.450 -2.5856  1.0561 -0.3341
17733TIP3    H274615   2.977   1.302   3.478  0.1625  1.9698  1.4423
17734TIP3   OH274616   6.037   3.908   4.056 -0.7032  0.6813  0.1284
17734TIP3    H174617   6.130   3.917   4.031 -1.3222  0.8042 -2.4527
17734TIP3    H274618   6.024   3.974   4.124  1.0581  0.8081  0.3910
17735TIP3   OH274619   1.342   3.333   0.227 -0.3340 -0.5305  0.4820
17735TIP3    H174620   1.355   3.238   0.239  2.6598 -0.0889  1.6226
17735TIP3    H274621   1.376   3.372   0.307 -0.3290  1.5897 -0.5013
17736TIP3   OH274622   0.233   4.377  15.882 -0.0590 -0.6441  0.6471
17736TIP3    H174623   0.221   4.409  15.971 -2.4094 -0.8594  0.4666
17736TIP3    H274624   0.149   4.391  15.840  1.4095  0.8387 -2.0486
17737TIP3   OH274625   1.428   3.151   3.651  0.2127  0.4749 -0.4788
17737TIP3    H174626   1.410   3.217   3.718  1.8758 -0.1103  0.6076
17737TIP3    H274627   1.511   3.178   3.612 -0.5135  0.5572 -2.0524
17738TIP3   OH274628   0.284   1.434   4.684 -0.1898 -0.2678 -0.4211
17738TIP3    H174629   0.206   1.428   4.628  0.0371  0.9115 -0.8807
17738TIP3    H274630   0.253   1.474   4.765 -0.2495 -0.7322 -0.2094
17739TIP3   OH274631   3.451   0.886  16.544  0.0221 -0.3257 -0.1327
17739TIP3    H174632   3.456   0.981  16.535 -1.0339 -0.2516 -0.0346
17739TIP3    H274633   3.533   0.861  16.587 -0.6828  0.8050  1.9577
17740TIP3   OH274634   4.369   0.192  15.502  0.2908 -0.3651  0.0583
17740TIP3    H174635   4.410   0.226  15.582  0.2604  0.4870 -0.2754
17740TIP3    H274636   4.434   0.134  15.464  0.7672  0.1357  0.1002
17741TIP3   OH274637   6.256   0.045   4.965 -0.7088  0.0139  0.2265
17741TIP3    H174638   6.197   0.088   4.903  0.6540  0.1278 -1.0576
17741TIP3    H274639   6.251  -0.048   4.943  0.7461  0.1870 -0.9806
17742TIP3   OH274640   3.522   3.397  10.927  0.1803  0.3097  0.2180
17742TIP3    H174641   3.579   3.466  10.961  1.3820 -0.6299  0.2120
17742TIP3    H274642   3.465   3.374  11.001  0.1290  0.9382  0.3765
17743TIP3   OH274643   3.106   6.058  13.740  0.2323  0.4474  0.3819
17743TIP3    H174644   3.107   6.019  13.828 -1.3020  1.7359  1.0202
17743TIP3    H274645   3.153   6.141  13.750  0.0063  0.6231  0.0005
17744TIP3   OH274646   0.508   4.668  11.526 -0.0259  0.3792  0.6433
17744TIP3    H174647   0.531   4.619  11.447 -0.5336  0.1572  0.6253
17744TIP3    H274648   0.557   4.625  11.596  1.7624  1.6438  0.2108
17745TIP3   OH274649   1.916   5.280  14.025  1.0767 -0.4268  0.5885
17745TIP3    H174650   1.973   5.233  14.086  2.4147  0.0569 -0.2561
17745TIP3    H274651   1.924   5.372  14.052  2.0628 -0.1423 -0.5640
17746TIP3   OH274652   6.102   0.378   0.908  0.7755 -0.1153  0.0574
17746TIP3    H174653   6.137   0.443   0.969  2.6146 -0.8004 -0.1933
17746TIP3    H274654   6.048   0.428   0.847 -0.0360  0.7637  1.4342
17747TIP3   OH274655   4.021   0.587  12.859 -0.0622  0.2450 -0.2261
17747TIP3    H174656   3.955   0.593  12.790 -0.9783  0.3259  0.6357
17747TIP3    H274657   3.974   0.612  12.939  0.9862  0.1900  0.4210
17748TIP3   OH274658   4.518   1.221  12.102  0.2110  0.1033  0.0938
17748TIP3    H174659   4.504   1.135  12.063  2.8936 -1.2464  1.8895
17748TIP3    H274660   4.537   1.278  12.027 -0.9417 -0.9712 -1.0588
17749TIP3   OH274661   2.410   0.906  16.183  0.4882  0.6315 -0.1400
17749TIP3    H174662   2.328   0.859  16.195  0.3791  0.4741 -1.3196
17749TIP3    H274663   2.448   0.911  16.270 -0.0355 -0.6570  0.1892
17750TIP3   OH274664   5.281   6.270   1.201 -0.2252  0.2317 -0.1824
17750TIP3    H174665   5.279   6.176   1.182  0.6181  0.4078 -1.1779
17750TIP3    H274666   5.196   6.302   1.169  0.1869  0.0989 -1.4586
17751TIP3   OH274667   6.089   4.810   3.895 -0.0457  0.1093 -0.1308
17751TIP3    H174668   6.122   4.799   3.806 -0.9023  0.7188 -0.5406
17751TIP3    H274669   6.027   4.738   3.907 -0.4945  0.4636 -0.3060
17752TIP3   OH274670   3.548   0.412  15.726  0.4609 -0.2965  0.0471
17752TIP3    H174671   3.537   0.507  15.735 -1.2608 -0.5183  0.7489
17752TIP3    H274672   3.519   0.394  15.637  1.1451 -0.1241 -0.2129
17753TIP3   OH274673   3.639   0.922  12.565  0.2962 -0.2038 -0.1117
17753TIP3    H174674   3.713   0.864  12.549 -0.1829 -1.0589  0.7218
17753TIP3    H274675   3.674   0.992  12.621  0.7390  0.0337 -0.6723
17754TIP3   OH274676   3.909   1.958  11.341  0.7758  0.5041  0.3755
17754TIP3    H174677   3.878   1.980  11.429  2.1754  1.2595  0.7069
17754TIP3    H274678   3.996   1.921  11.355  0.4947 -0.5753 -0.6029
17755TIP3   OH274679   4.553   3.178  16.041  0.0090  0.4353 -0.0603
17755TIP3    H174680   4.548   3.261  15.995 -0.0005 -0.2352 -1.3095
17755TIP3    H274681   4.570   3.113  15.972 -1.6503 -0.8188  0.6494
17756TIP3   OH274682   2.239   3.138   4.612 -0.2208  0.1934  1.2541
17756TIP3    H174683   2.317   3.130   4.666  1.4575  0.0036 -1.0333
17756TIP3    H274684   2.229   3.052   4.572 -1.5612  0.2505  1.4397
17757TIP3   OH274685   6.588   0.469  16.149  0.5715  0.4225  0.1314
17757TIP3    H174686   6.613   0.436  16.235 -0.9559  1.2289  0.9388
17757TIP3    H274687   6.562   0.392  16.100 -1.0566  0.1400  1.3192
17758TIP3   OH274688   6.439   2.774   3.400 -0.4369 -0.2500 -0.0133
17758TIP3    H174689   6.479   2.711   3.460 -0.1328  0.6745  0.7758
17758TIP3    H274690   6.512   2.819   3.358 -0.6433 -0.9888 -1.2212
17759TIP3   OH274691   6.828   6.833  16.916  0.0065  0.0561 -0.2229
17759TIP3    H174692   6.806   6.899  16.850  2.2514  0.0564 -1.0514
17759TIP3    H274693   6.764   6.846  16.985  0.3183  3.0740 -0.3781
17760TIP3   OH274694   6.721   5.374   1.937 -0.0750  0.3326 -0.1595
17760TIP3    H174695   6.674   5.424   2.005 -0.3696  1.6545 -1.2920
17760TIP3    H274696   6.783   5.320   1.986 -2.1464 -0.8271  1.3505
17761TIP3   OH274697   4.616   2.545  13.830 -0.3201  0.9821  0.1355
17761TIP3    H174698   4.528   2.537  13.867 -0.4197  0.1972 -0.2508
17761TIP3    H274699   4.603   2.537  13.736  0.3376 -1.1197  0.1623
17762TIP3   OH274700   6.155   5.752  14.114 -0.9957 -0.0554  0.0573
17762TIP3    H174701   6.165   5.695  14.190  0.4865 -0.0430 -0.0870
17762TIP3    H274702   6.218   5.823  14.128 -2.8645  1.6428  0.2715
17763TIP3   OH274703   4.104   4.458   0.180  0.3378 -0.0437 -0.1772
17763TIP3    H174704   4.063   4.372   0.189 -0.4025  0.3853  0.6299
17763TIP3    H274705   4.046   4.518   0.227  2.1092  0.5225  1.4147
17764TIP3   OH274706   2.861   1.723   3.370  0.3906  0.2359  0.2974
17764TIP3    H174707   2.880   1.811   3.404  1.6626 -0.0954  0.4950
17764TIP3    H274708   2.913   1.664   3.424 -0.3259 -0.6371  0.0594
17765TIP3   OH274709   3.582   5.772  10.352  0.5509  0.2634 -0.0429
17765TIP3    H174710   3.585   5.832  10.277  1.3846 -0.6529 -0.7718
17765TIP3    H274711   3.667   5.728  10.350  0.0817 -0.6964  0.6811
17766TIP3   OH274712   4.615   3.280  14.882  0.3273 -0.1554 -0.1924
17766TIP3    H174713   4.524   3.286  14.852  0.6651  0.3155 -1.1679
17766TIP3    H274714   4.638   3.188  14.871 -0.3830 -0.5192  1.1647
17767TIP3   OH274715   0.115   6.684  14.672 -0.4267 -0.5502  0.1561
17767TIP3    H174716   0.155   6.659  14.755 -0.2201 -0.9549 -0.0623
17767TIP3    H274717   0.022   6.670  14.685 -0.5994  1.0794  0.9108
17768TIP3   OH274718   5.254   5.020   5.105  0.4744  0.5233  0.4688
17768TIP3    H174719   5.192   5.052   5.170 -1.3247 -0.9115 -0.4468
17768TIP3    H274720   5.225   5.059   5.023  1.0599  0.1793  0.0908
17769TIP3   OH274721   2.156   2.489  14.969  0.4183 -0.9641  0.1705
17769TIP3    H174722   2.211   2.538  14.908 -0.0354 -0.3309  0.2538
17769TIP3    H274723   2.127   2.554  15.033 -1.6177 -0.9169 -0.7074
17770TIP3   OH274724   2.716   3.321  10.711 -0.3568 -0.8693  0.2859
17770TIP3    H174725   2.712   3.377  10.635  0.0586  0.4158  1.1849
17770TIP3    H274726   2.752   3.238  10.679  0.0928 -0.2481 -0.8387
17771TIP3   OH274727   2.731   2.101   4.930 -0.6508 -0.3203  0.5044
17771TIP3    H174728   2.805   2.053   4.969  0.0643 -0.4574 -0.9539
17771TIP3    H274729   2.764   2.130   4.845 -1.9666  0.4799  0.2504
17772TIP3   OH274730   3.120   6.809   2.368  0.1362 -0.0277  0.8426
17772TIP3    H174731   3.165   6.863   2.433  0.0063 -0.1715  1.0555
17772TIP3    H274732   3.041   6.778   2.413 -0.2858  0.3944  0.4026
17773TIP3   OH274733   4.889   4.734  13.087 -0.0596  0.0148 -0.0624
17773TIP3    H174734   4.830   4.735  13.162  0.2558  1.2054  0.1930
17773TIP3    H274735   4.900   4.642  13.065 -0.8228 -0.2910  0.8250
17774TIP3   OH274736   1.340   2.011  13.700 -0.0556  0.4340  0.1072
17774TIP3    H174737   1.347   2.003  13.795  4.4761  0.6523  0.0062
17774TIP3    H274738   1.295   1.931  13.673 -2.0933  0.6863  2.3683
17775TIP3   OH274739   6.290   6.120  16.598  0.3220  0.1726 -0.6352
17775TIP3    H174740   6.228   6.194  16.602 -1.1980 -1.1033  1.7058
17775TIP3    H274741   6.345   6.131  16.675  0.1424 -1.0958 -0.3176
17776TIP3   OH274742   4.492   6.529  15.510 -0.4575  0.1169 -0.3236
17776TIP3    H174743   4.517   6.438  15.500 -0.8970  0.0831 -1.2633
17776TIP3    H274744   4.546   6.562  15.582  1.1539 -0.3587 -1.2597
17777TIP3   OH274745   2.375   5.171   1.954 -0.0012  0.1344  0.1555
17777TIP3    H174746   2.368   5.257   1.913  0.0837  0.3564  0.5957
17777TIP3    H274747   2.448   5.180   2.016  1.4633 -0.8774 -1.3240
17778TIP3   OH274748   0.328   1.774  12.801 -0.4674  0.1432  0.0522
17778TIP3    H174749   0.352   1.694  12.754  1.7488 -0.6601  2.2953
17778TIP3    H274750   0.342   1.844  12.738  0.6196 -0.9991 -1.0334
17779TIP3   OH274751   4.817   0.794   4.514  0.1288  0.2199 -0.0816
17779TIP3    H174752   4.750   0.862   4.510  0.5755  0.7480  1.0820
17779TIP3    H274753   4.813   0.752   4.428 -0.6086  1.2795 -0.5877
17780TIP3   OH274754   1.778   0.772   3.700  0.5211  0.0448 -0.2852
17780TIP3    H174755   1.813   0.844   3.753 -0.3078 -0.5379  1.1188
17780TIP3    H274756   1.690   0.758   3.734  0.9106 -2.1126  0.0166
17781TIP3   OH274757   5.819   5.898   5.318 -0.3860 -0.0521  0.1162
17781TIP3    H174758   5.905   5.861   5.338 -0.5286  0.3105  1.4682
17781TIP3    H274759   5.775   5.832   5.265  1.4138  0.5216 -2.2676
17782TIP3   OH274760   4.591   3.803  12.220  0.2098 -0.2113  0.2657
17782TIP3    H174761   4.635   3.740  12.163 -1.5474 -1.5705  0.2979
17782TIP3    H274762   4.586   3.759  12.305  1.2385  1.0660  1.0085
17783TIP3   OH274763   3.221   3.403   4.500  0.4824 -0.5477 -0.1347
17783TIP3    H174764   3.282   3.385   4.571 -2.5768 -0.0014  2.8684
17783TIP3    H274765   3.190   3.316   4.473  0.5921 -0.7020  0.2270
17784TIP3   OH274766   4.612   0.143  11.832  0.1335 -0.0821  0.4155
17784TIP3    H174767   4.693   0.156  11.782 -0.4520  0.1505 -0.4914
17784TIP3    H274768   4.642   0.116  11.919  1.1660 -1.2049 -0.2586
17785TIP3   OH274769   0.540   1.582   4.782  0.3204  0.3157 -0.1848
17785TIP3    H174770   0.569   1.582   4.691  0.5322 -0.1053 -0.1179
17785TIP3    H274771   0.587   1.654   4.823  1.0559 -0.1761 -0.1479
17786TIP3   OH274772   5.030   3.926  12.249  0.8554 -0.2501 -0.1295
17786TIP3    H174773   4.967   3.985  12.208  0.9872 -1.3346 -1.9923
17786TIP3    H274774   5.106   3.982  12.267 -0.3140  0.9018  1.4682
17787TIP3   OH274775   5.283   5.722  13.577 -0.4945  0.3156 -0.2722
17787TIP3    H174776   5.285   5.654  13.644 -0.6930 -1.6051 -2.1153
17787TIP3    H274777   5.363   5.773  13.591  0.6115 -1.4358  0.0848
17788TIP3   OH274778   2.638   3.140   0.000  0.3021  0.6204  0.0801
17788TIP3    H174779   2.642   3.162   0.093 -1.2801  0.8284  0.1353
17788TIP3    H274780   2.728   3.149  -0.031  0.7381  1.2279  1.4368
17789TIP3   OH274781   3.554   1.948   0.476 -0.1680  0.0292 -0.3268
17789TIP3    H174782   3.640   1.907   0.484 -0.6986 -1.2975 -1.0787
17789TIP3    H274783   3.506   1.919   0.553  0.2271  1.2770  0.4202
17790TIP3   OH274784   4.346   5.233   4.938  0.2838  0.3868  0.0506
17790TIP3    H174785   4.316   5.268   5.021 -0.8822  0.8529 -0.5395
17790TIP3    H274786   4.269   5.189   4.901  1.4348 -1.9814  0.3123
17791TIP3   OH274787   0.629   5.731  16.537  0.6405  0.5116  0.0331
17791TIP3    H174788   0.594   5.819  16.550  1.1204  0.6698  0.3027
17791TIP3    H274789   0.552   5.674  16.534  0.3434  0.9061  0.1485
17792TIP3   OH274790   1.443   2.772   0.336 -0.5135  0.7490  0.6662
17792TIP3    H174791   1.380   2.792   0.405 -1.6037  0.2820 -0.1536
17792TIP3    H274792   1.414   2.687   0.302  2.2846 -0.9320  2.1680
17793TIP3   OH274793   3.314   2.194   5.491  0.7124  0.1411  0.2458
17793TIP3    H174794   3.307   2.280   5.533  2.0550  0.5227 -0.2785
17793TIP3    H274795   3.252   2.139   5.540  1.0636  0.9761  1.7008
17794TIP3   OH274796   5.027   5.719  15.657 -0.3761 -0.3270  0.1658
17794TIP3    H174797   5.084   5.652  15.618  1.3728  0.5786  1.0309
17794TIP3    H274798   5.076   5.749  15.734 -2.0001  0.6048  0.8724
17795TIP3   OH274799   4.828   1.671  15.933 -0.9887 -0.2574 -0.2201
17795TIP3    H174800   4.797   1.761  15.949 -1.1144 -0.4151  0.4678
17795TIP3    H274801   4.749   1.619  15.927 -0.9064 -0.7220  1.9044
17796TIP3   OH274802   3.323   3.777   6.035  0.1912 -0.1199 -0.0883
17796TIP3    H174803   3.307   3.764   5.941 -0.2121 -1.0376  0.1004
17796TIP3    H274804   3.418   3.788   6.041  0.2825 -0.6065 -0.5423
17797TIP3   OH274805   3.468   2.429   2.659  0.6677 -0.5697  0.2790
17797TIP3    H174806   3.476   2.359   2.724  0.9045 -1.5710 -0.8102
17797TIP3    H274807   3.438   2.386   2.580  0.4457  0.6286 -0.3176
17798TIP3   OH274808   0.574   6.121  15.252  0.4376  0.6777 -0.1619
17798TIP3    H174809   0.651   6.141  15.199  1.6979 -1.7315  0.6165
17798TIP3    H274810   0.607   6.065  15.322 -2.1492 -1.0984 -0.2458
17799TIP3   OH274811   1.946   3.027   5.441 -0.0477 -0.3994  0.1771
17799TIP3    H174812   1.960   3.039   5.347 -1.2796 -2.8054 -0.4045
17799TIP3    H274813   2.033   3.010   5.477  0.2499 -1.1443 -0.8519
17800TIP3   OH274814   1.096   3.642   2.138  0.0274  0.1886  0.3511
17800TIP3    H174815   1.186   3.616   2.118  0.3277 -0.2693  2.1297
17800TIP3    H274816   1.042   3.582   2.086  0.7326  0.4039 -0.6550
17801TIP3   OH274817   0.991   3.670   2.856 -0.4466 -0.3193 -0.1326
17801TIP3    H174818   1.013   3.622   2.777  0.0841 -0.9133  0.3651
17801TIP3    H274819   0.896   3.656   2.867 -0.5393 -0.1467 -0.7110
17802TIP3   OH274820   2.871   4.492   4.406 -0.4305 -0.1067 -0.3929
17802TIP3    H174821   2.831   4.574   4.436  0.6616  0.2606  0.1307
17802TIP3    H274822   2.943   4.477   4.467 -0.3981 -1.2829 -0.6982
17803TIP3   OH274823   3.090   4.548   3.157 -0.2484 -0.1587 -0.1550
17803TIP3    H174824   3.141   4.572   3.234  0.6498 -0.2182 -0.7158
17803TIP3    H274825   3.062   4.458   3.174  0.9350 -0.5894 -0.3931
17804TIP3   OH274826   0.650   2.707   5.530 -0.2209 -0.1173 -0.1173
17804TIP3    H174827   0.584   2.675   5.591  0.3021 -0.1476  0.4402
17804TIP3    H274828   0.669   2.796   5.560  0.8489 -0.5215  0.4599
17805TIP3   OH274829   4.074   4.395  14.866 -0.2025  0.2455  0.7616
17805TIP3    H174830   4.086   4.475  14.917 -3.2199  1.4395 -0.1560
17805TIP3    H274831   4.033   4.333  14.927 -2.4638  1.1847  0.3156
17806TIP3   OH274832   1.857   0.448  10.608 -0.3358 -0.4797  0.3665
17806TIP3    H174833   1.856   0.424  10.515 -1.1243  0.8193  0.0245
17806TIP3    H274834   1.825   0.370  10.652  2.0085 -1.8912 -0.2129
17807TIP3   OH274835   6.209   5.311  10.579 -0.6114  0.2398  0.4250
17807TIP3    H174836   6.289   5.264  10.557  0.3684  1.3021  1.6293
17807TIP3    H274837   6.177   5.345  10.495 -1.4122 -2.5412 -0.5275
17808TIP3   OH274838   3.766   1.876  14.326 -0.1163  0.1140  0.0212
17808TIP3    H174839   3.758   1.891  14.420  1.4756  0.7539  0.0828
17808TIP3    H274840   3.802   1.957  14.291  0.8650 -0.6703 -0.8770
17809TIP3   OH274841   3.132   5.847   1.749  0.4454  0.1608 -0.4695
17809TIP3    H174842   3.158   5.806   1.666 -0.4736  0.1601 -0.7682
17809TIP3    H274843   3.200   5.911   1.766  0.0530  0.9823 -1.8323
17810TIP3   OH274844   2.061   4.128  16.917  0.0213 -0.3644  0.0515
17810TIP3    H174845   2.098   4.167  16.838  0.7819 -0.2933  0.4285
17810TIP3    H274846   2.063   4.199  16.982  0.8674 -0.8552  0.5743
17811TIP3   OH274847   0.359   6.677   1.583  0.3851 -0.0909  0.1295
17811TIP3    H174848   0.446   6.637   1.583  0.6225  0.3587  1.7298
17811TIP3    H274849   0.307   6.622   1.641  0.1317  0.7007  0.6717
17812TIP3   OH274850   6.050   4.451  10.750 -0.1162 -0.1800  0.4466
17812TIP3    H174851   6.050   4.528  10.694 -1.1043 -1.2532 -1.0864
17812TIP3    H274852   6.136   4.411  10.735 -0.2960 -0.3475 -0.1472
17813TIP3   OH274853   3.032   3.926  15.320 -0.0276  0.0887 -0.0275
17813TIP3    H174854   2.967   3.969  15.376  0.4794  0.4163  0.3225
17813TIP3    H274855   2.984   3.904  15.240 -0.7456 -0.3378  0.5116
17814TIP3   OH274856   4.894   4.212   2.295 -0.3476 -0.2824 -0.3320
17814TIP3    H174857   4.800   4.223   2.279 -0.6833  1.2786  2.2169
17814TIP3    H274858   4.935   4.282   2.245 -0.6114 -0.3503 -0.6502
17815TIP3   OH274859   6.344   0.988   1.236  0.0628 -0.4089 -0.4552
17815TIP3    H174860   6.297   1.006   1.155 -0.4866 -0.5179 -0.1651
17815TIP3    H274861   6.277   0.990   1.304  0.2679 -1.8398 -0.1927
17816TIP3   OH274862   4.684   4.763  14.415 -0.4464 -0.2506  0.3014
17816TIP3    H174863   4.682   4.839  14.357  0.3791 -0.9636 -0.7036
17816TIP3    H274864   4.661   4.689  14.359 -2.7236 -0.5995  1.5879
17817TIP3   OH274865   3.881   6.212   1.581 -0.5372  0.2487  0.0559
17817TIP3    H174866   3.944   6.186   1.513 -1.3272 -0.6802 -0.3440
17817TIP3    H274867   3.838   6.290   1.545 -1.0007 -0.2797 -0.5620
17818TIP3   OH274868   6.497   1.203   2.374 -0.3856  0.1455  0.3124
17818TIP3    H174869   6.409   1.190   2.409  0.0463 -1.6815  0.8631
17818TIP3    H274870   6.486   1.201   2.279 -0.8761 -0.6977  0.3770
17819TIP3   OH274871   2.111   4.537  12.040 -0.6029 -0.2574 -1.0379
17819TIP3    H174872   2.114   4.545  12.135  0.4836 -0.7835 -1.0099
17819TIP3    H274873   2.053   4.608  12.011 -0.4759  0.2699 -0.0335
17820TIP3   OH274874   5.179   4.422   0.398  0.5815 -0.2522  0.0360
17820TIP3    H174875   5.132   4.344   0.427 -1.1364  0.7234 -0.0083
17820TIP3    H274876   5.189   4.410   0.304 -0.2048 -0.1659 -0.0659
17821TIP3   OH274877   4.802   0.979   3.197 -0.3464  0.0441 -0.7080
17821TIP3    H174878   4.795   0.893   3.239 -0.1785  0.1430 -0.4744
17821TIP3    H274879   4.883   1.016   3.232 -0.3179  0.2187 -0.9552
17822TIP3   OH274880   3.636   2.505  10.972 -0.6529  0.3892 -0.1747
17822TIP3    H174881   3.587   2.423  10.980 -2.3257  1.5009  2.9379
17822TIP3    H274882   3.670   2.520  11.060 -0.3665  3.0137 -0.6620
17823TIP3   OH274883   0.373   6.117   0.841 -0.1037 -0.1448 -0.1855
17823TIP3    H174884   0.438   6.103   0.910 -1.5395  0.2222  1.2895
17823TIP3    H274885   0.425   6.135   0.763  1.5834  2.0075  1.3330
17824TIP3   OH274886   6.603   5.660  10.858  0.0562  0.1208 -0.0982
17824TIP3    H174887   6.535   5.684  10.920 -0.5925  0.6135 -0.9750
17824TIP3    H274888   6.615   5.738  10.804 -0.3944 -0.7344 -1.4842
17825TIP3   OH274889   6.010   2.035  16.624  0.1198  0.2313  0.2206
17825TIP3    H174890   6.029   2.115  16.574 -0.2280  0.2376  0.0879
17825TIP3    H274891   6.094   2.008  16.659  0.5866 -0.3921 -1.2881
17826TIP3   OH274892   2.261   0.785   2.265 -0.2050 -0.1140 -0.4384
17826TIP3    H174893   2.181   0.802   2.215 -2.9502  0.2305  3.6363
17826TIP3    H274894   2.286   0.871   2.299 -0.0862 -0.7041  1.0063
17827TIP3   OH274895   2.420   6.493  13.631  0.0180 -0.5739 -0.1687
17827TIP3    H174896   2.490   6.428  13.627  2.1522  1.5804  0.1704
17827TIP3    H274897   2.404   6.516  13.540  0.8343 -0.0236 -0.1860
17828TIP3   OH274898   5.234   5.433  13.701 -1.0195  0.0616  0.1100
17828TIP3    H174899   5.140   5.445  13.719 -0.9562  0.6487  0.0558
17828TIP3    H274900   5.275   5.436  13.787 -0.8150  2.0026 -0.0124
17829TIP3   OH274901   2.056   0.236  13.970  0.0280  0.1300 -0.0798
17829TIP3    H174902   1.974   0.276  13.941  0.9832  2.1867 -0.0717
17829TIP3    H274903   2.117   0.309  13.978  2.1681 -1.4609 -1.0136
17830TIP3   OH274904   2.465   2.492   1.920 -0.1686  0.3247 -0.1739
17830TIP3    H174905   2.514   2.547   1.982  0.6244 -0.5108 -0.0290
17830TIP3    H274906   2.458   2.407   1.964 -3.4480  0.8857  0.6461
17831TIP3   OH274907   1.032   3.220  10.548  0.0659  0.0637 -0.7485
17831TIP3    H174908   1.108   3.272  10.519  0.0795  0.4382 -0.0717
17831TIP3    H274909   0.986   3.198  10.467  1.1553 -0.5842 -1.2190
17832TIP3   OH274910   0.150   4.321   1.970  0.0859  0.1646  0.3927
17832TIP3    H174911   0.068   4.301   2.017 -0.2371 -0.2132 -0.3085
17832TIP3    H274912   0.134   4.406   1.931 -0.7526 -0.7424 -1.3648
17833TIP3   OH274913   2.979   3.906  15.027  0.2704 -0.5277  0.1498
17833TIP3    H174914   2.927   3.828  15.045  0.0962 -0.1939  1.1558
17833TIP3    H274915   2.916   3.978  15.023  0.5922 -0.2010  0.8439
17834TIP3   OH274916   4.086   6.513  12.734 -0.6785 -0.4380 -0.0604
17834TIP3    H174917   4.001   6.477  12.758 -0.6395 -0.7268 -0.3517
17834TIP3    H274918   4.114   6.461  12.659 -0.3004 -0.2629 -0.0433
17835TIP3   OH274919   4.312   5.950   3.140 -0.3723 -0.5253 -0.0790
17835TIP3    H174920   4.375   5.892   3.183 -0.7150 -0.2586  0.7896
17835TIP3    H274921   4.349   5.963   3.052  0.8420 -0.2855  0.4494
17836TIP3   OH274922   3.709   5.948  11.698  0.2221  0.3576  0.3575
17836TIP3    H174923   3.617   5.943  11.673  0.7339 -1.4124 -1.4475
17836TIP3    H274924   3.709   5.929  11.792 -1.1883 -0.6498  0.1982
17837TIP3   OH274925   1.943   3.287   9.955 -0.7309  0.4573  0.1793
17837TIP3    H174926   2.029   3.262   9.991 -0.8521 -0.8829 -0.3979
17837TIP3    H274927   1.905   3.344  10.021  0.5285  0.9139  0.5366
17838TIP3   OH274928   0.941   0.726  13.235  0.5525  0.4707  0.1076
17838TIP3    H174929   0.858   0.774  13.235  0.3512  0.1512 -0.9235
17838TIP3    H274930   1.003   0.784  13.280 -0.3989  0.3752  1.6260
17839TIP3   OH274931   5.475   6.019   1.803  0.1805 -0.4922  0.7682
17839TIP3    H174932   5.415   6.088   1.829  0.9466  0.2254  0.6636
17839TIP3    H274933   5.529   6.003   1.881 -0.5797 -1.6355  1.0996
17840TIP3   OH274934   0.036   1.784   0.509  0.2078  0.0865 -0.3969
17840TIP3    H174935   0.062   1.712   0.566 -2.3761 -1.8619 -1.4756
17840TIP3    H274936  -0.055   1.802   0.533 -0.1025  0.9707 -2.1120
17841TIP3   OH274937   4.683   5.505  10.027  0.2986  0.2269 -0.5887
17841TIP3    H174938   4.605   5.452  10.010  0.3368  0.1684 -0.5817
17841TIP3    H274939   4.693   5.505  10.122  0.5501 -0.1146 -0.6141
17842TIP3   OH274940   1.466   0.503  15.480 -0.3741  0.5259 -0.4571
17842TIP3    H174941   1.406   0.478  15.410  0.3863 -1.6879 -0.3837
17842TIP3    H274942   1.553   0.495  15.442 -0.0124  1.0713  0.2214
17843TIP3   OH274943   2.092   4.301  15.032 -0.0925 -0.3307 -0.6199
17843TIP3    H174944   2.107   4.389  15.068  0.5797  0.1395 -1.9806
17843TIP3    H274945   2.007   4.274  15.068  0.2961  0.3217  0.8561
17844TIP3   OH274946   6.063   1.244   4.493 -0.7727 -0.6519 -0.4266
17844TIP3    H174947   6.112   1.216   4.416  0.2634 -1.3454  0.4492
17844TIP3    H274948   6.057   1.339   4.484 -0.9475 -0.7471 -1.5003
17845TIP3   OH274949   3.056   4.794  12.552 -0.4052  0.4316  0.0572
17845TIP3    H174950   3.139   4.790  12.600 -0.7784  1.4032  0.8260
17845TIP3    H274951   3.067   4.867  12.491 -0.6223  0.4287  0.0142
17846TIP3   OH274952   4.821   3.231  16.659 -0.5406  0.1196 -0.3962
17846TIP3    H174953   4.842   3.176  16.584 -1.9210  1.0854 -1.5350
17846TIP3    H274954   4.903   3.236  16.708  0.0888 -1.4393 -1.2219
17847TIP3   OH274955   3.406   4.353  10.810 -0.5895  0.1798  0.0623
17847TIP3    H174956   3.424   4.260  10.795  0.3775  0.2116  0.9298
17847TIP3    H274957   3.339   4.375  10.745  0.1041 -0.8010 -1.0346
17848TIP3   OH274958   0.966   6.743  11.899 -0.4136 -0.5407 -0.0819
17848TIP3    H174959   0.966   6.715  11.807 -0.8380 -1.3913  0.1615
17848TIP3    H274960   1.021   6.677  11.943 -0.3654 -0.2428  0.3045
17849TIP3   OH274961   4.196   0.555  13.186 -0.9557 -0.4362 -0.2409
17849TIP3    H174962   4.178   0.611  13.262 -0.1456 -0.4779 -0.0116
17849TIP3    H274963   4.255   0.488  13.220 -0.5064 -0.3963 -0.9390
17850TIP3   OH274964   6.311   2.541  14.518  0.2875 -0.0986 -0.2296
17850TIP3    H174965   6.344   2.607  14.457  0.0518 -0.4260 -0.7098
17850TIP3    H274966   6.222   2.523  14.489  0.5524 -1.0645 -0.4641
17851TIP3   OH274967   4.693   4.074   4.075  0.2784 -0.7199  0.2229
17851TIP3    H174968   4.640   4.059   3.997 -0.7230 -1.3074  0.9867
17851TIP3    H274969   4.748   4.149   4.053 -0.6960 -0.2520 -0.6937
17852TIP3   OH274970   4.515   3.745  15.725  0.2203 -0.0361  0.5098
17852TIP3    H174971   4.590   3.735  15.785 -0.2212  0.0725  1.0929
17852TIP3    H274972   4.541   3.816  15.666  0.8471 -0.4416  0.2841
17853TIP3   OH274973   2.072   2.898   2.771 -0.5301  1.0120  0.0118
17853TIP3    H174974   2.015   2.822   2.779  1.3177 -0.5142 -0.6351
17853TIP3    H274975   2.106   2.894   2.682  0.9015  1.6116  0.5031
17854TIP3   OH274976   2.325   0.817   5.478  0.0853  0.2728 -0.3156
17854TIP3    H174977   2.404   0.834   5.427  0.2411  0.7912  0.0932
17854TIP3    H274978   2.263   0.782   5.415 -0.1544  2.0811 -1.1316
17855TIP3   OH274979   6.540   4.129   2.180  0.1098 -0.1395  0.1271
17855TIP3    H174980   6.452   4.163   2.160  0.4240  0.9236  0.4595
17855TIP3    H274981   6.535   4.106   2.273 -0.1743 -1.3028 -0.1518
17856TIP3   OH274982   3.831   4.354  13.210  0.2937 -0.1728 -0.4665
17856TIP3    H174983   3.770   4.287  13.241  0.4421  0.2753  0.8693
17856TIP3    H274984   3.802   4.374  13.121 -1.2966 -0.2144  0.0161
17857TIP3   OH274985   0.337   6.098  14.426  0.6842 -0.1156  0.2008
17857TIP3    H174986   0.243   6.100  14.441  0.8689  2.7048  1.6944
17857TIP3    H274987   0.350   6.154  14.349  1.2117  0.9834  1.0525
17858TIP3   OH274988   0.410   0.688  12.032  0.0995  0.4209 -0.1336
17858TIP3    H174989   0.454   0.614  12.075  1.2924  0.0144 -1.9579
17858TIP3    H274990   0.479   0.753  12.020  0.1257  0.0633 -2.4009
17859TIP3   OH274991   0.377   6.512  11.635 -0.0720 -0.2006 -0.0744
17859TIP3    H174992   0.401   6.419  11.642  1.8580  0.1968 -0.7936
17859TIP3    H274993   0.422   6.542  11.556 -1.9196  1.0104 -0.7311
17860TIP3   OH274994   3.408   3.766  15.229 -0.5224  0.3262  0.0794
17860TIP3    H174995   3.435   3.753  15.320  0.4278 -0.3739 -0.2714
17860TIP3    H274996   3.380   3.679  15.200 -2.1774  0.8257  0.0985
17861TIP3   OH274997   6.487   0.488  15.086  0.6093  0.4583  0.0262
17861TIP3    H174998   6.482   0.408  15.033  0.1915  0.3282  0.2562
17861TIP3    H274999   6.576   0.487  15.122  0.1644 -0.6707  1.2005
17862TIP3   OH275000   1.306   3.643   3.670  0.1056  0.2565 -0.4517
17862TIP3    H175001   1.276   3.563   3.627  1.5639 -1.1434  0.9848
17862TIP3    H275002   1.235   3.706   3.656 -1.6172 -1.6235 -0.6577
17863TIP3   OH275003   4.944   6.410  15.044 -0.3642 -0.6160  0.1389
17863TIP3    H175004   4.910   6.496  15.018 -2.2118 -1.0572  0.9606
17863TIP3    H275005   4.868   6.352  15.043  0.8669 -2.3209 -0.5647
17864TIP3   OH275006   5.247   1.778  15.009 -0.1396 -0.5144  0.0537
17864TIP3    H175007   5.225   1.853  14.954 -1.4370 -0.5032  0.5564
17864TIP3    H275008   5.241   1.703  14.950  0.8810 -0.2736 -0.3829
17865TIP3   OH275009   4.762   1.461   1.994  0.2125  0.2817 -0.4853
17865TIP3    H175010   4.696   1.507   1.942 -0.2040  0.9890  0.6241
17865TIP3    H275011   4.801   1.529   2.049  1.6637 -0.1864 -0.9013
17866TIP3   OH275012   1.492   4.544  16.123  0.7565  0.1981  0.9723
17866TIP3    H175013   1.411   4.596  16.132  0.4366 -0.0121 -0.4977
17866TIP3    H275014   1.533   4.577  16.043  1.6995 -0.2975  1.2344
17867TIP3   OH275015   5.150   0.666   2.574  0.1730 -0.2650 -0.5674
17867TIP3    H175016   5.112   0.713   2.648  1.0882 -0.2840 -0.0725
17867TIP3    H275017   5.175   0.734   2.512 -0.2678 -0.2257 -0.7031
17868TIP3   OH275018   4.124   3.346   6.696  0.2599  0.4745 -0.0403
17868TIP3    H175019   4.162   3.325   6.781 -1.4197  0.6973  0.8202
17868TIP3    H275020   4.033   3.370   6.716 -0.9271 -1.8367 -2.1367
17869TIP3   OH275021   6.005   2.540  10.770  0.1135  0.1625 -0.6960
17869TIP3    H175022   6.089   2.551  10.724 -0.2432 -0.5017 -1.5421
17869TIP3    H275023   5.962   2.469  10.722 -1.5680  1.4687 -1.1814
17870TIP3   OH275024   4.677   4.684   5.556 -0.6355 -0.5493 -0.5514
17870TIP3    H175025   4.705   4.672   5.465  2.1159 -1.2306  0.2912
17870TIP3    H275026   4.751   4.653   5.608 -2.3657 -0.7603  1.9595
17871TIP3   OH275027   5.372   3.283  15.410  0.2867 -0.0959  0.1071
17871TIP3    H175028   5.392   3.263  15.502  3.5852  0.5020 -0.3428
17871TIP3    H275029   5.313   3.358  15.415 -0.3299 -0.6435  1.7256
17872TIP3   OH275030   4.752   1.197  12.549  0.0332  0.2694 -0.3550
17872TIP3    H175031   4.810   1.260  12.590 -1.7069  2.0201 -0.4232
17872TIP3    H275032   4.784   1.190  12.459  1.9580 -1.1953  0.3835
17873TIP3   OH275033   4.787   1.522  11.339 -0.2390 -0.1923  0.2143
17873TIP3    H175034   4.862   1.464  11.326 -1.8298 -1.9526 -1.6341
17873TIP3    H275035   4.724   1.471  11.389 -0.9166  0.6421  0.2416
17874TIP3   OH275036   4.061   5.004  10.377  0.4885 -0.4290 -0.6982
17874TIP3    H175037   3.985   5.018  10.320  2.0470  0.4934 -2.7127
17874TIP3    H275038   4.096   5.092  10.391  0.6377 -0.7367  1.0454
17875TIP3   OH275039   6.050   1.094   5.787 -0.3936  0.4324 -0.0632
17875TIP3    H175040   6.002   1.101   5.869 -1.3986  1.8735 -0.7274
17875TIP3    H275041   6.119   1.160   5.794  0.2174 -0.1960  0.0356
17876TIP3   OH275042   4.067   0.753   6.185 -0.2035 -0.0584 -0.4021
17876TIP3    H175043   4.129   0.747   6.257 -0.5507  0.4398 -0.0589
17876TIP3    H275044   4.082   0.841   6.148 -0.4154 -0.0967 -0.5812
17877TIP3   OH275045   1.945   4.890  12.314  0.6726 -0.2548  0.1345
17877TIP3    H175046   1.865   4.838  12.308  0.1692  0.4099  0.9037
17877TIP3    H275047   2.006   4.835  12.363  1.3485 -1.5102 -1.9528
17878TIP3   OH275048   4.992   5.069  15.966 -0.1148  0.2460  0.0372
17878TIP3    H175049   5.023   5.006  16.031 -0.3707 -1.3486 -1.3216
17878TIP3    H275050   5.067   5.084  15.909  0.4195  2.4198  1.1998
17879TIP3   OH275051   3.673   6.572  12.285  0.1634  0.1645  0.6437
17879TIP3    H175052   3.667   6.499  12.347 -2.6087 -0.7765 -0.5816
17879TIP3    H275053   3.745   6.548  12.227 -1.7235 -2.6172 -0.7994
17880TIP3   OH275054   3.919   0.182   6.206  0.1739 -0.1384 -0.1269
17880TIP3    H175055   3.981   0.110   6.221 -1.7605 -1.8427  0.0769
17880TIP3    H275056   3.938   0.245   6.276  0.7363 -1.2948  0.7922
17881TIP3   OH275057   2.286   1.006   0.437  0.3523 -0.0586  1.0350
17881TIP3    H175058   2.315   0.924   0.398 -0.8322  0.4652 -1.0748
17881TIP3    H275059   2.342   1.072   0.397  0.2646  0.3277  1.5454
17882TIP3   OH275060   2.926   3.021  14.881 -0.4772  0.1042  0.4135
17882TIP3    H175061   2.990   3.079  14.923 -0.9819 -0.2790  1.7591
17882TIP3    H275062   2.967   2.997  14.798  1.4205 -0.5927  1.4762
17883TIP3   OH275063   4.167   6.347   4.884  0.2591  0.2582 -0.5796
17883TIP3    H175064   4.250   6.370   4.842  0.7712 -2.0637 -0.9279
17883TIP3    H275065   4.101   6.357   4.816  0.4101  0.9247 -0.6354
17884TIP3   OH275066   4.284   2.164  12.696  0.2532 -0.3962 -0.1362
17884TIP3    H175067   4.259   2.144  12.786  0.4112 -2.3139 -0.4659
17884TIP3    H275068   4.208   2.207  12.658  0.4245  1.0291  1.0753
17885TIP3   OH275069   2.444   4.743   5.418  0.0049  0.0623  0.3939
17885TIP3    H175070   2.423   4.679   5.350 -1.6436 -0.0926  1.0023
17885TIP3    H275071   2.413   4.827   5.382 -0.2355  0.0910  0.6663
17886TIP3   OH275072   0.669   6.131   5.968  0.6703 -0.5953  0.2994
17886TIP3    H175073   0.704   6.043   5.957  1.0532 -1.1216  4.2280
17886TIP3    H275074   0.746   6.186   5.978  0.4445 -0.3633  0.8303
17887TIP3   OH275075   5.271   1.618   6.064  0.2814 -0.0498  0.3578
17887TIP3    H175076   5.269   1.558   6.138 -0.2415 -0.2547  0.1796
17887TIP3    H275077   5.354   1.665   6.074  0.1871 -0.0317  1.0997
17888TIP3   OH275078   2.110   1.763  11.432 -0.1245  0.3140 -0.3852
17888TIP3    H175079   2.165   1.689  11.457 -0.0898  0.5986  0.3893
17888TIP3    H275080   2.082   1.802  11.514 -0.1534  1.1538 -0.7812
17889TIP3   OH275081   2.791   2.603   5.448  0.2159 -0.3783  0.3596
17889TIP3    H175082   2.860   2.618   5.513  0.7611  2.9900 -0.8064
17889TIP3    H275083   2.711   2.601   5.499  0.8343 -0.1509  1.3789
17890TIP3   OH275084   2.371   0.713  13.163 -0.1812 -0.1726 -0.2833
17890TIP3    H175085   2.404   0.802  13.180 -0.8100  0.0098 -0.0084
17890TIP3    H275086   2.390   0.665  13.244 -0.0305 -0.2378 -0.3563
17891TIP3   OH275087   6.659   6.523  12.572  0.3445 -0.5336  0.0351
17891TIP3    H175088   6.751   6.499  12.579  1.3207  2.7902  0.3966
17891TIP3    H275089   6.643   6.580  12.647 -1.5808  0.1143 -0.7992
17892TIP3   OH275090   5.912   6.097   6.289  0.5921 -0.2840 -0.2897
17892TIP3    H175091   5.953   6.153   6.355  1.3590  1.0601 -1.8488
17892TIP3    H275092   5.845   6.048   6.338  1.8205 -0.1278  1.6754
17893TIP3   OH275093   4.835   5.767  12.850 -0.2802  0.8482 -0.3943
17893TIP3    H175094   4.790   5.714  12.915  0.8906  0.4143  0.0815
17893TIP3    H275095   4.846   5.708  12.775  1.2646  0.2758  0.2335
17894TIP3   OH275096   1.470   0.195   3.874 -0.0931  0.3637 -0.0352
17894TIP3    H175097   1.485   0.244   3.955 -0.1420  2.0822 -1.0209
17894TIP3    H275098   1.483   0.104   3.899  2.4433  1.0066  1.3446
17895TIP3   OH275099   1.507   6.836  11.117  0.5273  0.4314  0.3973
17895TIP3    H175100   1.424   6.844  11.071  0.1260 -0.7153  0.8752
17895TIP3    H275101   1.560   6.778  11.063  0.9720  1.0197  0.1808
17896TIP3   OH275102   2.469   5.084   3.558  0.3432 -0.1943  0.5294
17896TIP3    H175103   2.441   4.994   3.543  0.4553 -0.2734  0.7928
17896TIP3    H275104   2.391   5.128   3.592  0.1432 -0.0624 -0.0785
17897TIP3   OH275105   0.067   5.505  15.692  0.4361 -0.2904  0.0930
17897TIP3    H175106   0.148   5.499  15.640  0.1816 -0.2942 -0.3100
17897TIP3    H275107   0.033   5.416  15.694  1.2503 -0.6075  1.6045
17898TIP3   OH275108   3.975   6.557   2.859 -0.3405  0.2121  0.2311
17898TIP3    H175109   3.896   6.562   2.912 -0.0977  2.5943  0.4847
17898TIP3    H275110   3.952   6.600   2.777 -0.1673 -1.8034 -0.9283
17899TIP3   OH275111   5.368   6.650   2.483  0.1679 -0.1479  0.4234
17899TIP3    H175112   5.379   6.715   2.552  0.6208 -1.2157  1.4058
17899TIP3    H275113   5.456   6.614   2.470  0.6391  1.7332 -2.5325
17900TIP3   OH275114   5.758   6.822  11.810  0.6598 -0.0622 -0.0743
17900TIP3    H175115   5.811   6.868  11.745  0.0814 -0.7055 -1.0237
17900TIP3    H275116   5.668   6.843  11.785  0.4087 -1.1550 -0.1013
17901TIP3   OH275117   4.105   4.115   6.566  0.1231  0.7724 -0.1712
17901TIP3    H175118   4.183   4.169   6.554  1.8130 -1.3438  0.5667
17901TIP3    H275119   4.139   4.026   6.576 -2.4566 -0.3419 -0.4851
17902TIP3   OH275120   5.814   6.240  16.368 -0.0980 -0.1313 -0.1065
17902TIP3    H175121   5.795   6.333  16.383  0.0123  0.1861 -1.6829
17902TIP3    H275122   5.736   6.206  16.325 -0.7223 -1.1669  1.7471
17903TIP3   OH275123   1.863   4.150  16.378 -0.2747  0.0261  0.4872
17903TIP3    H175124   1.831   4.155  16.468 -0.5187  0.1202  0.3974
17903TIP3    H275125   1.941   4.094  16.383 -1.3514 -1.5485  0.4622
17904TIP3   OH275126   3.344   5.397  12.604 -0.1665 -0.2379 -0.4141
17904TIP3    H175127   3.350   5.425  12.513 -0.1280 -0.5862 -0.5193
17904TIP3    H275128   3.303   5.311  12.600 -0.6338 -0.0304 -0.0641
17905TIP3   OH275129   6.016   4.612   5.914  0.1577 -0.2016  0.0201
17905TIP3    H175130   6.095   4.562   5.891 -0.5307 -1.2111 -0.2291
17905TIP3    H275131   6.044   4.669   5.985  0.7405 -1.7246  1.0754
17906TIP3   OH275132   4.190   5.847   0.343 -0.4499 -0.1144  0.4005
17906TIP3    H175133   4.217   5.830   0.433 -0.4525 -1.5240  0.1577
17906TIP3    H275134   4.166   5.940   0.342  2.1458  0.6536  1.1925
17907TIP3   OH275135   2.692   5.293  14.979 -0.0494  0.0486 -0.3108
17907TIP3    H175136   2.664   5.254  14.896  0.3012 -0.8461 -0.0268
17907TIP3    H275137   2.612   5.300  15.030 -0.3599  1.1206 -0.9120
17908TIP3   OH275138   6.234   0.992  15.952  0.2005  0.3456  0.5978
17908TIP3    H175139   6.289   0.920  15.982  1.1192 -1.2408 -4.0701
17908TIP3    H275140   6.156   0.950  15.916 -0.8640  1.9864  0.8755
17909TIP3   OH275141   5.440   3.318  10.255 -0.3400  0.4734 -0.3448
17909TIP3    H175142   5.392   3.387  10.301 -0.6256 -0.9679  1.6737
17909TIP3    H275143   5.515   3.300  10.312  0.6402  0.2389 -1.6797
17910TIP3   OH275144   3.220   4.760  16.548 -0.1343  0.2116 -0.3725
17910TIP3    H175145   3.272   4.816  16.606  0.1527 -0.6992  0.2659
17910TIP3    H275146   3.283   4.723  16.487 -0.2518  0.2352 -0.5088
17911TIP3   OH275147   0.615   4.908  13.229  0.1873  0.1669  0.4067
17911TIP3    H175148   0.590   4.815  13.224 -1.3633  0.5929 -0.1833
17911TIP3    H275149   0.650   4.918  13.318 -0.5666 -0.7573  0.8263
17912TIP3   OH275150   1.159   0.458  12.421 -0.3225 -0.9075 -0.1684
17912TIP3    H175151   1.128   0.535  12.374  1.2874  0.9682  1.6324
17912TIP3    H275152   1.187   0.397  12.353  0.4961  1.0471 -1.6571
17913TIP3   OH275153   3.180   4.845   0.390  0.2918  0.0710  0.1916
17913TIP3    H175154   3.191   4.771   0.450 -0.0353 -0.0127  0.1516
17913TIP3    H275155   3.225   4.818   0.310 -0.8748 -0.6166 -0.2683
17914TIP3   OH275156   3.141   3.620  12.473 -0.0484 -0.3330  0.2234
17914TIP3    H175157   3.138   3.579  12.560  1.6748 -1.1049 -0.0449
17914TIP3    H275158   3.226   3.664  12.470 -0.7922  1.1190 -0.4738
17915TIP3   OH275159   1.058   6.161  14.419  0.2444  0.0114 -0.1548
17915TIP3    H175160   1.072   6.248  14.455 -0.6688 -0.4358  1.3499
17915TIP3    H275161   0.962   6.150  14.418  0.3547 -1.2255  0.3457
17916TIP3   OH275162   1.226   5.072   5.783 -0.2318  0.1435  0.1615
17916TIP3    H175163   1.276   5.154   5.790 -0.0100  0.2255 -1.8938
17916TIP3    H275164   1.292   5.003   5.791 -0.3897  0.1255  1.6618
17917TIP3   OH275165   6.360   1.039   3.004 -0.2599  0.0618 -0.1329
17917TIP3    H175166   6.409   0.995   3.073 -0.8059  0.8632  0.7880
17917TIP3    H275167   6.348   1.128   3.036  0.4172  0.7752 -1.7572
17918TIP3   OH275168   0.918   2.905  10.637 -0.2851 -0.0219  0.9289
17918TIP3    H175169   0.925   2.979  10.697  0.3187 -0.6108  1.5968
17918TIP3    H275170   0.895   2.945  10.553  1.1384  1.0420  1.0171
17919TIP3   OH275171   3.171   3.264   2.695 -0.3798 -0.4156 -0.4329
17919TIP3    H175172   3.107   3.202   2.730  1.1975 -1.5011  0.6780
17919TIP3    H275173   3.196   3.318   2.769  1.1305 -1.0686 -0.4162
17920TIP3   OH275174   4.130   6.047  11.941 -0.4777  0.4061 -0.2486
17920TIP3    H175175   4.051   6.059  11.993  0.3303  0.2310  1.0693
17920TIP3    H275176   4.180   5.980  11.988  1.0059  1.3791 -0.3600
17921TIP3   OH275177   0.608   2.223  11.460 -0.1453 -0.4550 -0.6066
17921TIP3    H175178   0.655   2.292  11.414  0.2038 -0.7580 -0.7167
17921TIP3    H275179   0.517   2.252  11.463 -0.2006 -0.4881 -1.6049
17922TIP3   OH275180   5.562   3.590   4.111 -0.0096  0.1166 -0.0902
17922TIP3    H175181   5.557   3.555   4.200 -2.6215  2.2698  0.7579
17922TIP3    H275182   5.573   3.513   4.055 -0.3959 -1.5146  1.9631
17923TIP3   OH275183   5.148   0.637  12.684 -0.1391 -0.0467  0.1641
17923TIP3    H175184   5.165   0.548  12.715 -0.5702 -0.1601  0.0869
17923TIP3    H275185   5.086   0.673  12.747  0.6410  0.4816  0.6413
17924TIP3   OH275186   6.374   2.123  14.789 -0.0636 -0.2878  0.1845
17924TIP3    H175187   6.446   2.064  14.811  0.0790  0.1045  0.7964
17924TIP3    H275188   6.336   2.087  14.709  0.9185 -0.4144 -0.2373
17925TIP3   OH275189   4.829   2.568   2.370 -0.5752  0.0765  0.0601
17925TIP3    H175190   4.833   2.660   2.394 -0.3757 -0.0971  0.7026
17925TIP3    H275191   4.790   2.568   2.282  0.1015  0.8163 -0.2514
17926TIP3   OH275192   2.158   3.511  17.006 -0.1074  0.0160 -0.1524
17926TIP3    H175193   2.239   3.513  17.058 -0.5609 -2.7863  0.8401
17926TIP3    H275194   2.108   3.587  17.036  0.3555 -0.6021  2.4136
17927TIP3   OH275195   6.597   3.215   1.576 -0.4445 -0.2232 -0.3787
17927TIP3    H175196   6.665   3.263   1.624 -1.5216  0.8316  0.1499
17927TIP3    H275197   6.543   3.284   1.536 -1.4446 -1.0254 -0.4418
17928TIP3   OH275198   0.394   6.582   5.575 -0.0870  0.1112  0.3813
17928TIP3    H175199   0.480   6.624   5.566  0.0598 -0.0503  1.0336
17928TIP3    H275200   0.378   6.580   5.669 -0.0936 -1.3043  0.3653
17929TIP3   OH275201   1.343   6.118   2.197 -1.0510  0.3439 -0.4234
17929TIP3    H175202   1.403   6.144   2.127 -0.9529  1.1370 -0.0520
17929TIP3    H275203   1.385   6.042   2.238  1.6516  2.9672  2.2160
17930TIP3   OH275204   6.647   4.012   1.093  0.3714 -0.5447 -0.3082
17930TIP3    H175205   6.739   4.013   1.068  0.7386 -0.7923  0.9754
17930TIP3    H275206   6.635   3.929   1.139 -0.0385  0.2763  1.1097
17931TIP3   OH275207   3.923   2.602  13.660 -0.2389  0.2137 -0.1504
17931TIP3    H175208   3.874   2.521  13.648  2.4371 -1.4709 -0.3208
17931TIP3    H275209   3.961   2.620  13.573  0.8203  0.5206  0.3612
17932TIP3   OH275210   3.155   4.071  10.908  0.2101  0.0041  0.7168
17932TIP3    H175211   3.080   4.096  10.854  1.2436  0.2861 -0.6410
17932TIP3    H275212   3.229   4.068  10.847  0.7802 -3.2725  1.3700
17933TIP3   OH275213   5.326   3.841   4.008 -0.1235 -0.1160  0.3871
17933TIP3    H175214   5.354   3.754   3.979 -0.7365 -0.2098  0.0664
17933TIP3    H275215   5.408   3.890   4.018  0.3096 -0.9999  1.4938
17934TIP3   OH275216   0.316   1.824   0.370  0.3394 -0.4637 -0.3785
17934TIP3    H175217   0.279   1.843   0.456 -1.9557 -0.3315 -1.3040
17934TIP3    H275218   0.405   1.860   0.373 -0.6922  2.2827  0.9668
17935TIP3   OH275219   3.171   4.566  11.529 -0.1222 -0.6303 -0.2363
17935TIP3    H175220   3.097   4.506  11.534  0.0152 -0.8980 -1.1929
17935TIP3    H275221   3.244   4.512  11.500  0.5597 -0.4492  1.0596
17936TIP3   OH275222   3.893   3.395  13.427 -0.3285  0.2720  0.1749
17936TIP3    H175223   3.858   3.397  13.339 -0.2393  0.0044  0.1342
17936TIP3    H275224   3.928   3.484  13.441 -1.5621  0.7331  0.4448
17937TIP3   OH275225   6.604   5.301   0.016 -0.2497 -0.0920  0.0380
17937TIP3    H175226   6.549   5.267   0.086  0.6026 -0.8176  0.3765
17937TIP3    H275227   6.556   5.284  -0.065 -1.1243  0.5189  0.4131
17938TIP3   OH275228   4.738   5.037  12.321  0.2423 -0.4223  0.0220
17938TIP3    H175229   4.753   5.003  12.233  0.5062  0.5220 -0.3062
17938TIP3    H275230   4.707   4.961  12.371 -2.6844 -0.4126 -1.5472
17939TIP3   OH275231   0.285   4.047  17.017 -0.4253  0.2525 -0.3532
17939TIP3    H175232   0.333   4.060  16.935 -0.4815 -1.1207 -0.6311
17939TIP3    H275233   0.353   4.055  17.085  0.1571 -1.2248 -0.7165
17940TIP3   OH275234   6.437   3.355  11.277  0.0728 -0.3759 -0.1625
17940TIP3    H175235   6.410   3.388  11.363 -0.1337  1.2623 -0.8213
17940TIP3    H275236   6.386   3.275  11.265 -1.4596  0.4882  0.3565
17941TIP3   OH275237   0.574   1.242  13.203 -0.4907 -0.2049 -0.4218
17941TIP3    H175238   0.520   1.194  13.266 -0.7013 -1.8477 -1.7626
17941TIP3    H275239   0.657   1.256  13.249 -1.9709  2.4860  1.7135
17942TIP3   OH275240   5.264   2.913   5.564  0.0511  0.1032  0.0657
17942TIP3    H175241   5.195   2.850   5.546 -0.6753  0.3103  1.9166
17942TIP3    H275242   5.322   2.869   5.625 -0.0418  0.9111  0.7668
17943TIP3   OH275243   2.040   4.015  15.745 -0.3590  0.0675  0.0973
17943TIP3    H175244   2.120   4.062  15.770  0.1883 -1.3801  1.2094
17943TIP3    H275245   1.997   4.074  15.683  1.5901  0.8629 -0.5988
17944TIP3   OH275246   3.062   6.660   0.615  0.6171  0.1919  0.1278
17944TIP3    H175247   3.099   6.631   0.532  2.3150 -0.9099  1.1924
17944TIP3    H275248   3.092   6.751   0.624 -0.6963  0.7733 -1.0306
17945TIP3   OH275249   5.169   3.799  15.431  0.0893  0.4522 -0.1687
17945TIP3    H175250   5.149   3.740  15.504  1.0977  0.7743  0.4002
17945TIP3    H275251   5.234   3.859  15.466  1.0791  0.2266 -1.5094
17946TIP3   OH275252   4.220   1.614   3.980 -0.2342 -0.4523 -0.2482
17946TIP3    H175253   4.127   1.630   3.963  0.2679  2.2253 -0.8309
17946TIP3    H275254   4.230   1.630   4.074 -0.1460  0.5722 -0.4234
17947TIP3   OH275255   3.899   1.931  13.518  0.3612 -0.2490  0.0278
17947TIP3    H175256   3.854   2.013  13.537  2.1966  1.1738 -1.3850
17947TIP3    H275257   3.843   1.888  13.453  0.1547  0.6678 -0.4195
17948TIP3   OH275258   0.562   1.339   2.968 -0.3608 -0.0757  0.1640
17948TIP3    H175259   0.482   1.379   3.000  0.3470  0.7364  0.9437
17948TIP3    H275260   0.557   1.248   2.997 -0.7305  0.1200  0.7215
17949TIP3   OH275261   3.975   0.634  15.205 -0.1516 -0.3562  0.0110
17949TIP3    H175262   4.028   0.576  15.151  0.3246  1.0636 -1.1127
17949TIP3    H275263   3.914   0.576  15.250  0.9739 -1.8163 -0.2621
17950TIP3   OH275264   5.641   6.587   1.983  0.7168  0.1817 -0.0284
17950TIP3    H175265   5.626   6.681   1.972 -0.1397 -0.1918 -3.2118
17950TIP3    H275266   5.734   6.575   1.962  0.8289  0.3153  0.3870
17951TIP3   OH275267   1.791   0.213   1.354  0.1979 -0.4604  0.0766
17951TIP3    H175268   1.779   0.231   1.260 -0.7559 -2.1944 -0.1877
17951TIP3    H275269   1.869   0.262   1.378 -0.6393  1.6105 -1.1500
17952TIP3   OH275270   2.736   6.588  15.323 -0.6722  0.1974  0.5057
17952TIP3    H175271   2.819   6.583  15.277 -0.9792 -1.1197  0.0673
17952TIP3    H275272   2.671   6.560  15.259 -1.1094 -1.6473  1.6965
17953TIP3   OH275273   5.839   3.511   3.543  0.2930  0.2049  0.3330
17953TIP3    H175274   5.822   3.605   3.538 -0.7370  0.2895  3.3403
17953TIP3    H275275   5.793   3.474   3.466 -1.4074  1.9238  0.4400
17954TIP3   OH275276   4.120   3.910   3.143 -0.0468 -0.5301 -0.1775
17954TIP3    H175277   4.194   3.965   3.119  0.0195  0.4305  1.9434
17954TIP3    H275278   4.150   3.863   3.222 -0.7757 -2.1807 -0.8334
17955TIP3   OH275279   4.355   4.584   1.503 -0.1203 -0.3549 -0.5508
17955TIP3    H175280   4.264   4.612   1.515 -0.3595 -2.0818  2.4547
17955TIP3    H275281   4.407   4.661   1.527 -0.8121 -0.3826  1.1548
17956TIP3   OH275282   1.024   6.448  14.005 -0.6250 -0.0378 -0.3682
17956TIP3    H175283   1.042   6.505  13.931  1.2467 -0.2308 -0.1019
17956TIP3    H275284   0.998   6.507  14.075 -1.7189  0.2025 -0.9514
17957TIP3   OH275285   6.450   6.814   4.717  0.5742 -0.0105  0.3085
17957TIP3    H175286   6.378   6.760   4.684  0.9563  0.0827 -0.7042
17957TIP3    H275287   6.446   6.804   4.812 -0.5300 -0.3191  0.2437
17958TIP3   OH275288   5.929   5.418  14.664 -0.6137 -0.1467 -0.0982
17958TIP3    H175289   5.936   5.469  14.583  0.7805 -1.6268 -0.9573
17958TIP3    H275290   5.836   5.421  14.685 -1.0290  0.2504 -1.7827
17959TIP3   OH275291   5.058   4.245  10.405 -0.7439  0.0312 -0.2821
17959TIP3    H175292   5.087   4.198  10.328  0.2581  0.5178 -0.2165
17959TIP3    H275293   5.073   4.185  10.478  0.9345  0.5608 -0.1451
17960TIP3   OH275294   4.872   3.144  12.094  0.3430 -0.0644 -0.1953
17960TIP3    H175295   4.806   3.204  12.059  1.7065  0.8800 -1.2929
17960TIP3    H275296   4.949   3.159  12.039  2.0190  0.0862  2.0598
17961TIP3   OH275297   1.142   2.130   4.274  0.0718 -0.1085 -0.6365
17961TIP3    H175298   1.113   2.157   4.187  0.1027  0.2220 -0.5461
17961TIP3    H275299   1.236   2.150   4.275 -0.0307  0.3622 -0.3489
17962TIP3   OH275300   4.998   4.042  10.930  0.1587 -0.3319  0.1099
17962TIP3    H175301   4.973   3.949  10.930 -1.0134 -0.0723 -1.8089
17962TIP3    H275302   5.034   4.057  10.842  1.0043  0.8783  0.6371
17963TIP3   OH275303   1.872   5.311   2.201 -0.3111  0.7188 -0.1480
17963TIP3    H175304   1.955   5.301   2.155  0.6198  0.7754  1.4304
17963TIP3    H275305   1.868   5.405   2.223 -0.2764  0.5412  0.6581
17964TIP3   OH275306   4.869   5.079  12.686 -0.0710  0.3689  0.0841
17964TIP3    H175307   4.884   5.118  12.772  0.7685  1.0554 -0.3536
17964TIP3    H275308   4.827   5.149  12.636  0.2901  0.2987 -0.3277
17965TIP3   OH275309   0.964   5.411   4.325  0.5440  0.5002 -0.3508
17965TIP3    H175310   1.013   5.337   4.362  0.6290  0.8152  0.1779
17965TIP3    H275311   1.012   5.488   4.355  0.1874  0.7864 -0.5118
17966TIP3   OH275312   1.388   1.536  16.899 -0.5728 -0.1334  0.3638
17966TIP3    H175313   1.341   1.609  16.939 -0.3879 -0.1415  0.5955
17966TIP3    H275314   1.325   1.499  16.837  0.3301  2.0892 -2.0711
17967TIP3   OH275315   6.558   2.722  11.641  0.0562 -0.4073  0.3596
17967TIP3    H175316   6.494   2.778  11.685  0.4521 -0.7586  1.4270
17967TIP3    H275317   6.593   2.776  11.570 -1.2357 -0.1304 -0.0948
17968TIP3   OH275318   0.282   1.077  12.178 -0.1944  0.4568 -0.2484
17968TIP3    H175319   0.358   1.126  12.209  0.0178 -0.4595  0.7482
17968TIP3    H275320   0.311   1.040  12.094 -0.3334  1.9191 -0.9764
17969TIP3   OH275321   3.636   4.595   3.210  0.1361  0.2812  0.0761
17969TIP3    H175322   3.687   4.674   3.192 -0.0498  0.3584 -0.1207
17969TIP3    H275323   3.700   4.524   3.206  0.2582  0.3937 -0.0045
17970TIP3   OH275324   0.418   1.226  16.928 -0.1583  0.2418 -0.2418
17970TIP3    H175325   0.429   1.166  17.002 -0.7237  2.4647  1.7692
17970TIP3    H275326   0.465   1.184  16.856  1.8648 -1.2934  1.8172
17971TIP3   OH275327   2.405   4.418   1.438  0.0378  0.0378  0.1880
17971TIP3    H175328   2.353   4.365   1.378  0.2479 -0.3770  0.3674
17971TIP3    H275329   2.365   4.505   1.435 -0.3540 -0.1504 -0.0553
17972TIP3   OH275330   0.530   4.820   2.880  0.6097  0.6210  0.1741
17972TIP3    H175331   0.608   4.868   2.853 -0.0685  2.0030  0.5297
17972TIP3    H275332   0.493   4.873   2.951 -0.5899 -0.0366  0.0732
17973TIP3   OH275333   1.394   0.559  12.198 -0.4767 -0.2428 -0.0260
17973TIP3    H175334   1.485   0.547  12.172 -0.0614 -2.3083  2.0875
17973TIP3    H275335   1.393   0.643  12.245  0.1317  0.1806 -0.7413
17974TIP3   OH275336   5.774   1.294   5.744 -0.0357  0.2536  0.0081
17974TIP3    H175337   5.753   1.387   5.730 -1.0253  0.4401  2.1870
17974TIP3    H275338   5.779   1.286   5.840  3.0953 -1.3314 -0.1852
17975TIP3   OH275339   1.377   2.835   0.992  0.3170 -0.4391  0.1807
17975TIP3    H175340   1.452   2.860   0.937  0.6141  1.4838  1.3710
17975TIP3    H275341   1.366   2.741   0.976  0.9995 -0.1604 -2.3798
17976TIP3   OH275342   6.127   3.068  14.760  0.5128 -0.3808 -0.2156
17976TIP3    H175343   6.196   3.130  14.786 -1.7757  1.5303  1.7343
17976TIP3    H275344   6.067   3.066  14.835 -1.5465 -1.9805 -1.8012
17977TIP3   OH275345   6.067   5.078  14.292 -0.6074 -0.1903  0.4130
17977TIP3    H175346   6.108   5.013  14.349 -0.1692  0.1720  0.5135
17977TIP3    H275347   6.029   5.026  14.221 -1.0614 -0.6327  0.9687
17978TIP3   OH275348   5.694   0.686  10.607 -0.4042  0.0147  0.2159
17978TIP3    H175349   5.605   0.705  10.578 -0.4498 -1.5703 -0.7746
17978TIP3    H275350   5.747   0.758  10.572 -1.0137 -0.0205 -0.8131
17979TIP3   OH275351   2.987   5.902   3.754  0.2490  0.2119 -0.1887
17979TIP3    H175352   2.942   5.984   3.732  0.4524  0.4638  0.3154
17979TIP3    H275353   3.053   5.927   3.819 -1.1490 -0.6934  1.6711
17980TIP3   OH275354   6.736   3.466  16.792  0.5803  1.1841  0.3127
17980TIP3    H175355   6.829   3.485  16.782  0.6016  1.6780  1.3605
17980TIP3    H275356   6.731   3.411  16.870  0.0960  0.1815 -0.3907
17981TIP3   OH275357   2.361   2.693  14.435  0.3787 -0.3520 -0.1711
17981TIP3    H175358   2.442   2.734  14.467  0.3165 -0.0667 -0.3860
17981TIP3    H275359   2.323   2.757  14.376  0.0959 -0.5717 -0.2267
17982TIP3   OH275360   2.893   3.684  14.471 -0.3335  0.2356  0.2081
17982TIP3    H175361   2.808   3.705  14.510 -0.2988 -0.8711  0.9048
17982TIP3    H275362   2.885   3.594  14.441  1.4302 -0.9116  2.8036
17983TIP3   OH275363   0.336   5.242   3.627 -0.0309 -0.2164 -0.4456
17983TIP3    H175364   0.345   5.188   3.549 -0.8752 -2.1103  0.6836
17983TIP3    H275365   0.246   5.228   3.657  0.2886  0.3723  0.9117
17984TIP3   OH275366   5.801   2.001  14.264  0.7570 -0.3280  0.4146
17984TIP3    H175367   5.861   2.052  14.210  1.0687 -0.0644  0.9931
17984TIP3    H275368   5.715   2.014  14.224  1.0238 -0.3704 -0.1784
17985TIP3   OH275369   6.604   5.811  11.596 -0.4405 -0.3509 -0.4407
17985TIP3    H175370   6.689   5.767  11.590  0.3361  1.0782 -0.4968
17985TIP3    H275371   6.557   5.763  11.664  1.3913  0.3058  1.4188
17986TIP3   OH275372   4.168   0.087   2.076  0.2534 -0.5538 -0.2837
17986TIP3    H175373   4.245   0.086   2.132  0.1107  0.7809 -0.0423
17986TIP3    H275374   4.204   0.084   1.987  0.6084  0.2651 -0.1795
17987TIP3   OH275375   0.167   0.636   4.757  0.2099 -0.3426 -0.1076
17987TIP3    H175376   0.207   0.560   4.715  0.6015 -0.7549  0.9751
17987TIP3    H275377   0.241   0.693   4.778  0.4280 -1.5157  2.7275
17988TIP3   OH275378   6.623   6.497  11.735 -0.1296 -0.3069 -0.2830
17988TIP3    H175379   6.712   6.492  11.700 -0.6552 -1.2896 -1.5684
17988TIP3    H275380   6.567   6.470  11.662 -1.4152 -0.6575  0.7910
17989TIP3   OH275381   0.736   0.235  10.698  0.0586  0.5406  0.3461
17989TIP3    H175382   0.777   0.250  10.613  0.6370 -0.7231  0.3796
17989TIP3    H275383   0.776   0.154  10.730 -0.8747  0.4636  1.3779
17990TIP3   OH275384   6.251   2.225  10.291  0.6311  0.6466  0.3808
17990TIP3    H175385   6.317   2.293  10.301  1.3957  0.4230 -2.2724
17990TIP3    H275386   6.295   2.157  10.240 -0.8102 -0.8202  1.0066
17991TIP3   OH275387   5.088   2.834   3.796 -0.1499 -0.5281  0.0157
17991TIP3    H175388   5.124   2.872   3.715  0.8781  2.9544  1.8760
17991TIP3    H275389   5.154   2.771   3.824  3.4467  3.4476  1.6725
17992TIP3   OH275390   2.116   3.895   4.708 -0.4080 -0.0138  0.7806
17992TIP3    H175391   2.082   3.929   4.790 -1.2449  0.7813  0.1303
17992TIP3    H275392   2.101   3.801   4.711 -2.7852  0.3072  0.4887
17993TIP3   OH275393   1.135   4.469   4.439 -1.0883 -0.1214  0.3351
17993TIP3    H175394   1.065   4.518   4.481 -0.6089  0.2160  0.7468
17993TIP3    H275395   1.145   4.390   4.494 -1.2169 -0.2216  0.2155
17994TIP3   OH275396   1.499   5.882  15.451 -0.2776 -0.7153  0.1336
17994TIP3    H175397   1.490   5.887  15.356 -1.3056 -0.0318  0.2537
17994TIP3    H275398   1.410   5.868  15.483 -0.2472  0.9985  1.1004
17995TIP3   OH275399   2.849   6.420   0.849 -0.2821 -0.1170  0.0024
17995TIP3    H175400   2.899   6.396   0.771 -2.1217  0.0648 -1.2809
17995TIP3    H275401   2.915   6.455   0.910  1.4059 -1.6788 -0.8473
17996TIP3   OH275402   6.421   6.428   5.159  0.5916 -0.7714  0.0186
17996TIP3    H175403   6.463   6.514   5.154 -0.0410 -0.4491  0.1034
17996TIP3    H275404   6.493   6.366   5.151  1.0688 -0.2343  0.0372
17997TIP3   OH275405   1.090   1.791   1.722 -0.0588  0.2194 -0.2257
17997TIP3    H175406   1.011   1.844   1.710 -0.9699 -0.4829  2.0334
17997TIP3    H275407   1.092   1.773   1.816  2.8477  0.2294 -0.2046
17998TIP3   OH275408   2.082   6.707   1.726  0.0337  0.1930  0.3022
17998TIP3    H175409   2.094   6.767   1.653  1.0013 -1.5347 -1.0194
17998TIP3    H275410   2.012   6.746   1.779 -0.6995  1.4654 -1.5403
17999TIP3   OH275411   4.825   6.341   0.468 -0.2940 -0.3857 -0.0467
17999TIP3    H175412   4.776   6.357   0.548 -0.9480  1.0264 -0.6895
17999TIP3    H275413   4.873   6.260   0.484 -0.4354 -0.1404  1.7493
18000TIP3   OH275414   2.109   0.600  15.910  0.0870 -0.1295 -0.0639
18000TIP3    H175415   2.180   0.659  15.888  0.8110 -0.3501  1.5043
18000TIP3    H275416   2.059   0.646  15.978 -0.1368 -0.7446  0.2000
18001TIP3   OH275417   5.852   3.279  16.719  0.2702 -0.0724  0.2146
18001TIP3    H175418   5.772   3.253  16.672 -0.4043  1.2218  0.5875
18001TIP3    H275419   5.895   3.341  16.660  0.9675 -0.6923  0.0570
18002TIP3   OH275420   2.486   2.353   1.452  0.1312 -0.5331 -0.7200
18002TIP3    H175421   2.392   2.368   1.439  0.2270  1.2707  0.4230
18002TIP3    H275422   2.490   2.290   1.525 -0.2050  0.9720  0.6467
18003TIP3   OH275423   4.664   1.542  11.584 -0.0289 -0.4057 -0.0594
18003TIP3    H175424   4.595   1.477  11.597  0.1456 -0.3320  1.4468
18003TIP3    H275425   4.745   1.492  11.589  0.0684 -0.5778 -2.3556
18004TIP3   OH275426   3.742   3.244  13.651 -0.0038  0.3095 -0.6955
18004TIP3    H175427   3.683   3.211  13.583 -0.8061  1.7479 -0.7337
18004TIP3    H275428   3.791   3.314  13.608 -0.5269  1.2465  0.1839
18005TIP3   OH275429   0.688   1.504  14.365  0.1975 -0.0977  0.0414
18005TIP3    H175430   0.684   1.471  14.276  0.5812  1.0831 -0.4370
18005TIP3    H275431   0.645   1.436  14.418 -3.4498  0.7548 -1.4897
18006TIP3   OH275432   0.867   1.473   4.641  0.1258  0.0260  0.3808
18006TIP3    H175433   0.932   1.465   4.571  0.4318  0.7257  0.5746
18006TIP3    H275434   0.865   1.567   4.661  0.1057 -0.1748  1.3780
18007TIP3   OH275435   4.240   1.872  12.800 -0.2553  0.6967  0.1568
18007TIP3    H175436   4.250   1.953  12.851 -0.1803  1.4908 -1.0819
18007TIP3    H275437   4.220   1.902  12.711 -0.9519 -0.6672 -0.1699
18008TIP3   OH275438   2.665   5.564  10.900 -0.1142 -0.0074  0.6797
18008TIP3    H175439   2.589   5.512  10.875  0.4864 -0.9355  0.6865
18008TIP3    H275440   2.739   5.520  10.856  0.4476  0.6772  0.9196
18009TIP3   OH275441   2.834   2.897   4.038  0.2809 -0.0365  0.0306
18009TIP3    H175442   2.810   2.975   4.087 -4.0286 -0.5758 -0.8251
18009TIP3    H275443   2.873   2.930   3.957  0.4407  1.1282  0.5683
18010TIP3   OH275444   3.535   3.481  16.629 -0.3421  0.0896  0.5834
18010TIP3    H175445   3.592   3.544  16.584 -0.9728  0.9114  0.8952
18010TIP3    H275446   3.551   3.398  16.584  1.6627  0.1054  1.1787
18011TIP3   OH275447   2.712   4.273   0.756 -0.2633 -0.0985  0.3616
18011TIP3    H175448   2.687   4.201   0.699 -0.2578 -0.9688  1.4298
18011TIP3    H275449   2.645   4.340   0.741 -0.7101 -0.6357 -0.0637
18012TIP3   OH275450   1.026   3.851   3.401 -0.2157  0.3215  0.2421
18012TIP3    H175451   0.966   3.906   3.451  0.1048  0.3824  0.5601
18012TIP3    H275452   1.078   3.806   3.467 -0.0688  0.0889 -0.0301
18013TIP3   OH275453   5.229   4.244   2.324  0.0875 -0.4242 -0.2294
18013TIP3    H175454   5.243   4.178   2.257  0.7766  0.5571 -1.0864
18013TIP3    H275455   5.137   4.233   2.350 -0.3033 -0.5840 -1.5891
18014TIP3   OH275456   3.776   6.351  13.825  0.3484 -0.6438  0.3294
18014TIP3    H175457   3.714   6.409  13.780 -0.8499 -2.2072 -0.1314
18014TIP3    H275458   3.723   6.304  13.889  1.3235 -1.0938  0.8291
18015TIP3   OH275459   3.683   0.869   5.294 -0.5070 -0.2983  0.3078
18015TIP3    H175460   3.708   0.941   5.351 -1.4443  1.4089 -1.3137
18015TIP3    H275461   3.588   0.863   5.302 -0.4888 -1.0675  0.0861
18016TIP3   OH275462   0.320   3.078  10.899 -0.1523  0.1721  0.6031
18016TIP3    H175463   0.362   3.007  10.948 -1.1880  0.3787  1.8713
18016TIP3    H275464   0.291   3.038  10.818  0.2871 -0.5733  0.8090
18017TIP3   OH275465   6.412   4.957   0.462 -0.2533 -0.0162  0.2334
18017TIP3    H175466   6.483   5.000   0.510  0.4914 -0.1820 -0.7090
18017TIP3    H275467   6.366   4.906   0.529  1.4160 -1.1106  0.5920
18018TIP3   OH275468   2.901   3.746   1.714 -0.2510  0.1013  0.6396
18018TIP3    H175469   2.910   3.678   1.648  0.4195 -0.0306  0.8544
18018TIP3    H275470   2.991   3.764   1.742 -0.5523 -0.1761  1.8475
18019TIP3   OH275471   4.884   2.371  16.603  0.0886  0.4499  0.0959
18019TIP3    H175472   4.874   2.276  16.610  0.3961  0.5046  1.6753
18019TIP3    H275473   4.921   2.398  16.687  2.4227  1.6911 -1.2127
18020TIP3   OH275474   1.165   3.575   1.061 -0.0761  0.2508  0.0984
18020TIP3    H175475   1.112   3.505   1.099 -1.4909  0.5189 -1.3107
18020TIP3    H275476   1.240   3.530   1.023 -0.1956 -0.3314  0.5340
18021TIP3   OH275477   1.684   4.316  10.682 -0.2138 -0.3306 -0.0758
18021TIP3    H175478   1.629   4.294  10.607 -0.6750 -0.5799  0.3339
18021TIP3    H275479   1.765   4.266  10.667 -0.3315 -0.4400 -0.3632
18022TIP3   OH275480   3.257   0.335  14.452 -0.0115 -0.0068 -0.2014
18022TIP3    H175481   3.256   0.399  14.381  0.2707  0.3353  0.0984
18022TIP3    H275482   3.337   0.284  14.438  1.4808  1.7767  1.3565
18023TIP3   OH275483   3.722   6.136  12.422  0.5923  0.6916  0.0702
18023TIP3    H175484   3.800   6.191  12.415  1.6079 -0.8445 -1.7670
18023TIP3    H275485   3.756   6.046  12.418 -1.1496 -0.0675  1.0123
18024TIP3   OH275486   5.808   4.629   5.318 -0.5253 -0.1274 -0.0810
18024TIP3    H175487   5.720   4.621   5.281 -1.3009 -0.5047  1.7277
18024TIP3    H275488   5.795   4.620   5.413  1.2558  1.4525  0.3873
18025TIP3   OH275489   6.087   0.249   1.499 -0.2780  0.1556 -0.0873
18025TIP3    H175490   6.139   0.190   1.444 -0.2776  0.2899 -0.2320
18025TIP3    H275491   6.118   0.337   1.476  0.9031  0.1501  1.3213
18026TIP3   OH275492   1.637   2.580   1.443 -0.4631 -0.2330 -0.0077
18026TIP3    H175493   1.574   2.533   1.497  0.2970 -0.8960  0.3333
18026TIP3    H275494   1.585   2.618   1.372 -1.2981 -0.3890  0.5083
18027TIP3   OH275495   6.031   6.400   2.963 -0.7596 -0.5437 -0.4345
18027TIP3    H175496   6.028   6.433   3.052 -0.1255  0.3273 -0.7163
18027TIP3    H275497   5.948   6.355   2.950 -1.7900  1.1802 -0.0959
18028TIP3   OH275498   2.995   6.521  14.865  0.4839  0.1793 -0.2562
18028TIP3    H175499   3.020   6.470  14.787  0.4230  2.1245 -1.6103
18028TIP3    H275500   3.016   6.611  14.842  0.4756  0.8107  2.0317
18029TIP3   OH275501   3.519   3.419   2.242 -0.0963  0.3609 -0.4310
18029TIP3    H175502   3.527   3.379   2.328 -0.0067 -1.6622 -1.3015
18029TIP3    H275503   3.609   3.441   2.217 -0.2525  2.1588  0.4832
18030TIP3   OH275504   5.236   2.715   3.324 -0.1470 -0.0837 -0.1281
18030TIP3    H175505   5.185   2.683   3.249  1.5587  0.4576 -1.5781
18030TIP3    H275506   5.312   2.656   3.328  2.4112  2.7890 -2.0617
18031TIP3   OH275507   1.801   6.663   1.090  0.9173  0.5560 -0.2912
18031TIP3    H175508   1.818   6.570   1.097 -0.0133  0.4197  0.3355
18031TIP3    H275509   1.806   6.681   0.996 -1.0733 -0.5909 -0.6845
18032TIP3   OH275510   3.672   2.941  16.029 -0.4485  0.0032 -0.2099
18032TIP3    H175511   3.595   2.903  15.986 -0.6445  0.2747 -0.1072
18032TIP3    H275512   3.658   3.036  16.021 -0.1774  0.0515 -0.0935
18033TIP3   OH275513   1.721   3.955  13.898  0.7486 -0.5094 -0.5207
18033TIP3    H175514   1.684   3.971  13.811 -2.3424  2.4167  1.0757
18033TIP3    H275515   1.671   3.879  13.931 -0.6757  0.5469 -0.1166
18034TIP3   OH275516   0.827   1.071   5.973  0.1529 -0.2300  0.6125
18034TIP3    H175517   0.797   1.049   5.885  0.4610  0.8569  0.2194
18034TIP3    H275518   0.794   1.000   6.028 -1.7073  0.0757 -0.0509
18035TIP3   OH275519   2.485   3.536  11.406  0.3857 -0.0249 -0.2944
18035TIP3    H175520   2.449   3.575  11.326  1.1307  1.4472  0.0674
18035TIP3    H275521   2.579   3.537  11.393  0.4853 -0.2879  0.3879
18036TIP3   OH275522   4.125   1.385   0.356 -0.5599 -0.3113  0.1356
18036TIP3    H175523   4.061   1.323   0.321 -0.4331 -0.7935  0.7434
18036TIP3    H275524   4.086   1.471   0.340 -0.9017 -0.5568 -0.3881
18037TIP3   OH275525   4.679   4.386  12.040 -0.2551 -0.7505  0.0080
18037TIP3    H175526   4.768   4.411  12.067 -0.6980  0.1641  0.6714
18037TIP3    H275527   4.666   4.299  12.077  0.6148 -1.1931 -0.6946
18038TIP3   OH275528   5.081   2.685   5.538 -0.1351 -0.0541 -0.0709
18038TIP3    H175529   5.095   2.719   5.450  1.9796  0.4014  0.3983
18038TIP3    H275530   5.107   2.593   5.533  2.2459  0.5188  0.5415
18039TIP3   OH275531   6.726   3.741  12.728 -0.4370 -0.3182 -0.3652
18039TIP3    H175532   6.767   3.655  12.729  0.4197  0.0726 -0.8660
18039TIP3    H275533   6.657   3.736  12.794  0.6346 -0.8961  0.7457
18040TIP3   OH275534   5.132   1.238   3.197  0.2691 -0.1104 -0.4869
18040TIP3    H175535   5.107   1.292   3.272  2.0463 -0.4203  0.3834
18040TIP3    H275536   5.174   1.298   3.136 -0.7069  0.0490 -1.0139
18041TIP3   OH275537   2.457   3.029  14.506 -0.8911 -0.3826  0.0482
18041TIP3    H175538   2.482   3.117  14.536  0.1329 -0.6193 -0.0791
18041TIP3    H275539   2.492   3.023  14.417 -2.0193 -0.4866 -0.3982
18042TIP3   OH275540   2.262   0.379   1.849  0.0684  0.7231  0.2853
18042TIP3    H175541   2.339   0.386   1.905 -0.7066  2.5521  1.2086
18042TIP3    H275542   2.193   0.344   1.906 -0.1017  0.2333 -0.2107
18043TIP3   OH275543   5.082   1.696  10.976 -0.0465 -0.5507 -0.0585
18043TIP3    H175544   5.117   1.653  10.898  0.3960 -1.5785  0.6859
18043TIP3    H275545   5.132   1.778  10.983 -0.3496 -0.2770 -1.0525
18044TIP3   OH275546   0.708   6.320   1.185  0.2065  0.0247  0.1671
18044TIP3    H175547   0.635   6.342   1.243  0.9539 -0.0160  1.1431
18044TIP3    H275548   0.766   6.396   1.189 -0.2470  0.4868 -1.3947
18045TIP3   OH275549   5.158   6.304   4.191 -0.4157 -0.0993  0.2630
18045TIP3    H175550   5.163   6.346   4.106 -1.5981  0.8141  0.6209
18045TIP3    H275551   5.229   6.344   4.242 -0.4720  0.2338  0.0789
18046TIP3   OH275552   2.662   6.743   4.692 -0.1678 -0.4150  0.1247
18046TIP3    H175553   2.607   6.676   4.731  2.4311 -2.5114  0.4652
18046TIP3    H275554   2.600   6.810   4.661 -2.6539 -1.1194  3.0846
18047TIP3   OH275555   1.344   1.517   3.043 -0.5571 -0.1773 -0.0391
18047TIP3    H175556   1.323   1.609   3.061 -0.1162 -0.2708  1.0128
18047TIP3    H275557   1.432   1.520   3.004 -0.1820 -0.2062  0.7852
18048TIP3   OH275558   3.305   5.769  13.765 -0.4226 -0.0404  0.4881
18048TIP3    H175559   3.227   5.806  13.724 -0.5127  0.1198  0.8065
18048TIP3    H275560   3.369   5.840  13.764 -0.5403  0.0750  0.9455
18049TIP3   OH275561   0.499   5.180   4.318 -0.4312  0.5870  0.2481
18049TIP3    H175562   0.430   5.122   4.351  0.3419  0.7724  2.3627
18049TIP3    H275563   0.453   5.254   4.280 -1.4022  0.4252  1.0825
18050TIP3   OH275564   1.354   2.773   5.944  0.5054  0.3335 -0.5231
18050TIP3    H175565   1.354   2.804   5.853 -0.1753  0.8204 -0.3656
18050TIP3    H275566   1.340   2.852   5.996  0.7273  0.0307 -0.0000
18051TIP3   OH275567   0.093   5.676   1.426  0.2372  0.2827 -0.3653
18051TIP3    H175568   0.155   5.696   1.356  0.9188 -1.5686 -0.3623
18051TIP3    H275569   0.146   5.633   1.494 -0.3372  2.3143  1.4927
18052TIP3   OH275570   0.128   2.683   2.057  0.1908  0.1560 -0.0562
18052TIP3    H175571   0.090   2.606   2.015  1.4110 -1.4809  1.6849
18052TIP3    H275572   0.058   2.749   2.055 -1.3324 -1.4178 -0.4616
18053TIP3   OH275573   0.048   6.266  15.771 -0.3165 -0.2029 -0.4170
18053TIP3    H175574   0.104   6.273  15.849 -2.8888 -1.1900  1.6971
18053TIP3    H275575   0.102   6.219  15.707  2.2427  1.5004  0.3356
18054TIP3   OH275576   2.799   4.609  10.952  0.0591  0.0400 -0.7543
18054TIP3    H175577   2.878   4.620  11.004 -1.0031 -1.3297  1.2959
18054TIP3    H275578   2.826   4.627  10.862  3.0482 -1.7968 -0.3525
18055TIP3   OH275579   6.270   4.804   0.660  0.3148 -0.2581 -0.3569
18055TIP3    H175580   6.176   4.807   0.643  0.0193 -1.7008  0.7971
18055TIP3    H275581   6.278   4.824   0.754  1.2722  0.9731 -0.6804
18056TIP3   OH275582   1.414   0.457  12.985 -0.0495  0.0076 -0.7980
18056TIP3    H175583   1.475   0.515  13.031 -0.1277  0.3093 -1.0662
18056TIP3    H275584   1.449   0.451  12.896 -0.3766  0.1425 -0.9406
18057TIP3   OH275585   2.428   4.966   3.896  0.1267  0.7479 -0.5761
18057TIP3    H175586   2.514   4.991   3.864 -0.1133  2.3969 -0.0565
18057TIP3    H275587   2.407   4.885   3.849  2.6104 -0.6192  0.4697
18058TIP3   OH275588   3.997   5.015  13.817  0.1704 -0.3427 -0.0155
18058TIP3    H175589   3.902   5.005  13.822 -0.1181  1.3057 -1.3016
18058TIP3    H275590   4.014   5.031  13.724  1.6484 -0.1124  0.2762
18059TIP3   OH275591   4.022   5.689  15.101  0.4853  0.0718  0.1426
18059TIP3    H175592   4.051   5.608  15.143 -0.2420  0.1166  0.7490
18059TIP3    H275593   3.978   5.738  15.170  0.8736  0.9715 -0.2313
18060TIP3   OH275594   1.384   2.538   0.197 -0.1616 -0.0648 -0.4425
18060TIP3    H175595   1.375   2.447   0.170  1.0151 -0.4826  0.5078
18060TIP3    H275596   1.436   2.578   0.127 -0.1748 -0.2605 -0.5663
18061TIP3   OH275597   1.749   5.262  13.383  0.2085  0.2315 -0.5680
18061TIP3    H175598   1.818   5.210  13.424 -0.6758 -1.7971 -1.5106
18061TIP3    H275599   1.668   5.228  13.421 -0.4729 -0.0140 -2.1801
18062TIP3   OH275600   0.997   5.721   1.687 -0.1188  0.0840 -0.0876
18062TIP3    H175601   0.971   5.631   1.705 -0.5578  0.3328  0.6147
18062TIP3    H275602   1.001   5.727   1.592 -3.8043  0.2863 -0.4079
18063TIP3   OH275603   1.553   2.986   1.443  0.1686 -0.2763  0.6144
18063TIP3    H175604   1.545   2.919   1.376  0.0898 -0.1048  0.4519
18063TIP3    H275605   1.629   2.960   1.494  1.5148  0.6894 -0.7995
18064TIP3   OH275606   2.780   1.771  12.940  0.0818 -0.2954  0.3649
18064TIP3    H175607   2.714   1.840  12.929 -0.0548 -0.2160  1.5548
18064TIP3    H275608   2.768   1.714  12.864  0.6209  1.3234 -0.9885
18065TIP3   OH275609   3.187   4.100   2.850  0.8901 -0.5284  0.6943
18065TIP3    H175610   3.164   4.192   2.841  1.2481 -0.5676 -0.8576
18065TIP3    H275611   3.112   4.060   2.895  0.1381  0.2580  0.1568
18066TIP3   OH275612   2.384   5.531  10.897 -0.1692 -0.2721  0.5447
18066TIP3    H175613   2.344   5.590  10.960  1.0544  0.3998  0.7151
18066TIP3    H275614   2.426   5.588  10.833 -0.4824 -0.9500 -0.2960
18067TIP3   OH275615   2.618   1.557  15.655 -0.4887  0.7682 -0.1169
18067TIP3    H175616   2.612   1.558  15.751 -1.7237 -1.6818 -0.0778
18067TIP3    H275617   2.532   1.588  15.626  0.0962  2.0957 -0.4607
18068TIP3   OH275618   2.975   4.356  12.354 -0.3509  0.3748 -0.0291
18068TIP3    H175619   3.022   4.392  12.278  0.7169  1.8891  1.2756
18068TIP3    H275620   2.927   4.431  12.389  1.3615  0.4432  2.3677
18069TIP3   OH275621   3.630   0.060  13.006 -0.0876 -0.1694  0.4709
18069TIP3    H175622   3.578   0.136  13.030  0.2711 -0.2016  1.3937
18069TIP3    H275623   3.604   0.040  12.916 -0.9313  0.4138  0.5784
18070TIP3   OH275624   6.296   3.275  14.115 -0.2486  0.1667 -0.2593
18070TIP3    H175625   6.315   3.369  14.109  1.0564 -0.0650 -0.1069
18070TIP3    H275626   6.324   3.252  14.204 -1.1658 -0.2603 -0.0656
18071TIP3   OH275627   2.927   0.288  14.273  0.4054 -0.0164 -0.2006
18071TIP3    H175628   2.990   0.281  14.345  0.3795  1.8372  0.0484
18071TIP3    H275629   2.978   0.272  14.194  0.8747  0.0055  0.0986
18072TIP3   OH275630   4.676   0.144   3.999 -0.2979  0.4379  0.1731
18072TIP3    H175631   4.642   0.187   4.078 -1.7107 -0.9306  0.3441
18072TIP3    H275632   4.645   0.054   4.005  2.2443 -0.5738 -0.3777
18073TIP3   OH275633   0.847   0.921  16.571 -0.2061  0.6590 -0.3598
18073TIP3    H175634   0.930   0.902  16.526 -0.5576  1.3319 -1.3101
18073TIP3    H275635   0.855   0.875  16.655  2.2876  2.9097  0.7639
18074TIP3   OH275636   3.056   5.480   3.158 -0.1719  0.3398  0.4104
18074TIP3    H175637   3.001   5.559   3.155  0.2748  0.6912 -3.4789
18074TIP3    H275638   2.997   5.409   3.132  0.4021  0.1335 -0.3520
18075TIP3   OH275639   1.638   5.786   3.537  0.1431 -0.2921 -0.4031
18075TIP3    H175640   1.634   5.728   3.614  0.8995  1.8178  1.3219
18075TIP3    H275641   1.546   5.804   3.517 -0.0605 -0.4760  0.3114
18076TIP3   OH275642   0.883   0.350   1.837  0.4889 -0.2154 -0.2000
18076TIP3    H175643   0.816   0.291   1.873 -1.1563  0.5672 -1.7928
18076TIP3    H275644   0.864   0.435   1.876  1.0414 -0.1418 -0.0829
18077TIP3   OH275645   3.879   2.895  13.485 -0.3652 -0.1195 -0.1095
18077TIP3    H175646   3.955   2.856  13.443 -0.0588  0.6864 -0.3251
18077TIP3    H275647   3.894   2.990  13.478 -1.4324  0.0513 -0.2501
18078TIP3   OH275648   3.382   2.863  16.976  0.3127  0.4010  0.3870
18078TIP3    H175649   3.459   2.808  16.965 -0.9491 -1.4249  0.1772
18078TIP3    H275650   3.353   2.847  17.066 -0.5524  0.0121  0.0582
18079TIP3   OH275651   5.992   6.721   2.532  0.4496 -0.0338  0.2926
18079TIP3    H175652   5.912   6.731   2.482  0.5280 -1.1112 -0.0710
18079TIP3    H275653   6.054   6.682   2.470  1.2440  0.7309  0.5820
18080TIP3   OH275654   4.272   6.704   5.385  0.0372  0.9146  0.3912
18080TIP3    H175655   4.319   6.781   5.353  0.3357  0.3851 -0.4765
18080TIP3    H275656   4.326   6.630   5.356  0.4174  0.4006  2.2765
18081TIP3   OH275657   6.305   2.321   1.013 -0.3954  0.5516  0.0506
18081TIP3    H175658   6.360   2.251   1.049 -0.5305  1.0630  1.3176
18081TIP3    H275659   6.268   2.284   0.933 -1.5844 -1.3874  1.3801
18082TIP3   OH275660   5.809   5.814   4.675 -0.2035  0.0116 -0.2018
18082TIP3    H175661   5.836   5.741   4.730  0.5820  0.1840 -0.3510
18082TIP3    H275662   5.753   5.867   4.731 -0.6711 -0.6365 -0.0557
18083TIP3   OH275663   6.553   1.227  10.098 -0.6630 -0.3171 -0.7179
18083TIP3    H175664   6.613   1.253  10.169 -0.6573  0.4552 -0.9974
18083TIP3    H275665   6.611   1.201  10.026 -0.6686 -1.0773 -0.4582
18084TIP3   OH275666   3.267   1.790   5.567 -0.6928 -0.0171  0.6420
18084TIP3    H175667   3.359   1.789   5.595 -0.7998  0.0996  1.0022
18084TIP3    H275668   3.217   1.779   5.648 -0.9711 -3.1720  0.1861
18085TIP3   OH275669   3.644   0.290  13.817 -0.6937  0.0862 -0.0284
18085TIP3    H175670   3.610   0.207  13.784  3.6380 -2.2260  0.6671
18085TIP3    H275671   3.632   0.284  13.912  0.3583 -0.1512  0.0958
18086TIP3   OH275672   6.522   1.880   2.372  0.4829  0.6966 -0.6666
18086TIP3    H175673   6.565   1.938   2.309  0.2157  1.5491 -0.0808
18086TIP3    H275674   6.582   1.877   2.446  1.3071 -1.1514 -1.3405
18087TIP3   OH275675   1.047   6.557  12.067 -0.0224 -0.5791 -0.1026
18087TIP3    H175676   1.040   6.461  12.060  2.4664 -0.7235 -3.3483
18087TIP3    H275677   1.141   6.574  12.064 -0.4376  2.0075 -1.2268
18088TIP3   OH275678   4.870   6.663   0.085 -0.1409  0.1173 -0.4046
18088TIP3    H175679   4.893   6.573   0.109 -2.8629 -1.4630 -3.0611
18088TIP3    H275680   4.955   6.707   0.077  1.7135 -3.3923 -3.0533
18089TIP3   OH275681   3.733   4.103  15.715 -0.2230  0.4080 -0.1403
18089TIP3    H175682   3.783   4.167  15.764  0.5657  0.3048 -0.7812
18089TIP3    H275683   3.743   4.022  15.764 -1.2384  0.7657  0.6817
18090TIP3   OH275684   4.536   1.855  13.962 -0.1243 -0.1076  0.1115
18090TIP3    H175685   4.460   1.911  13.949 -0.8715 -1.1841 -0.3415
18090TIP3    H275686   4.503   1.766  13.948  1.3920 -0.5486 -1.0236
18091TIP3   OH275687   0.181   3.220   0.336 -0.0562  0.5468  0.1865
18091TIP3    H175688   0.190   3.298   0.282 -1.1227 -0.5066 -1.5879
18091TIP3    H275689   0.120   3.246   0.406  1.2174  1.8703  0.8511
18092TIP3   OH275690   3.916   6.151   2.738 -0.1065 -0.1665 -0.0922
18092TIP3    H175691   3.905   6.238   2.699  0.6317  0.3091  0.7433
18092TIP3    H275692   3.925   6.092   2.662  1.5906  0.7805 -0.6763
18093TIP3   OH275693   1.532   0.927   2.233  0.4930  0.2752  0.3564
18093TIP3    H175694   1.551   0.978   2.312  0.5742 -0.4669  0.8274
18093TIP3    H275695   1.577   0.975   2.162  3.3751 -0.8655  1.2591
18094TIP3   OH275696   5.624   0.845  12.786 -0.5756 -0.3232  0.9378
18094TIP3    H175697   5.540   0.874  12.750 -0.7575 -1.0434  0.7548
18094TIP3    H275698   5.689   0.881  12.726 -0.8553 -1.1502  0.1083
18095TIP3   OH275699   3.880   6.511  16.344 -0.1336 -0.0012 -0.0535
18095TIP3    H175700   3.966   6.552  16.353 -0.2039 -0.0406  0.8803
18095TIP3    H275701   3.888   6.427  16.390 -1.1601  0.7467  1.5898
18096TIP3   OH275702   1.538   2.390   2.667 -0.5575  0.2292 -0.1653
18096TIP3    H175703   1.596   2.318   2.690  0.9268  1.1269 -0.9216
18096TIP3    H275704   1.472   2.391   2.736  0.2531 -0.9066  0.6575
18097TIP3   OH275705   1.868   6.615   5.435 -0.1031 -0.0489 -0.4843
18097TIP3    H175706   1.899   6.632   5.524 -0.5414 -0.7386 -0.1893
18097TIP3    H275707   1.775   6.638   5.436 -0.1130 -0.0654 -0.7585
18098TIP3   OH275708   2.584   2.384  11.800 -0.7186  0.4675 -0.3239
18098TIP3    H175709   2.537   2.338  11.870 -1.1113 -0.8934 -1.4473
18098TIP3    H275710   2.670   2.402  11.838 -0.3522 -1.6834  0.0312
18099TIP3   OH275711   6.624   3.384  13.446  0.2529  0.2398  0.3826
18099TIP3    H175712   6.529   3.391  13.447  0.3621  2.3901  0.7922
18099TIP3    H275713   6.647   3.352  13.533 -0.0347  1.5550  0.9682
18100TIP3   OH275714   5.421   3.136   3.864 -0.3606  0.2668  0.6977
18100TIP3    H175715   5.477   3.059   3.868 -1.2026 -0.4056  0.0212
18100TIP3    H275716   5.338   3.109   3.904 -1.1377  0.3653 -0.7739
18101TIP3   OH275717   0.515   0.917   5.616  0.2908 -0.2760 -0.8175
18101TIP3    H175718   0.484   0.929   5.706  3.4623  1.5561  0.1993
18101TIP3    H275719   0.536   0.824   5.610 -0.3091 -0.4958  0.2265
18102TIP3   OH275720   3.641   3.749   2.878 -0.4807  0.2249  0.2706
18102TIP3    H175721   3.717   3.692   2.865  0.7543  1.7752  0.4914
18102TIP3    H275722   3.624   3.788   2.792  0.8634  2.1382  0.8268
18103TIP3   OH275723   6.003   4.452  16.928  0.5373 -0.5021  0.2542
18103TIP3    H175724   6.075   4.421  16.874  1.3681 -0.2326  1.1796
18103TIP3    H275725   6.044   4.477  17.011 -0.4393  0.8347  0.3635
18104TIP3   OH275726   1.928   3.185  11.931  0.0948 -0.5330 -0.0727
18104TIP3    H175727   2.020   3.160  11.920  0.1495 -0.5690  0.4317
18104TIP3    H275728   1.883   3.104  11.954 -0.2284 -0.6852 -1.1657
18105TIP3   OH275729   5.962   5.468   1.670 -0.4052  0.2603  0.5219
18105TIP3    H175730   6.030   5.401   1.672 -1.3275 -0.6962  0.8889
18105TIP3    H275731   5.965   5.503   1.580 -0.9022 -1.3552 -0.1662
18106TIP3   OH275732   4.054   1.426  12.985  0.1555 -0.3162 -0.0376
18106TIP3    H175733   4.107   1.500  12.955 -0.7341  0.4061  0.1044
18106TIP3    H275734   4.069   1.357  12.921  1.2987 -0.1498  0.0335
18107TIP3   OH275735   1.222   2.522   4.308 -0.2524 -0.0336 -0.0298
18107TIP3    H175736   1.163   2.480   4.247 -0.3097  0.2078 -0.1403
18107TIP3    H275737   1.289   2.456   4.326  0.3029  0.2183 -1.0955
18108TIP3   OH275738   1.198   2.506  12.853 -0.5026 -0.4414 -0.4062
18108TIP3    H175739   1.147   2.466  12.783 -2.8365  1.4989  0.0400
18108TIP3    H275740   1.153   2.480  12.933  1.2015 -1.3380  0.3057
18109TIP3   OH275741   1.787   5.277  10.670  0.2271  0.3956  0.6129
18109TIP3    H175742   1.864   5.274  10.727 -0.6555 -1.2027  1.7702
18109TIP3    H275743   1.722   5.326  10.719 -0.2448 -0.2359  0.6319
18110TIP3   OH275744   4.172   1.687  13.255 -0.0424  0.3173 -0.2053
18110TIP3    H175745   4.222   1.661  13.333 -1.0599  1.3044  0.8106
18110TIP3    H275746   4.082   1.659  13.274 -0.1391 -0.3711 -1.5013
18111TIP3   OH275747   5.851   5.671  10.943 -0.3961  0.2564  0.0898
18111TIP3    H175748   5.922   5.721  10.903  1.3348  1.2680  3.8707
18111TIP3    H275749   5.843   5.593  10.889  1.6138  1.4386 -2.1272
18112TIP3   OH275750   6.643   3.171  14.655 -0.0651 -0.6882 -0.1100
18112TIP3    H175751   6.603   3.104  14.710  0.5473 -1.2050 -0.2869
18112TIP3    H275752   6.735   3.146  14.649 -0.3014 -1.2121 -2.1790
18113TIP3   OH275753   4.606   1.859   3.798 -0.7902 -0.1299  0.1751
18113TIP3    H175754   4.681   1.863   3.739 -0.9183  1.4765  0.0830
18113TIP3    H275755   4.556   1.783   3.769  0.9459 -1.4188  0.4395
18114TIP3   OH275756   1.237   3.093   5.011 -0.2888 -0.5352  0.0029
18114TIP3    H175757   1.183   3.036   4.957 -1.4310  1.7703 -1.4504
18114TIP3    H275758   1.324   3.088   4.972 -0.4249 -1.1190 -0.2270
18115TIP3   OH275759   3.142   0.239   4.564  0.3435 -0.8065  0.4772
18115TIP3    H175760   3.101   0.325   4.573 -0.4929 -0.9511 -1.4176
18115TIP3    H275761   3.234   0.257   4.545  0.9294 -0.4471  3.2050
18116TIP3   OH275762   1.603   6.646   5.452 -0.4664  0.2280 -0.6943
18116TIP3    H175763   1.578   6.621   5.541 -0.5022  0.5489 -0.6130
18116TIP3    H275764   1.523   6.681   5.413 -0.1818  1.1655 -0.4679
18117TIP3   OH275765   4.635   4.067   4.704 -0.1884 -0.1558 -0.0630
18117TIP3    H175766   4.560   4.117   4.736  0.0552  0.1395  0.0600
18117TIP3    H275767   4.686   4.131   4.654 -0.6389 -0.6387 -1.1823
18118TIP3   OH275768   0.803   1.599   3.545 -0.1825  0.4311  0.2755
18118TIP3    H175769   0.751   1.649   3.482  0.4857  0.9873  0.1467
18118TIP3    H275770   0.796   1.649   3.626 -0.9448 -0.2207  0.6204
18119TIP3   OH275771   4.075   1.276   3.509 -0.0354  0.2780  0.3800
18119TIP3    H175772   4.144   1.272   3.444  0.3355 -1.8332  0.8272
18119TIP3    H275773   4.116   1.317   3.585  0.0362  1.1314 -0.1079
18120TIP3   OH275774   3.569   6.425  16.358  0.2679 -0.1056 -0.0355
18120TIP3    H175775   3.598   6.425  16.266  1.2258  1.2256  0.2221
18120TIP3    H275776   3.598   6.510  16.391 -2.4318  0.5928  0.7812
18121TIP3   OH275777   6.641   4.092  12.009 -0.5188 -0.6025  0.2714
18121TIP3    H175778   6.735   4.075  12.004 -0.4518 -0.0051 -0.7069
18121TIP3    H275779   6.631   4.152  12.083  0.0266  0.3032 -0.3721
18122TIP3   OH275780   2.372   0.801  16.995  0.0249 -0.2519  0.1888
18122TIP3    H175781   2.455   0.758  17.017 -0.5212 -0.3218  2.3029
18122TIP3    H275782   2.305   0.744  17.033 -1.1236 -0.7075 -2.2820
18123TIP3   OH275783   6.140   0.127   4.728  0.2494  0.6134  0.6592
18123TIP3    H175784   6.059   0.081   4.704  1.0048 -0.6915  0.5163
18123TIP3    H275785   6.177   0.154   4.644  0.7092 -0.1220  0.6184
18124TIP3   OH275786   1.729   6.018   1.653 -0.0416  0.0381  0.0791
18124TIP3    H175787   1.679   6.048   1.577  0.1184 -0.8452 -0.3972
18124TIP3    H275788   1.785   5.948   1.618 -1.3404 -1.7367  1.3489
18125TIP3   OH275789   4.021   5.102  15.036  0.0526  0.5329 -1.2789
18125TIP3    H175790   4.038   5.041  15.108 -0.1885  2.2745  0.3303
18125TIP3    H275791   4.051   5.056  14.958  2.1700 -0.6754  0.1448
18126TIP3   OH275792   0.827   1.320  11.459  0.2887 -0.1780 -0.1279
18126TIP3    H175793   0.792   1.391  11.406  1.8706  0.1142 -0.8503
18126TIP3    H275794   0.766   1.312  11.532 -0.6778  0.9758 -0.7741
18127TIP3   OH275795   3.421   1.778   5.224  0.3646  0.0224 -0.3223
18127TIP3    H175796   3.447   1.699   5.176  1.0795  0.0451  0.0277
18127TIP3    H275797   3.495   1.797   5.282 -0.3562  0.1712  0.5791
18128TIP3   OH275798   6.531   4.077   1.881 -0.0677  0.4263 -0.4265
18128TIP3    H175799   6.594   4.148   1.896  0.8069 -0.7737  2.2542
18128TIP3    H275800   6.450   4.107   1.921  0.2605  0.0265  0.5741
18129TIP3   OH275801   6.379   0.828   6.141  0.0543  0.8299 -0.0100
18129TIP3    H175802   6.288   0.837   6.115  0.1146  2.1068  0.1762
18129TIP3    H275803   6.413   0.758   6.085 -0.7907  0.9852 -0.7402
18130TIP3   OH275804   0.777   6.738  16.114  0.2856  0.0861 -0.2797
18130TIP3    H175805   0.716   6.684  16.163 -0.1886  0.6012 -0.2981
18130TIP3    H275806   0.727   6.816  16.089  1.2399  1.0505  0.6702
18131TIP3   OH275807   5.906   1.312  15.357 -0.2958 -0.9047 -0.4314
18131TIP3    H175808   5.983   1.355  15.394 -0.8747  0.5039 -0.8076
18131TIP3    H275809   5.880   1.249  15.423 -0.1050  0.1371  0.6600
18132TIP3   OH275810   3.255   1.424   0.956  0.1149 -0.0855  0.0363
18132TIP3    H175811   3.284   1.487   0.889 -0.1449 -1.8362 -1.7851
18132TIP3    H275812   3.252   1.476   1.037 -1.6093  2.6562 -1.6347
18133TIP3   OH275813   4.220   2.654   2.573 -0.1232  0.6079  0.7045
18133TIP3    H175814   4.257   2.728   2.622 -1.2875  0.6583  1.5695
18133TIP3    H275815   4.125   2.666   2.582 -0.3632  0.2312 -1.0285
18134TIP3   OH275816   2.207   3.967   4.457 -0.4384 -0.0579 -0.4317
18134TIP3    H175817   2.181   3.948   4.547  1.4573 -1.0315 -0.0544
18134TIP3    H275818   2.212   3.881   4.415 -0.1847  0.2991 -1.1490
18135TIP3   OH275819   6.753   1.062   9.975 -0.1228 -0.1191  0.4247
18135TIP3    H175820   6.834   1.108   9.997 -0.1850  1.6075 -2.4080
18135TIP3    H275821   6.782   0.977   9.941  0.4777  0.2002  0.1187
18136TIP3   OH275822   0.070   6.560  11.650  0.2681  0.3843  0.1315
18136TIP3    H175823   0.088   6.625  11.582  0.6872 -1.0857 -1.2317
18136TIP3    H275824   0.140   6.495  11.639 -1.9456 -1.9994 -0.7721
18137TIP3   OH275825   5.066   0.140  15.304 -0.6920 -0.1503  0.0109
18137TIP3    H175826   4.998   0.089  15.260  0.0699 -0.8470 -0.3915
18137TIP3    H275827   5.043   0.231  15.286 -0.3377 -0.4022 -2.0147
18138TIP3   OH275828   2.091   5.496  11.928  0.3740 -0.5567  0.3003
18138TIP3    H175829   2.186   5.497  11.915  0.2532  1.7077 -0.8544
18138TIP3    H275830   2.081   5.486  12.023  1.7841 -0.1715  0.5260
18139TIP3   OH275831   2.012   0.041  10.688  0.0844 -0.0113 -0.0591
18139TIP3    H175832   2.027  -0.046  10.724  0.6130 -0.7438 -1.9630
18139TIP3    H275833   2.071   0.048  10.614 -0.8513  1.4878 -0.7311
18140TIP3   OH275834   2.048   0.117  14.215  0.1574 -0.3543 -0.3405
18140TIP3    H175835   2.031   0.144  14.124  1.7270  2.3675  0.0604
18140TIP3    H275836   1.974   0.061  14.237 -0.7045 -0.4471 -3.0292
18141TIP3   OH275837   3.807   5.339   1.839  0.2754  0.3513  0.0942
18141TIP3    H175838   3.855   5.400   1.783  1.4348  0.5405  1.2575
18141TIP3    H275839   3.725   5.384   1.860  0.3607  0.7712 -0.4594
18142TIP3   OH275840   2.038   2.938   4.707 -0.0998 -0.1272 -0.2803
18142TIP3    H175841   2.071   2.924   4.618  0.8445 -1.1639  0.2147
18142TIP3    H275842   2.105   2.901   4.764 -0.6539  0.5918  0.8783
18143TIP3   OH275843   6.690   4.341   3.981  0.0446 -0.4155 -0.6383
18143TIP3    H175844   6.633   4.327   4.057  4.1549  0.1777  2.9551
18143TIP3    H275845   6.727   4.428   3.994  2.1606 -0.9566 -2.4310
18144TIP3   OH275846   3.767   5.335  16.464 -0.6131  0.4698  0.4998
18144TIP3    H175847   3.694   5.326  16.524  0.2887 -0.8526  1.4452
18144TIP3    H275848   3.845   5.321  16.518  0.2669  0.1988 -0.7847
18145TIP3   OH275849   0.048   4.352  11.023  0.1987  0.4488 -0.4309
18145TIP3    H175850   0.081   4.327  10.937 -0.0112  0.0690 -0.4015
18145TIP3    H275851   0.047   4.448  11.021  1.7693  0.5021 -0.2478
18146TIP3   OH275852   5.302   0.992   4.062  0.2651  0.0102 -0.5392
18146TIP3    H175853   5.387   0.978   4.020  0.8757  1.2908  0.1832
18146TIP3    H275854   5.240   0.945   4.007  1.3161 -0.1403 -1.6473
18147TIP3   OH275855   6.129   2.147  13.319 -0.5700  0.3068  0.3753
18147TIP3    H175856   6.199   2.095  13.358  0.3026  1.2727  0.1335
18147TIP3    H275857   6.091   2.195  13.393 -0.8441 -0.0625  0.4751
18148TIP3   OH275858   4.115   1.758  16.610 -0.3688  0.1236 -0.5418
18148TIP3    H175859   4.065   1.700  16.554  0.6756 -0.9571 -0.3921
18148TIP3    H275860   4.162   1.816  16.549 -2.2935  1.6363 -0.6725
18149TIP3   OH275861   4.800   6.765   1.603  0.0019 -0.1387 -0.2584
18149TIP3    H175862   4.725   6.772   1.545 -0.9870  1.0882  1.0957
18149TIP3    H275863   4.866   6.822   1.564  0.0309 -0.7289 -1.1085
18150TIP3   OH275864   0.222   3.091  15.298 -0.2550  0.7511 -0.0004
18150TIP3    H175865   0.153   3.143  15.339 -0.1333 -0.4564  1.8387
18150TIP3    H275866   0.197   3.000  15.315  0.5673  0.2202 -1.4155
18151TIP3   OH275867   4.248   0.605  10.981  0.0822 -0.3826 -0.5202
18151TIP3    H175868   4.265   0.641  10.893  2.2042  0.2358  0.0733
18151TIP3    H275869   4.163   0.562  10.973 -0.4660  0.9014 -2.4862
18152TIP3   OH275870   5.992   0.748  13.011  0.5353 -0.0623  0.0536
18152TIP3    H175871   5.986   0.842  13.032 -2.0808  0.4185 -2.1533
18152TIP3    H275872   5.955   0.704  13.087 -1.7055  1.0305 -0.3090
18153TIP3   OH275873   3.066   0.023  15.048  0.2035  0.4007  0.3582
18153TIP3    H175874   3.125   0.092  15.077  0.5105  0.1138  0.4219
18153TIP3    H275875   2.980   0.065  15.042  0.4818  0.9173 -0.1144
18154TIP3   OH275876   1.248   6.750   0.329  0.0243 -0.2382 -0.5785
18154TIP3    H175877   1.306   6.815   0.368  1.8141 -2.0380 -0.1117
18154TIP3    H275878   1.205   6.708   0.403  0.9045 -1.3773 -0.6833
18155TIP3   OH275879   6.809   4.682   5.003  0.2226 -0.0682  0.7087
18155TIP3    H175880   6.744   4.751   5.018 -0.7246 -0.9954  1.0072
18155TIP3    H275881   6.772   4.605   5.046  1.8407 -0.4602  1.4751
18156TIP3   OH275882   5.304   1.588   4.319 -0.7642 -0.1223  0.4527
18156TIP3    H175883   5.309   1.579   4.224 -1.7915  1.3254  0.2450
18156TIP3    H275884   5.386   1.549   4.350 -0.9438 -1.7303 -0.9125
18157TIP3   OH275885   4.598   6.361   4.113  0.2478  0.3615  0.3098
18157TIP3    H175886   4.662   6.290   4.114  1.7289  1.6113 -1.1360
18157TIP3    H275887   4.516   6.320   4.141  0.6037 -2.3442 -2.2082
18158TIP3   OH275888   1.481   0.751   4.457  0.0448 -0.9677 -0.8170
18158TIP3    H175889   1.398   0.794   4.478  0.7866  0.5671 -0.8860
18158TIP3    H275890   1.464   0.704   4.375 -1.5568 -3.1707  0.6508
18159TIP3   OH275891   6.192   4.188  15.485 -0.0625 -0.3221 -0.3956
18159TIP3    H175892   6.268   4.132  15.469 -0.9982 -1.3016 -1.6785
18159TIP3    H275893   6.140   4.181  15.404 -1.5937  0.1732  0.5042
18160TIP3   OH275894   0.519   0.927  16.550 -0.3798  0.0245  0.4955
18160TIP3    H175895   0.434   0.939  16.508  0.3427  1.3597 -0.6968
18160TIP3    H275896   0.578   0.983  16.500  0.8716  0.4519  2.3298
18161TIP3   OH275897   5.892   1.189  14.176 -0.6248  0.1847  0.2862
18161TIP3    H175898   5.983   1.181  14.149 -0.8577  1.0400 -0.8134
18161TIP3    H275899   5.848   1.116  14.132 -0.6076  0.2175  0.2155
18162TIP3   OH275900   1.965   3.140   0.574 -0.0996 -0.6711  0.0967
18162TIP3    H175901   1.950   3.078   0.503  0.7329 -0.4008 -0.3377
18162TIP3    H275902   1.901   3.210   0.560  0.3222 -0.4188 -0.6402
18163TIP3   OH275903   1.224   6.264   5.234  0.4325 -0.0836 -0.6423
18163TIP3    H175904   1.190   6.305   5.155  2.1136 -3.6288 -3.5351
18163TIP3    H275905   1.167   6.189   5.248  1.4511 -0.7398  0.1539
18164TIP3   OH275906   4.637   4.087   5.302  0.0815  0.2276 -0.0028
18164TIP3    H175907   4.703   4.139   5.350 -0.7082  1.3228 -0.0784
18164TIP3    H275908   4.687   4.044   5.233  0.8620  0.3690  0.4500
18165TIP3   OH275909   1.723   5.624  14.982  0.3156 -0.0471 -0.0001
18165TIP3    H175910   1.637   5.618  14.942  0.1066 -0.5422  0.5127
18165TIP3    H275911   1.782   5.586  14.917 -0.2587 -2.6125  0.8568
18166TIP3   OH275912   1.581   3.535  16.811 -0.1820  0.6880 -0.2162
18166TIP3    H175913   1.614   3.477  16.742 -1.0782  0.2607 -0.2943
18166TIP3    H275914   1.660   3.573  16.849  0.3605  0.4060 -1.0210
18167TIP3   OH275915   2.810   6.235  13.176  0.0991  0.1446  0.7706
18167TIP3    H175916   2.889   6.218  13.226  0.7664  1.5260  0.2415
18167TIP3    H275917   2.822   6.187  13.094 -0.0567 -0.4145  1.0670
18168TIP3   OH275918   5.273   3.947   1.826  0.5081 -0.5307  0.7928
18168TIP3    H175919   5.275   4.040   1.848  0.9961  0.1935 -1.9194
18168TIP3    H275920   5.180   3.928   1.813  0.5140 -0.0017 -0.1083
18169TIP3   OH275921   0.395   1.074  11.021  0.1543  0.2944 -0.0298
18169TIP3    H175922   0.479   1.078  11.066  0.7199 -2.1306 -0.6913
18169TIP3    H275923   0.387   1.157  10.975  2.1877  0.5867  0.0712
18170TIP3   OH275924   4.336   0.376   4.218 -0.0890  0.0698  0.2400
18170TIP3    H175925   4.415   0.400   4.169  0.0637  1.0485  0.9314
18170TIP3    H275926   4.352   0.285   4.245  1.2405  0.5428  1.1587
18171TIP3   OH275927   2.284   6.281  12.073 -0.0146  0.2657  0.1785
18171TIP3    H175928   2.205   6.269  12.127  0.8315  2.0122  1.9209
18171TIP3    H275929   2.355   6.249  12.128  0.6199 -0.2746 -0.9400
18172TIP3   OH275930   0.496   4.779   3.402  0.7022 -0.0518  0.3939
18172TIP3    H175931   0.534   4.781   3.490 -1.9092  1.4779  1.5892
18172TIP3    H275932   0.490   4.686   3.381 -2.3649 -0.8054  3.6722
18173TIP3   OH275933   2.802   3.148   4.180  0.0573 -0.5924 -0.5404
18173TIP3    H175934   2.881   3.202   4.183  0.1971 -0.7639 -1.0442
18173TIP3    H275935   2.732   3.209   4.204  0.6449 -1.1909  3.3976
18174TIP3   OH275936   4.398   3.718  14.460 -0.0073  0.4337 -0.6126
18174TIP3    H175937   4.422   3.805  14.428  0.5855  1.5144  2.3827
18174TIP3    H275938   4.458   3.658  14.417  0.7245  1.7396 -1.4616
18175TIP3   OH275939   1.779   0.475  11.630 -0.0726  0.0787  0.0047
18175TIP3    H175940   1.719   0.548  11.616  0.6724  0.4292 -1.6733
18175TIP3    H275941   1.723   0.398  11.635 -0.8195  0.6626  1.1310
18176TIP3   OH275942   1.106   4.903   2.091 -0.3374  0.2242 -0.1929
18176TIP3    H175943   1.066   4.902   2.004 -0.6906  0.8261 -0.0440
18176TIP3    H275944   1.149   4.817   2.099  2.6148  1.3101 -2.3056
18177TIP3   OH275945   1.045   4.100   3.660  0.0000  0.2576  0.8329
18177TIP3    H175946   1.008   4.134   3.578  1.4238 -0.5824 -0.2215
18177TIP3    H275947   1.071   4.178   3.708 -1.4900  0.7925  0.8296
18178TIP3   OH275948   4.763   3.734  16.274  1.0522 -0.0997 -0.0608
18178TIP3    H175949   4.734   3.725  16.183 -1.4359  1.4868  0.4668
18178TIP3    H275950   4.729   3.655  16.318 -0.6674  0.6858  0.0960
18179TIP3   OH275951   5.575   2.095  14.115  0.1300  0.3037 -1.0652
18179TIP3    H175952   5.502   2.073  14.057 -2.1039  1.7420  1.0350
18179TIP3    H275953   5.560   2.186  14.140  3.4096  1.0934 -1.5151
18180TIP3   OH275954   2.943   1.656  11.033  0.1331  0.0272 -0.3168
18180TIP3    H175955   2.854   1.664  10.998  0.2471  1.0103 -0.4189
18180TIP3    H275956   2.996   1.631  10.957 -0.0238 -0.3443 -0.3021
18181TIP3   OH275957   5.081   4.025  11.472 -0.0781  0.5527 -0.4371
18181TIP3    H175958   4.994   4.054  11.445 -0.8682 -2.1894 -1.2042
18181TIP3    H275959   5.137   4.044  11.396 -0.5122  0.2970 -0.8275
18182TIP3   OH275960   1.382   4.332  11.800  0.2802  0.0985  0.2486
18182TIP3    H175961   1.378   4.297  11.889  0.4872 -2.3775 -0.6245
18182TIP3    H275962   1.475   4.329  11.777  0.1321 -0.2601 -0.3615
18183TIP3   OH275963   4.328   0.571  11.442 -0.3762 -0.5399 -0.0108
18183TIP3    H175964   4.363   0.495  11.396 -1.2076 -1.1351  0.3005
18183TIP3    H275965   4.272   0.534  11.511  0.4691  0.3238  1.1913
18184TIP3   OH275966   4.232   4.393   3.309 -0.2212  0.1212  0.5888
18184TIP3    H175967   4.252   4.486   3.310 -2.4599  0.7516 -1.9014
18184TIP3    H275968   4.311   4.352   3.273 -0.2131  1.4607 -1.0482
18185TIP3   OH275969   0.828   2.481   0.427 -0.6645  0.4186  0.1693
18185TIP3    H175970   0.859   2.392   0.443 -0.5380  0.5360  0.6157
18185TIP3    H275971   0.892   2.518   0.366  3.1448  2.2705  4.6827
18186TIP3   OH275972   0.360   6.094   1.515 -0.1714 -0.2493 -0.3168
18186TIP3    H175973   0.378   6.130   1.602 -0.3138  1.4663 -0.9589
18186TIP3    H275974   0.291   6.029   1.530 -1.1620  0.9892  0.7031
18187TIP3   OH275975   4.535   5.811   3.239  0.1587 -0.0939  0.1955
18187TIP3    H175976   4.559   5.720   3.226  1.2284  0.0647  1.0061
18187TIP3    H275977   4.613   5.861   3.215 -0.0677  0.5521  0.7640
18188TIP3   OH275978   0.832   0.349   4.256  0.7270  0.1761 -0.4281
18188TIP3    H175979   0.898   0.347   4.186  0.6994 -1.8214 -0.4633
18188TIP3    H275980   0.883   0.342   4.337  0.6388  0.1087 -0.3786
18189TIP3   OH275981   2.425   4.141   2.279 -0.2096 -0.0394  0.0650
18189TIP3    H175982   2.471   4.223   2.261 -0.5861  0.3338  0.7604
18189TIP3    H275983   2.469   4.076   2.224  1.8165  0.0819  1.4469
18190TIP3   OH275984   1.257   0.727  13.438  0.1930  0.4422 -0.1288
18190TIP3    H175985   1.283   0.743  13.529  2.4508  0.5470 -0.7415
18190TIP3    H275986   1.235   0.814  13.404  1.1203  0.6589 -0.1853
18191TIP3   OH275987   6.514   4.868  11.023 -0.0801  0.0397 -0.3270
18191TIP3    H175988   6.450   4.797  11.015  0.7393 -0.6151 -1.5075
18191TIP3    H275989   6.543   4.884  10.933 -0.2579  1.9097 -0.0875
18192TIP3   OH275990   3.663   2.054  10.957 -0.5262  0.2768 -0.3110
18192TIP3    H175991   3.669   2.039  10.863 -0.5259  0.0549 -0.2775
18192TIP3    H275992   3.740   2.011  10.993 -0.9812 -0.4081 -0.1252
18193TIP3   OH275993   5.062   3.108  16.840  0.1976 -0.0729  0.3539
18193TIP3    H175994   5.076   3.045  16.770  1.3719  1.7897 -1.1602
18193TIP3    H275995   5.150   3.132  16.869 -0.2463  0.3705  1.3889
18194TIP3   OH275996   4.259   6.177  10.629 -0.2069 -0.1439 -0.3032
18194TIP3    H175997   4.287   6.209  10.543 -3.0214  2.8611 -0.2986
18194TIP3    H275998   4.331   6.200  10.688 -0.0659  1.8459 -1.1813
18195TIP3   OH275999   6.148   6.726  16.430 -0.0496  0.1087 -0.7097
18195TIP3    H176000   6.233   6.690  16.404  1.2076  1.6696  1.0007
18195TIP3    H276001   6.131   6.795  16.365  0.6345  0.6304 -0.3576
18196TIP3   OH276002   4.592   5.350  11.092  0.0262  0.4856 -0.1422
18196TIP3    H176003   4.645   5.349  11.012  0.2717  0.1078  0.0229
18196TIP3    H276004   4.564   5.441  11.100 -0.4544  0.4188 -0.9529
18197TIP3   OH276005   4.945   5.797   4.326  0.3920 -0.3743  0.6068
18197TIP3    H176006   4.852   5.773   4.324  0.2876  0.0250  0.4503
18197TIP3    H276007   4.989   5.727   4.279 -0.0461  0.3367 -0.9173
18198TIP3   OH276008   5.271   3.259  16.566  0.1396 -0.1125 -0.3567
18198TIP3    H176009   5.223   3.342  16.558 -0.8995 -0.5843  0.6517
18198TIP3    H276010   5.204   3.195  16.590  1.1728 -0.9296  0.4679
18199TIP3   OH276011   4.413   0.341  16.236  0.0480  0.0190  0.6540
18199TIP3    H176012   4.494   0.387  16.211 -0.4947  0.9065  0.4834
18199TIP3    H276013   4.401   0.275  16.168  0.6505 -0.1461  0.7027
18200TIP3   OH276014   1.756   6.009  13.333  0.1584 -0.3773  0.1197
18200TIP3    H176015   1.830   6.070  13.328  0.1108 -0.2662  0.6707
18200TIP3    H276016   1.682   6.064  13.361  0.0742 -0.6495  0.4381
18201TIP3   OH276017   4.809   5.812  12.392  0.8035  0.0084 -0.2857
18201TIP3    H176018   4.803   5.746  12.323 -1.2150  0.3274 -0.4668
18201TIP3    H276019   4.808   5.896  12.345  0.0074  0.2154  0.0970
18202TIP3   OH276020   2.601   3.205  13.713  0.9107 -0.6049 -0.1988
18202TIP3    H176021   2.540   3.142  13.676 -2.0620  0.2872  2.6908
18202TIP3    H276022   2.597   3.281  13.655  2.4103 -1.9030 -2.1544
18203TIP3   OH276023   2.689   5.140   1.020 -0.0044  0.2455  0.0736
18203TIP3    H176024   2.703   5.046   1.009 -0.6927  0.1751 -0.2638
18203TIP3    H276025   2.744   5.181   0.954 -0.3746  0.0319 -0.3724
18204TIP3   OH276026   4.410   5.164  10.923  0.0508  0.0343  0.6173
18204TIP3    H176027   4.449   5.232  10.978  1.1565 -0.0965  0.0148
18204TIP3    H276028   4.335   5.206  10.882  1.6814  1.4350 -1.0495
18205TIP3   OH276029   1.478   2.276   3.157  0.0682  0.3255  0.8746
18205TIP3    H176030   1.390   2.287   3.193  0.2341 -1.7258  2.0906
18205TIP3    H276031   1.533   2.333   3.210 -0.5092  1.7577 -0.0097
18206TIP3   OH276032   5.415   1.500  16.424 -0.3601 -0.3007  0.1646
18206TIP3    H176033   5.428   1.594  16.413 -0.2205 -0.4467 -0.9439
18206TIP3    H276034   5.492   1.471  16.474  1.2173 -0.3379 -2.1683
18207TIP3   OH276035   6.088   1.442   5.106 -0.7625 -0.5545  0.6528
18207TIP3    H176036   6.162   1.400   5.148 -1.3954 -2.1071  0.2652
18207TIP3    H276037   6.115   1.533   5.095  0.8457 -0.9663  1.0364
18208TIP3   OH276038   0.660   3.696   6.014 -0.5923 -0.4218  0.2275
18208TIP3    H176039   0.685   3.614   5.970  0.8594 -0.9015  1.8272
18208TIP3    H276040   0.674   3.679   6.107 -1.9820  1.0987  0.7635
18209TIP3   OH276041   3.573   2.761  14.018  0.0436 -0.0470 -0.2592
18209TIP3    H176042   3.602   2.853  14.018  1.3845 -0.4543 -0.4271
18209TIP3    H276043   3.574   2.735  14.110 -0.7649  0.2244 -0.1663
18210TIP3   OH276044   1.637   1.341  16.679 -0.0042  0.1285 -0.2079
18210TIP3    H176045   1.602   1.404  16.615  1.5686 -0.0191 -1.2625
18210TIP3    H276046   1.592   1.259  16.659 -0.8001  0.4929  0.0451
18211TIP3   OH276047   1.911   0.782  10.153 -0.5024 -0.1405  0.4915
18211TIP3    H176048   1.828   0.746  10.187 -0.2401  0.3944  1.7723
18211TIP3    H276049   1.949   0.710  10.103 -1.4032 -0.6360  0.4876
18212TIP3   OH276050   5.790   1.469  14.149 -0.7578  0.2420 -0.0847
18212TIP3    H176051   5.809   1.387  14.195 -1.0864 -1.5076 -2.8315
18212TIP3    H276052   5.876   1.509  14.136 -0.4004 -0.5004 -0.0840
18213TIP3   OH276053   2.112   1.288   3.527  0.4444 -0.0911 -0.2096
18213TIP3    H176054   2.074   1.301   3.614 -1.0314 -1.7887 -0.5344
18213TIP3    H276055   2.205   1.307   3.538  0.0464  1.2063  1.3635
18214TIP3   OH276056   4.777   2.409   5.408 -0.1048 -0.1031  0.2500
18214TIP3    H176057   4.794   2.320   5.376  1.3294  0.4773 -0.7278
18214TIP3    H276058   4.831   2.465   5.352 -0.2375  1.3097  1.4721
18215TIP3   OH276059   5.171   0.092   4.139  0.2765  0.3125 -0.5307
18215TIP3    H176060   5.245   0.152   4.138  0.0643  0.5730 -0.5973
18215TIP3    H276061   5.094   0.148   4.137  0.0736  0.0502 -0.1882
18216TIP3   OH276062   3.058   3.344   4.053  0.2857  0.4320 -0.6801
18216TIP3    H176063   3.153   3.337   4.048  0.5069 -1.0860  2.6766
18216TIP3    H276064   3.042   3.417   4.112 -0.3366 -1.6879  1.9925
18217TIP3   OH276065   2.406   3.631  15.643 -0.2910 -0.2645  0.8662
18217TIP3    H176066   2.383   3.721  15.667  0.6261 -0.0076  0.8288
18217TIP3    H276067   2.325   3.595  15.607 -1.2085 -0.0882  2.6627
18218TIP3   OH276068   1.299   3.946  13.724 -0.2964  0.4559  0.3374
18218TIP3    H176069   1.259   3.861  13.744  1.0416 -0.3907 -0.4092
18218TIP3    H276070   1.289   3.997  13.804 -1.6336 -0.1901  0.6110
18219TIP3   OH276071   5.152   0.903  13.184 -0.1172 -0.4526  0.1952
18219TIP3    H176072   5.122   0.815  13.206 -0.5870 -0.6568 -1.1304
18219TIP3    H276073   5.103   0.961  13.241 -2.4587 -0.8375 -1.3013
18220TIP3   OH276074   1.550   5.646  16.492 -0.6613 -0.0407 -0.2503
18220TIP3    H176075   1.561   5.635  16.587 -2.1784  0.5554  0.0148
18220TIP3    H276076   1.567   5.559  16.456  1.5068  0.0569  0.3723
18221TIP3   OH276077   6.422   0.047   3.016  0.3980  0.3233 -0.4822
18221TIP3    H176078   6.471  -0.032   3.036 -0.5061 -0.5540 -1.5410
18221TIP3    H276079   6.427   0.100   3.095 -0.2769 -1.4817  0.8550
18222TIP3   OH276080   0.306   5.912  11.613 -0.1268  0.4493 -0.4109
18222TIP3    H176081   0.257   5.972  11.668  1.5600  1.9135 -0.4211
18222TIP3    H276082   0.357   5.859  11.675  1.4798  1.8409 -0.4552
18223TIP3   OH276083   2.444   0.657   3.515  0.4891  0.0225 -0.8454
18223TIP3    H176084   2.409   0.580   3.561  2.9299  0.4429  2.0174
18223TIP3    H276085   2.372   0.685   3.458 -1.5212 -2.6472  0.1452
18224TIP3   OH276086   2.106   3.284   2.261 -0.3520 -0.1812 -0.3468
18224TIP3    H176087   2.049   3.308   2.188 -0.5903  1.9094  0.4619
18224TIP3    H276088   2.130   3.367   2.302 -0.9247 -1.2736  2.4760
18225TIP3   OH276089   0.812   6.076   4.931 -0.0627 -0.0848 -0.5409
18225TIP3    H176090   0.839   6.097   4.842  0.6870  3.0373  0.2842
18225TIP3    H276091   0.847   5.989   4.948  2.5708  0.5494 -2.2471
18226TIP3   OH276092   1.313   6.717  14.612  0.3107 -0.1000  0.3905
18226TIP3    H176093   1.334   6.780  14.543  0.6703 -0.1004  0.4980
18226TIP3    H276094   1.382   6.652  14.608  0.0158 -0.4164  0.3761
18227TIP3   OH276095   5.515   3.312   4.052 -0.0040  0.2102  0.7885
18227TIP3    H176096   5.458   3.279   3.982 -0.0043  0.3253  0.7353
18227TIP3    H276097   5.455   3.337   4.122 -0.0810  1.1704  0.3914
18228TIP3   OH276098   3.242   4.150  16.315  0.3774 -0.1661 -0.0517
18228TIP3    H176099   3.266   4.104  16.396  0.3134  0.3891  0.2914
18228TIP3    H276100   3.292   4.106  16.246  2.3318  0.8994  0.6191
18229TIP3   OH276101   5.548   4.187   4.587 -0.3031  0.4148 -0.4777
18229TIP3    H176102   5.536   4.092   4.593  0.0290  0.3893 -0.2251
18229TIP3    H276103   5.641   4.199   4.573  0.1742  0.8062  2.4081
18230TIP3   OH276104   3.004   5.224   2.601 -0.3057  0.3995  0.1427
18230TIP3    H176105   2.928   5.182   2.641  0.2447 -0.3604  0.4273
18230TIP3    H276106   3.007   5.187   2.512  0.8768 -1.1596  0.7766
18231TIP3   OH276107   4.959   2.567   0.360 -0.5629  0.3105 -0.4344
18231TIP3    H176108   4.887   2.626   0.381 -0.2690  0.0680  1.4181
18231TIP3    H276109   4.917   2.484   0.339 -0.8413  0.0514  1.0477
18232TIP3   OH276110   6.287   6.431  13.561  0.1719 -0.4691  0.4106
18232TIP3    H176111   6.274   6.373  13.486  0.1434 -0.8645  0.7182
18232TIP3    H276112   6.379   6.418  13.584  0.9395  1.5885 -1.1574
18233TIP3   OH276113   1.544   6.425  11.260 -0.3635 -0.0353  0.1530
18233TIP3    H176114   1.490   6.502  11.279  1.5013  1.7782 -1.2980
18233TIP3    H276115   1.487   6.368  11.209 -2.2846 -0.4307  2.5514
18234TIP3   OH276116   6.619   1.385   0.916 -0.1933  0.0745 -0.5796
18234TIP3    H176117   6.550   1.358   0.854 -0.3815 -0.3252 -0.2026
18234TIP3    H276118   6.573   1.396   0.999 -0.0623  1.2684 -0.6451
18235TIP3   OH276119   4.668   5.259  11.920 -0.8147  0.2739  0.6877
18235TIP3    H176120   4.664   5.284  12.013  0.0352  0.8422  0.5794
18235TIP3    H276121   4.645   5.166  11.920  0.3314 -0.0431  1.6300
18236TIP3   OH276122   6.419   3.640   3.214 -0.0085 -0.2472 -0.7621
18236TIP3    H176123   6.504   3.653   3.256 -0.3851 -0.1106 -0.0186
18236TIP3    H276124   6.415   3.707   3.146  0.6067 -0.4669 -1.0265
18237TIP3   OH276125   6.814   5.498   0.077  0.1022  0.2906  0.3104
18237TIP3    H176126   6.788   5.517  -0.014 -1.0368 -0.8217  0.3829
18237TIP3    H276127   6.756   5.427   0.104 -1.1284  2.0360  2.6447
18238TIP3   OH276128   4.513   5.568   1.367  0.0346  0.0169  0.6856
18238TIP3    H176129   4.557   5.649   1.390 -1.9904  1.4913 -0.2480
18238TIP3    H276130   4.535   5.554   1.275  0.9347 -0.9164  1.0225
18239TIP3   OH276131   2.187   2.731  15.590 -0.4194  0.0339  0.4447
18239TIP3    H176132   2.202   2.824  15.576 -0.8785  0.1686  0.8079
18239TIP3    H276133   2.274   2.691  15.583 -0.2906  0.4177 -0.2168
18240TIP3   OH276134   4.289   3.276   0.191 -0.5254 -0.0348 -0.1221
18240TIP3    H176135   4.290   3.181   0.206 -0.2535  0.1092  0.8784
18240TIP3    H276136   4.334   3.312   0.268 -0.2035  0.8753 -0.7213
18241TIP3   OH276137   3.534   3.782  15.883 -0.5609 -0.2060  0.9639
18241TIP3    H176138   3.522   3.757  15.975 -0.2050  0.7035  1.2668
18241TIP3    H276139   3.628   3.799  15.875 -0.2879 -1.9041 -0.0015
18242TIP3   OH276140   3.570   6.378  12.944 -0.5618 -0.3540  0.0908
18242TIP3    H176141   3.590   6.423  13.027  0.5396 -2.3527  0.9883
18242TIP3    H276142   3.476   6.390  12.932 -0.3905  1.7382  0.5149
18243TIP3   OH276143   3.797   3.648   4.101  0.3558 -0.1152 -0.2403
18243TIP3    H176144   3.777   3.558   4.074 -0.3073 -0.4190  1.1457
18243TIP3    H276145   3.807   3.642   4.196  1.0497  1.1535 -0.2224
18244TIP3   OH276146   6.671   6.699  12.779  0.4156  0.5807  0.1770
18244TIP3    H176147   6.697   6.790  12.761  2.0075 -0.0010 -0.6196
18244TIP3    H276148   6.594   6.708  12.835  0.4614  2.4269  0.0330
18245TIP3   OH276149   0.856   3.051  16.620  0.1261  0.1438 -1.0145
18245TIP3    H176150   0.846   2.991  16.546 -2.0931 -1.6597  0.5864
18245TIP3    H276151   0.778   3.105  16.618 -0.1877 -0.2205  0.2031
18246TIP3   OH276152   4.845   4.276   5.001 -0.4406 -0.3582  0.1342
18246TIP3    H176153   4.903   4.317   5.065 -1.7243 -1.1688  1.9153
18246TIP3    H276154   4.821   4.347   4.942  0.8632  0.4071  0.4912
18247TIP3   OH276155   4.204   1.266  16.008 -0.7913 -0.0360 -0.4120
18247TIP3    H176156   4.209   1.270  15.913 -0.8734  1.3128 -0.3788
18247TIP3    H276157   4.216   1.356  16.037 -0.6554 -0.4387  0.8675
18248TIP3   OH276158   5.493   1.794   2.954 -0.5697 -0.2551  0.0599
18248TIP3    H176159   5.445   1.721   2.916 -1.9375  1.0611 -0.8831
18248TIP3    H276160   5.531   1.759   3.035 -0.0999 -2.3190 -0.9810
18249TIP3   OH276161   0.434   4.648  11.062  0.3431 -0.7506  0.4637
18249TIP3    H176162   0.369   4.708  11.096  0.8817  0.0347  0.1390
18249TIP3    H276163   0.510   4.703  11.043  0.4947 -1.3522 -0.8081
18250TIP3   OH276164   0.339   1.878  16.149  0.8789 -0.2984  0.4539
18250TIP3    H176165   0.327   1.794  16.105 -0.3534 -0.0913  0.3569
18250TIP3    H276166   0.306   1.863  16.238 -0.1162  0.2768  0.2049
18251TIP3   OH276167   2.932   2.794   0.062  0.0423  0.6360 -0.2389
18251TIP3    H176168   2.928   2.747   0.145  1.0742  1.3983  0.2671
18251TIP3    H276169   2.841   2.799   0.033 -0.0778 -2.2927 -0.7216
18252TIP3   OH276170   2.612   6.745  16.752  0.1819  0.0964 -0.4290
18252TIP3    H176171   2.614   6.725  16.659  0.5575  2.7239 -1.0837
18252TIP3    H276172   2.565   6.829  16.757 -2.3177 -1.2693  2.0649
18253TIP3   OH276173   0.715   1.702  16.225  0.0632 -0.0056 -0.1975
18253TIP3    H176174   0.779   1.730  16.160  1.1010  1.0934  1.2391
18253TIP3    H276175   0.650   1.772  16.228 -1.0913 -0.9688 -1.4206
18254TIP3   OH276176   1.650   4.084   2.942 -0.4360  0.3079 -0.1044
18254TIP3    H176177   1.668   4.054   3.031 -0.1018 -2.3604 -0.9744
18254TIP3    H276178   1.566   4.043   2.919 -0.9758  1.6865 -0.7485
18255TIP3   OH276179   0.437   4.326  15.553  0.2953 -0.8337 -0.2431
18255TIP3    H176180   0.512   4.362  15.600 -0.4144  0.3208  0.0384
18255TIP3    H276181   0.471   4.308  15.465  0.5077  1.3873 -0.6905
18256TIP3   OH276182   5.905   3.763   2.317 -0.4538  0.2388  0.1365
18256TIP3    H176183   5.913   3.850   2.357 -1.5072 -0.0806  1.0752
18256TIP3    H276184   5.839   3.774   2.249 -0.8070  0.1155  0.4549
18257TIP3   OH276185   1.488   0.532  12.507 -0.2228  0.0645  0.1821
18257TIP3    H176186   1.456   0.622  12.515  0.8631  0.4972 -0.2374
18257TIP3    H276187   1.448   0.500  12.426 -0.1636  0.3485  0.0405
18258TIP3   OH276188   5.652   0.450   3.251 -0.7993  0.4480 -0.4740
18258TIP3    H176189   5.717   0.438   3.182 -2.3182  0.4119 -1.9635
18258TIP3    H276190   5.702   0.446   3.333  0.8360 -1.0583 -1.4899
18259TIP3   OH276191   6.238   5.405   4.880  0.2727 -0.7070  0.1629
18259TIP3    H176192   6.188   5.325   4.861  0.1151 -0.2352 -1.6372
18259TIP3    H276193   6.215   5.465   4.809 -0.4965  1.3894  2.0750
18260TIP3   OH276194   0.155   6.331   5.665  0.4715 -0.0271 -0.6787
18260TIP3    H176195   0.230   6.329   5.725  1.0282  2.1080 -1.2364
18260TIP3    H276196   0.193   6.310   5.580  0.1678 -0.3066 -0.7470
18261TIP3   OH276197   3.582   4.197   5.292 -0.5108 -0.1108  0.0536
18261TIP3    H176198   3.600   4.221   5.383 -2.0749 -0.3144  0.4364
18261TIP3    H276199   3.499   4.240   5.272 -0.8090 -1.0755 -0.8664
18262TIP3   OH276200   0.530   4.722   5.166 -0.0813  0.2515 -0.4803
18262TIP3    H176201   0.454   4.700   5.220  0.7553 -0.8014  0.3215
18262TIP3    H276202   0.571   4.796   5.210 -0.9887  1.2741 -1.2906
18263TIP3   OH276203   1.595   1.679  13.179  0.2034  0.4904  0.0918
18263TIP3    H176204   1.529   1.711  13.117 -1.0118 -2.4924 -0.3690
18263TIP3    H276205   1.669   1.653  13.124 -0.9828 -2.4204 -0.3518
18264TIP3   OH276206   6.572   4.634  16.591 -0.2325  0.4670 -0.2168
18264TIP3    H176207   6.512   4.576  16.544  1.7473 -1.8967 -0.0528
18264TIP3    H276208   6.598   4.699  16.525  0.0606 -0.8932 -1.5202
18265TIP3   OH276209   3.689   4.493  11.387  0.1778  0.3914 -0.3347
18265TIP3    H176210   3.608   4.525  11.426 -0.3240  0.2314 -1.1951
18265TIP3    H276211   3.746   4.570  11.381  0.6836  0.2138  1.6392
18266TIP3   OH276212   4.773   0.707  13.353 -0.2362 -0.7513  0.2561
18266TIP3    H176213   4.736   0.780  13.403  2.1016  0.9589 -0.2945
18266TIP3    H276214   4.790   0.639  13.418  0.8515  0.6390  1.5079
18267TIP3   OH276215   3.829   0.582  14.825 -0.0807  0.2680 -0.0106
18267TIP3    H176216   3.905   0.638  14.844  0.1496  0.0641 -0.3157
18267TIP3    H276217   3.797   0.614  14.741 -2.3053  2.4943  1.5243
18268TIP3   OH276218   2.318   4.123  14.285  0.7726  0.7678 -0.3738
18268TIP3    H176219   2.247   4.093  14.228  1.2721  0.6561 -0.9366
18268TIP3    H276220   2.395   4.124  14.229  1.4155 -0.0126  0.4714
18269TIP3   OH276221   4.055   3.498  10.460 -0.2432 -0.2213  0.0880
18269TIP3    H176222   3.962   3.520  10.464  0.1590  1.5576  1.1570
18269TIP3    H276223   4.088   3.545  10.383  0.0849  0.6625  0.7482
18270TIP3   OH276224   1.185   6.687  14.219  0.1996 -0.4116 -0.7644
18270TIP3    H176225   1.102   6.649  14.249 -0.2048  1.3407  0.4798
18270TIP3    H276226   1.252   6.630  14.257 -0.4085 -0.3625  0.4536
18271TIP3   OH276227   6.741   1.695  14.626  0.2870  0.0319  0.0397
18271TIP3    H176228   6.749   1.781  14.670  1.2656  0.7122 -1.3927
18271TIP3    H276229   6.704   1.638  14.693 -3.7809  2.3396  0.0681
18272TIP3   OH276230   1.971   3.414   3.881 -0.4821 -0.6285 -0.1536
18272TIP3    H176231   2.063   3.390   3.879 -0.3022  0.0072  0.2630
18272TIP3    H276232   1.930   3.358   3.814  0.2319 -0.7756 -0.4769
18273TIP3   OH276233   5.037   0.951  15.916  0.1717 -0.0845 -0.1570
18273TIP3    H176234   4.963   0.895  15.940  1.0126 -1.8035 -1.3962
18273TIP3    H276235   5.007   1.000  15.839  0.9087 -2.2965 -1.9626
18274TIP3   OH276236   3.042   4.264   4.840  0.5469  0.3921 -0.6249
18274TIP3    H176237   2.963   4.251   4.893 -0.4165  0.2744 -2.0346
18274TIP3    H276238   3.086   4.338   4.881 -1.5343  2.0188 -1.1744
18275TIP3   OH276239   5.692   6.343  11.790  0.0025  0.0611  0.3157
18275TIP3    H176240   5.726   6.344  11.701  1.3275 -0.1683  0.8005
18275TIP3    H276241   5.687   6.435  11.815  2.1355  0.0666  0.8970
18276TIP3   OH276242   0.383   1.358   1.383 -0.1232  0.2502 -0.3883
18276TIP3    H176243   0.337   1.411   1.318 -1.1523  0.4075  0.4441
18276TIP3    H276244   0.371   1.268   1.352 -2.6104  0.1248  0.7540
18277TIP3   OH276245   0.093   4.237  15.617 -0.2189 -0.1067  0.0824
18277TIP3    H176246   0.080   4.331  15.603  0.0604 -0.0835 -0.0400
18277TIP3    H276247   0.140   4.208  15.538 -1.3656 -0.5890 -0.4574
18278TIP3   OH276248   6.334   1.845  16.612  0.0683 -0.0364  0.0771
18278TIP3    H176249   6.309   1.832  16.521 -2.4612 -3.5609  1.0434
18278TIP3    H276250   6.426   1.819  16.616  0.5799  1.3860 -1.6156
18279TIP3   OH276251   0.866   2.317  16.104 -0.0165 -0.7234 -0.3898
18279TIP3    H176252   0.925   2.243  16.093 -1.0675 -1.5863 -0.3612
18279TIP3    H276253   0.863   2.332  16.199 -2.0080 -2.5283 -0.1053
18280TIP3   OH276254   5.107   0.256  16.826  0.8624  0.5184 -0.4362
18280TIP3    H176255   5.058   0.286  16.748  0.1846  2.3137  0.6067
18280TIP3    H276256   5.039   0.227  16.887  1.2857  0.5747  0.0628
18281TIP3   OH276257   2.215   1.098   4.134 -0.0717  0.6763 -0.3169
18281TIP3    H176258   2.229   1.166   4.199  0.4386 -0.4145  0.7529
18281TIP3    H276259   2.293   1.042   4.141 -0.8303 -0.4426 -0.6278
18282TIP3   OH276260   1.728   0.063   5.463 -0.1013  0.8472 -0.4746
18282TIP3    H176261   1.764   0.060   5.552  0.9020 -0.1898 -0.8938
18282TIP3    H276262   1.670  -0.013   5.458  1.4216 -0.3209 -1.3185
18283TIP3   OH276263   2.201   5.426   2.434  0.4023 -0.2049  0.1814
18283TIP3    H176264   2.142   5.458   2.502 -1.3798  1.6842 -2.0918
18283TIP3    H276265   2.284   5.470   2.452 -0.5688  1.7645  0.1094
18284TIP3   OH276266   1.898   2.580   0.615 -0.0594 -0.4145  0.0163
18284TIP3    H176267   1.952   2.501   0.619  1.8188  0.8712  1.6915
18284TIP3    H276268   1.953   2.644   0.570 -0.3459  0.7883  1.3205
18285TIP3   OH276269   2.153   6.062   4.418 -0.1580 -0.3260 -0.8219
18285TIP3    H176270   2.162   5.974   4.455  2.0910  0.3785  0.5261
18285TIP3    H276271   2.093   6.107   4.478  0.5296 -0.2948 -0.1332
18286TIP3   OH276272   2.985   2.740  10.393  0.0125  0.2014  0.7849
18286TIP3    H176273   2.925   2.798  10.439 -0.7195 -0.5332  0.7866
18286TIP3    H276274   3.055   2.797  10.362 -1.2437  1.2802 -0.1923
18287TIP3   OH276275   4.048   2.915  14.147 -0.1465 -0.1730 -0.4285
18287TIP3    H176276   4.087   2.984  14.200  3.1312 -1.9752 -0.1991
18287TIP3    H276277   4.047   2.951  14.058 -0.0062  0.7220 -0.0807
18288TIP3   OH276278   2.651   6.325   0.374 -0.4232 -0.5079 -0.0702
18288TIP3    H176279   2.689   6.245   0.337 -0.2396 -1.1169  1.3596
18288TIP3    H276280   2.592   6.357   0.306  0.8404 -0.8600 -1.3921
18289TIP3   OH276281   6.663   6.221  16.925  0.4043 -0.0152 -0.1504
18289TIP3    H176282   6.574   6.189  16.905  0.6355 -1.4640  0.9667
18289TIP3    H276283   6.650   6.313  16.948 -0.9919 -0.4320  0.9382
18290TIP3   OH276284   5.428   6.312  16.486  0.0111 -0.4258 -0.7404
18290TIP3    H176285   5.398   6.273  16.404 -2.1037 -2.8981  1.0468
18290TIP3    H276286   5.493   6.376  16.459 -2.7836  1.2059 -4.5939
18291TIP3   OH276287   5.887   6.065  14.273  0.1470 -0.6594  0.0486
18291TIP3    H176288   5.801   6.054  14.314  0.0262  0.3460  0.0991
18291TIP3    H276289   5.949   6.031  14.338 -0.1083  0.1472  0.7384
18292TIP3   OH276290   2.767   3.689   5.619 -0.1526 -0.2360 -0.0763
18292TIP3    H176291   2.776   3.632   5.542 -1.9399  1.3180 -1.5109
18292TIP3    H276292   2.858   3.709   5.644  0.5047 -2.5145 -0.3853
18293TIP3   OH276293   0.936   0.702   2.967  0.0818  0.6030 -0.7353
18293TIP3    H176294   0.940   0.736   2.878  0.0061 -0.7844 -1.2963
18293TIP3    H276295   1.028   0.684   2.990  0.1243  1.1758 -0.4327
18294TIP3   OH276296   4.294   1.847   2.685  0.5851 -0.4036 -0.1002
18294TIP3    H176297   4.280   1.907   2.612 -1.7202 -1.1666 -0.3929
18294TIP3    H276298   4.379   1.807   2.668  1.8997  2.2309 -0.2359
18295TIP3   OH276299   1.103   0.290  13.184 -0.0586  0.0727  0.1665
18295TIP3    H176300   1.184   0.243  13.162  0.4660 -0.1221  2.2898
18295TIP3    H276301   1.128   0.348  13.255 -1.9055 -0.3985  1.2498
18296TIP3   OH276302   4.311   6.375   3.025 -0.4762 -0.0525  0.2014
18296TIP3    H176303   4.254   6.348   2.952 -1.0030 -0.3435  0.7124
18296TIP3    H276304   4.255   6.430   3.080 -0.0911  0.1318  0.4096
18297TIP3   OH276305   2.699   1.534  16.574  0.7039  0.8863 -0.1392
18297TIP3    H176306   2.658   1.614  16.542  0.9346  0.9379 -0.3126
18297TIP3    H276307   2.652   1.512  16.655 -0.7111  0.0766 -1.1357
18298TIP3   OH276308   2.936   2.889  16.366  0.6283  0.5716 -0.2672
18298TIP3    H176309   3.025   2.876  16.401 -0.0578  0.9587  1.8027
18298TIP3    H276310   2.883   2.910  16.444 -1.4393 -0.4049 -1.3361
18299TIP3   OH276311   0.854   1.195  16.224  0.0458  0.2821  0.1846
18299TIP3    H176312   0.824   1.144  16.149 -2.1847 -0.5806  1.5421
18299TIP3    H276313   0.842   1.286  16.198 -2.2109 -0.0148 -0.0454
18300TIP3   OH276314   3.140   0.269  15.663 -0.6676 -0.3603 -0.3767
18300TIP3    H176315   3.131   0.355  15.622  0.6897 -0.5402 -1.1191
18300TIP3    H276316   3.150   0.208  15.589  2.4295 -0.6184  0.1144
18301TIP3   OH276317   0.328   5.901   0.476 -0.2594  0.1239  1.0083
18301TIP3    H176318   0.401   5.895   0.537  0.3218  0.0756  0.3282
18301TIP3    H276319   0.369   5.893   0.390 -0.7574  2.6323  0.4824
18302TIP3   OH276320   3.816   4.594  15.637  0.1080 -0.0502 -0.2449
18302TIP3    H176321   3.779   4.513  15.603  1.8137 -0.3288 -1.5672
18302TIP3    H276322   3.781   4.601  15.726 -1.9208 -0.9873 -0.9184
18303TIP3   OH276323   1.955   6.144  14.981  0.1014 -0.1102 -0.2057
18303TIP3    H176324   1.907   6.145  14.899 -0.0833 -1.2967 -0.1284
18303TIP3    H276325   2.012   6.221  14.977  0.1343 -0.1897 -1.4672
18304TIP3   OH276326   4.582   3.709   4.037  0.3069 -0.4981 -0.0799
18304TIP3    H176327   4.606   3.743   3.951 -0.5964 -0.9820 -0.5350
18304TIP3    H276328   4.666   3.684   4.078  0.6638 -1.3262 -1.2649
18305TIP3   OH276329   2.372   0.122  13.327  0.9016  0.3889  0.2817
18305TIP3    H176330   2.448   0.065  13.336 -0.1797 -1.3759 -1.1048
18305TIP3    H276331   2.302   0.076  13.374  0.1542  0.8498 -0.3540
18306TIP3   OH276332   0.044   1.169  11.560  0.0613  0.4083  0.3523
18306TIP3    H176333   0.123   1.117  11.575  0.2955  0.0479 -1.8092
18306TIP3    H276334   0.066   1.224  11.485 -1.5844  0.6457  0.0167
18307TIP3   OH276335   1.159   6.066  12.111  0.1206 -0.4116 -0.4896
18307TIP3    H176336   1.139   6.031  12.024 -1.8195  0.8062 -0.6040
18307TIP3    H276337   1.172   5.989  12.166  0.0283 -1.2200 -1.5622
18308TIP3   OH276338   5.111   4.913   3.639 -0.0011 -0.3312 -0.6711
18308TIP3    H176339   5.073   4.938   3.723  1.3677 -1.7183  0.4234
18308TIP3    H276340   5.084   4.982   3.579  1.0304  2.0814  1.4420
18309TIP3   OH276341   2.477   6.828  16.173  0.3768 -0.1200 -0.4657
18309TIP3    H176342   2.441   6.916  16.169  0.2643 -0.1351  0.1002
18309TIP3    H276343   2.527   6.826  16.255  1.2678 -0.2479 -0.9974
18310TIP3   OH276344   2.221   5.139  13.719  0.4827  0.4661 -0.2377
18310TIP3    H176345   2.221   5.106  13.629 -0.6778  0.8267 -0.3971
18310TIP3    H276346   2.210   5.060  13.773 -0.3173  0.3749 -0.5093
18311TIP3   OH276347   0.498   4.259  11.124 -0.2358 -0.5462 -0.5356
18311TIP3    H176348   0.441   4.299  11.190  0.9486 -1.4890  1.1664
18311TIP3    H276349   0.454   4.177  11.101 -1.2890  0.3781 -1.9341
18312TIP3   OH276350   1.953   2.350  13.919  0.5035 -0.0307 -0.0485
18312TIP3    H176351   1.946   2.255  13.914  0.3805 -0.0679  0.6529
18312TIP3    H276352   1.993   2.367  14.005 -1.1040  0.5902  0.6259
18313TIP3   OH276353   6.544   5.423  13.204 -0.2416  0.5638 -0.1610
18313TIP3    H176354   6.540   5.499  13.146  2.2839  1.0288  0.1484
18313TIP3    H276355   6.565   5.459  13.290 -2.2615 -0.2664  0.7609
18314TIP3   OH276356   6.109   5.909   1.393 -1.0886  0.6139 -0.0235
18314TIP3    H176357   6.132   5.871   1.478 -0.5165  0.1463 -0.3758
18314TIP3    H276358   6.104   6.003   1.410  1.7145  0.8624  0.0159
18315TIP3   OH276359   0.362   6.553   2.809 -0.7207  0.0773  0.4815
18315TIP3    H176360   0.386   6.528   2.898  0.6579 -1.8917 -0.3649
18315TIP3    H276361   0.341   6.470   2.766  1.0820  0.6546 -1.6842
18316TIP3   OH276362   4.023   1.648   0.344 -0.5663  0.6678  1.0405
18316TIP3    H176363   3.959   1.706   0.385  1.3826  1.2471  3.5370
18316TIP3    H276364   4.107   1.672   0.384  1.2197 -0.2741 -1.8058
18317TIP3   OH276365   4.699   6.014  13.822  0.0422  0.2176  0.1480
18317TIP3    H176366   4.762   6.031  13.892 -0.6941 -1.4279  1.2676
18317TIP3    H276367   4.657   5.932  13.847 -2.0628  0.9102 -0.9215
18318TIP3   OH276368   5.378   2.741  14.008  0.1254 -0.0769  0.2233
18318TIP3    H176369   5.353   2.748  13.915 -1.9182  0.3465  0.7639
18318TIP3    H276370   5.473   2.728  14.006 -0.0504 -1.4571 -1.9806
18319TIP3   OH276371   3.606   2.380  14.096  0.5560  0.1522  0.2084
18319TIP3    H176372   3.607   2.387  14.192  0.7543 -0.7659  0.2847
18319TIP3    H276373   3.690   2.340  14.074 -0.4357 -1.9110 -0.1354
18320TIP3   OH276374   2.682   1.297   0.286  0.4584  0.2152 -0.1859
18320TIP3    H176375   2.762   1.245   0.283  0.8861  0.8098  0.8609
18320TIP3    H276376   2.654   1.302   0.194  1.4872 -0.1800 -0.5315
18321TIP3   OH276377   6.836   0.016  15.289  0.2806 -0.1212 -0.9028
18321TIP3    H176378   6.873   0.095  15.329 -1.9767 -0.2333  1.6682
18321TIP3    H276379   6.877  -0.056  15.336 -1.4253 -0.2896  0.4144
18322TIP3   OH276380   4.300   3.841  11.273 -0.3840 -0.7957  0.4411
18322TIP3    H176381   4.302   3.760  11.221  0.8052 -1.2928  1.2194
18322TIP3    H276382   4.366   3.897  11.232  1.7860 -1.8192  2.3129
18323TIP3   OH276383   6.566   0.479   5.317  0.1584  0.6312  0.0014
18323TIP3    H176384   6.575   0.439   5.231  1.1513 -0.2272  0.4841
18323TIP3    H276385   6.610   0.563   5.310  0.6539  0.3571 -0.2044
18324TIP3   OH276386   6.552   6.706   2.557 -0.1437 -0.1547 -0.0450
18324TIP3    H176387   6.505   6.661   2.486  0.8347 -1.4820  0.1164
18324TIP3    H276388   6.487   6.713   2.627 -0.8441  0.3339 -0.7153
18325TIP3   OH276389   0.078   5.873   3.058 -0.0540 -0.0811 -0.2403
18325TIP3    H176390   0.050   5.917   3.139 -0.0835 -1.3906  0.4990
18325TIP3    H276391   0.115   5.942   3.004  0.4427  0.7548  1.1228
18326TIP3   OH276392   5.183   4.274  10.983 -0.1690  0.2895 -0.0420
18326TIP3    H176393   5.186   4.369  10.979 -1.2268  0.3316 -0.1408
18326TIP3    H276394   5.098   4.251  10.947  0.2760 -0.7283 -0.4908
18327TIP3   OH276395   2.585   3.716  13.609 -0.1162  0.4834  0.2384
18327TIP3    H176396   2.581   3.790  13.670 -0.3962  0.7349 -0.0840
18327TIP3    H276397   2.529   3.649  13.649 -1.7599  1.2936 -0.6011
18328TIP3   OH276398   1.888   1.094  13.182 -0.7870 -0.2244  0.4882
18328TIP3    H176399   1.813   1.147  13.155 -1.5001 -1.8735 -0.9386
18328TIP3    H276400   1.849   1.016  13.221  0.0842 -1.8378 -1.6632
18329TIP3   OH276401   4.174   0.579   4.585 -0.2967  0.4826  0.6307
18329TIP3    H176402   4.225   0.609   4.510 -0.7065 -1.0809 -0.3244
18329TIP3    H276403   4.084   0.581   4.555 -0.3430 -1.8340  0.3914
18330TIP3   OH276404   5.915   1.421  10.562  0.2642  0.0069 -0.2416
18330TIP3    H176405   5.877   1.337  10.536 -1.9174  0.0972  2.2353
18330TIP3    H276406   5.959   1.453  10.483  1.8779 -3.7420 -1.0769
18331TIP3   OH276407   3.694   4.209  11.442 -0.1638  0.0337  0.1969
18331TIP3    H176408   3.651   4.207  11.528  0.3857  0.1400  0.4808
18331TIP3    H276409   3.722   4.300  11.432  3.1490 -0.6610  1.6444
18332TIP3   OH276410   1.597   2.977   2.983 -0.3047 -0.0213  0.4369
18332TIP3    H176411   1.672   3.007   2.931 -0.9877  2.6973  0.8440
18332TIP3    H276412   1.590   3.042   3.053 -1.6579 -1.5316  1.7707
18333TIP3   OH276413   2.942   4.129   5.812 -0.1500  0.4007  0.2120
18333TIP3    H176414   2.862   4.076   5.804 -0.4360  1.1001 -2.7021
18333TIP3    H276415   2.919   4.197   5.875 -1.7359  0.2949 -0.1985
18334TIP3   OH276416   3.921   0.029  10.885 -0.2982  0.2569  0.3441
18334TIP3    H176417   3.988   0.094  10.906 -0.5853  1.9731 -3.3251
18334TIP3    H276418   3.964  -0.030  10.823 -1.1193 -0.8971  0.8580
18335TIP3   OH276419   3.608   2.558  12.421 -0.3006  0.3451  0.1361
18335TIP3    H176420   3.700   2.580  12.436 -0.3893  0.4845  0.4830
18335TIP3    H276421   3.569   2.640  12.390 -0.4295  0.4343  0.5325
18336TIP3   OH276422   5.161   3.273  12.298 -0.1049 -0.1754 -0.0872
18336TIP3    H176423   5.234   3.324  12.262 -1.2840  2.2692  0.7434
18336TIP3    H276424   5.083   3.317  12.264 -1.2383  0.7681  3.3252
18337TIP3   OH276425   5.341   5.008   2.598  0.2701 -0.2220  0.7890
18337TIP3    H176426   5.349   4.937   2.534  3.7118  1.3455 -0.8231
18337TIP3    H276427   5.409   4.990   2.663  0.7146  1.1533  0.7457
18338TIP3   OH276428   0.510   3.752  10.242 -0.2744 -0.0576  0.2235
18338TIP3    H176429   0.525   3.832  10.190  0.8254  0.3972  1.1787
18338TIP3    H276430   0.451   3.700  10.189 -0.1074  0.8968 -0.9617
18339TIP3   OH276431   1.833   1.761   0.780 -0.2402 -0.3325  0.4161
18339TIP3    H176432   1.869   1.687   0.731  1.0460  1.1948 -1.0420
18339TIP3    H276433   1.806   1.723   0.864 -1.8551 -2.9194 -1.1180
18340TIP3   OH276434   0.997   5.256  13.734  0.7310 -0.0012  0.3455
18340TIP3    H176435   0.958   5.306  13.662 -2.3719 -2.3077  0.2135
18340TIP3    H276436   1.057   5.196  13.691  0.0183 -0.3499 -0.1796
18341TIP3   OH276437   5.242   1.019   2.306  0.5269 -0.5887 -0.8158
18341TIP3    H176438   5.331   1.042   2.281 -0.0726  4.2598  0.4812
18341TIP3    H276439   5.248   0.997   2.399  0.2520  1.9998 -0.1058
18342TIP3   OH276440   3.864   1.386  14.194 -0.3515  0.0997  0.3497
18342TIP3    H176441   3.916   1.375  14.114 -2.1739 -1.5442 -0.6902
18342TIP3    H276442   3.810   1.462  14.177 -1.3477 -0.7432 -0.3903
18343TIP3   OH276443   6.072   2.734   1.172  0.4304 -0.0829  0.4668
18343TIP3    H176444   6.102   2.780   1.094  1.2682  2.0847  1.9639
18343TIP3    H276445   6.044   2.804   1.232 -1.6141 -1.7302  1.5802
18344TIP3   OH276446   3.299   5.129   1.784  0.2351  0.0723  0.7612
18344TIP3    H176447   3.363   5.133   1.855  2.7388 -0.6884 -1.2841
18344TIP3    H276448   3.300   5.038   1.756 -0.5541  0.3901 -0.3594
18345TIP3   OH276449   1.366   5.399   3.111 -0.0640 -0.0760 -0.3526
18345TIP3    H176450   1.427   5.407   3.185  1.0036  1.5921 -1.3256
18345TIP3    H276451   1.421   5.376   3.037 -0.9033 -0.3667 -0.9003
18346TIP3   OH276452   0.902   1.585   9.737  0.2210 -0.4823 -0.2721
18346TIP3    H176453   0.970   1.518   9.730  0.9545  0.3289 -1.2338
18346TIP3    H276454   0.932   1.642   9.807  0.7364  0.0778 -0.9338
18347TIP3   OH276455   4.247   2.019   1.961  0.0108  0.0591  0.1241
18347TIP3    H176456   4.254   1.926   1.940 -0.5293  0.0324  0.0251
18347TIP3    H276457   4.155   2.031   1.985  0.1494  0.5047  0.4533
18348TIP3   OH276458   2.924   1.961  12.525  0.0709  0.4205 -0.0556
18348TIP3    H176459   2.986   1.920  12.465 -0.0839  1.0640 -0.6625
18348TIP3    H276460   2.930   2.054  12.505 -0.0324  0.6370  0.8848
18349TIP3   OH276461   3.590   0.919  16.265  0.0500 -0.1466 -0.7648
18349TIP3    H176462   3.572   1.012  16.278  2.3019  0.1557  0.6488
18349TIP3    H276463   3.506   0.883  16.234 -2.2225  1.5265  2.7141
18350TIP3   OH276464   3.471   6.229   2.625  0.1561 -0.4141 -0.0440
18350TIP3    H176465   3.380   6.200   2.634 -0.0190  0.3645  0.8773
18350TIP3    H276466   3.483   6.293   2.695  0.9340  0.7131 -1.1618
18351TIP3   OH276467   0.406   3.480   2.262  0.1382 -0.3066  0.0857
18351TIP3    H176468   0.404   3.421   2.187  0.2862 -0.9770  0.6035
18351TIP3    H276469   0.489   3.527   2.253 -0.0865 -0.0066 -0.4520
18352TIP3   OH276470   2.816   0.830   5.067 -0.2913  0.4604  0.3094
18352TIP3    H176471   2.723   0.830   5.048 -0.7028  1.5260  2.1066
18352TIP3    H276472   2.824   0.782   5.149  1.0728 -1.7176 -1.0003
18353TIP3   OH276473   1.888   1.737  16.176  0.7336  0.9044 -0.1248
18353TIP3    H176474   1.911   1.670  16.241  0.8321  2.1588  1.1868
18353TIP3    H276475   1.965   1.794  16.172  0.6798  0.9074 -1.2756
18354TIP3   OH276476   1.923   6.619  10.813  0.0730  0.5801 -0.2519
18354TIP3    H176477   1.893   6.551  10.872  1.6235  2.2557  2.7215
18354TIP3    H276478   2.003   6.584  10.774  1.3396  0.9099  1.9182
18355TIP3   OH276479   3.106   5.307   0.640 -0.2931  0.0410 -0.1726
18355TIP3    H176480   3.086   5.341   0.552  0.4258  0.4196 -0.1944
18355TIP3    H276481   3.195   5.273   0.633  0.0411  0.7332  0.5982
18356TIP3   OH276482   1.314   5.280   2.698  0.3898 -0.3169  0.2430
18356TIP3    H176483   1.339   5.197   2.739  0.6143  0.7303  2.4013
18356TIP3    H276484   1.219   5.277   2.693  0.3416 -0.4128  1.0556
18357TIP3   OH276485   6.805   4.915  16.944  0.1088  0.5099  0.6642
18357TIP3    H176486   6.853   4.925  16.861 -0.7607  1.5959  0.2710
18357TIP3    H276487   6.832   4.990  16.996  2.5136 -1.3920  2.3953
18358TIP3   OH276488   1.816   1.239   0.022 -0.4993 -0.1345 -0.2868
18358TIP3    H176489   1.822   1.194   0.106  0.5692  1.2526  0.4136
18358TIP3    H276490   1.740   1.296   0.030  1.4232  2.4115  1.0208
18359TIP3   OH276491   1.839   4.854   0.577 -0.7835  0.4563  0.2266
18359TIP3    H176492   1.791   4.775   0.602 -0.9381  1.1748  2.3740
18359TIP3    H276493   1.921   4.848   0.627  0.5694  0.2237 -1.8786
18360TIP3   OH276494   6.452   6.210  14.129 -0.1986  0.1084 -0.1777
18360TIP3    H176495   6.483   6.197  14.219 -1.1568  4.0868  0.9113
18360TIP3    H276496   6.525   6.254  14.085 -0.8524  1.0567 -0.3476
18361TIP3   OH276497   5.342   5.310   3.592  0.3105  0.2636 -0.0336
18361TIP3    H176498   5.319   5.400   3.615 -1.9504 -0.1324 -0.4760
18361TIP3    H276499   5.325   5.303   3.498  3.0666  0.0529 -0.5901
18362TIP3   OH276500   3.049   3.538   0.474 -0.1681 -0.2072  0.3099
18362TIP3    H176501   3.054   3.518   0.381 -0.5544 -2.2945  0.6909
18362TIP3    H276502   3.005   3.623   0.478 -1.5695 -0.7835 -1.3753
18363TIP3   OH276503   6.229   4.175  11.018 -0.6536 -0.1930 -1.0394
18363TIP3    H176504   6.321   4.165  10.992  0.4753  1.3751  1.8592
18363TIP3    H276505   6.215   4.270  11.015 -1.4926 -0.2480  0.5686
18364TIP3   OH276506   5.566   6.416   0.534 -0.3059  0.0630  0.4717
18364TIP3    H176507   5.532   6.332   0.502 -1.9528  0.6180  0.6546
18364TIP3    H276508   5.546   6.416   0.627  1.9855 -0.3796  1.0147
18365TIP3   OH276509   2.549   2.548  10.704 -0.5374  0.5788 -0.1426
18365TIP3    H176510   2.465   2.568  10.663  0.5585 -0.5659 -3.2228
18365TIP3    H276511   2.609   2.535  10.631  1.8455 -0.7328  1.8825
18366TIP3   OH276512   1.784   3.789  12.140  0.1848 -0.0329  0.7012
18366TIP3    H176513   1.713   3.733  12.108  0.7867  0.1494 -1.0748
18366TIP3    H276514   1.776   3.787  12.235 -2.9464  0.9670  0.5487
18367TIP3   OH276515   4.695   3.106  11.757  0.6238 -0.1835 -0.2663
18367TIP3    H176516   4.741   3.022  11.760  0.1103 -0.4666 -0.2445
18367TIP3    H276517   4.765   3.172  11.751  1.1694 -0.4580  1.9970
18368TIP3   OH276518   0.433   5.822   5.207 -0.1952  0.3278 -0.0682
18368TIP3    H176519   0.529   5.814   5.212 -0.1707 -1.3322 -1.7358
18368TIP3    H276520   0.418   5.905   5.162  0.4986  0.2696 -0.4206
18369TIP3   OH276521   1.019   6.560   5.015 -0.5042  0.4505 -0.1579
18369TIP3    H176522   1.063   6.476   5.006 -1.4317 -0.1179  0.4354
18369TIP3    H276523   1.084   6.624   4.985  0.8072 -0.3211  0.9316
18370TIP3   OH276524   4.447   6.570  17.002  0.5422 -0.0012 -0.2887
18370TIP3    H176525   4.439   6.625  17.080  2.0954  0.2474 -0.2725
18370TIP3    H276526   4.399   6.491  17.024  1.8362 -0.3894  1.3779
18371TIP3   OH276527   3.741   5.581  15.290  0.3913 -0.1692 -0.2725
18371TIP3    H176528   3.739   5.636  15.369 -0.1039 -0.2085 -0.2508
18371TIP3    H276529   3.702   5.636  15.222  0.8267 -0.1323 -0.4935
18372TIP3   OH276530   1.655   3.057  14.440  0.6820  1.2784  0.1094
18372TIP3    H176531   1.738   3.032  14.480 -0.5733 -0.8766  1.5598
18372TIP3    H276532   1.628   3.135  14.488  1.1193  1.0543  0.7339
18373TIP3   OH276533   3.778   3.069   2.257 -0.1614  0.1804 -0.6419
18373TIP3    H176534   3.856   3.036   2.302  0.0400  1.2826 -0.1344
18373TIP3    H276535   3.707   3.058   2.319  0.0268  1.2507 -0.2076
18374TIP3   OH276536   0.035   5.485  11.645 -0.2589  0.7338  0.3042
18374TIP3    H176537   0.044   5.417  11.712 -0.1816  1.2726  0.8503
18374TIP3    H276538  -0.010   5.442  11.573  1.8654 -0.5729 -0.3406
18375TIP3   OH276539   2.234   6.138  11.834 -0.4210 -1.1537 -0.0044
18375TIP3    H176540   2.218   6.200  11.906  0.7773 -0.8967  0.0585
18375TIP3    H276541   2.329   6.128  11.832 -0.4481 -1.3326 -1.4195
18376TIP3   OH276542   2.376   3.285  13.867 -0.0167  0.1722  0.1488
18376TIP3    H176543   2.464   3.261  13.837  0.6594  1.6548  0.8106
18376TIP3    H276544   2.321   3.210  13.844  1.1517 -0.2333 -1.5125
18377TIP3   OH276545   6.266   2.647   6.508 -0.5214 -0.6149  0.7506
18377TIP3    H176546   6.351   2.605   6.513 -0.2512  0.0239  1.8085
18377TIP3    H276547   6.204   2.575   6.496  0.1061 -1.1254  0.5302
18378TIP3   OH276548   2.420   5.312   3.094 -0.8634  0.6597  0.0961
18378TIP3    H176549   2.455   5.283   3.178 -1.0843 -0.2911 -0.1202
18378TIP3    H276550   2.479   5.381   3.066 -0.3402  0.4609  0.6749
18379TIP3   OH276551   3.098   2.936   3.846  0.0076  0.1479  0.2435
18379TIP3    H176552   3.031   2.878   3.809 -0.6426  1.4125 -0.6199
18379TIP3    H276553   3.052   3.018   3.862  1.6587  1.5847 -1.8662
18380TIP3   OH276554   5.259   3.851   1.158  0.3895  0.1273  0.1374
18380TIP3    H176555   5.191   3.881   1.218  1.5515  0.9643  1.0708
18380TIP3    H276556   5.215   3.786   1.103 -1.5801  1.8008 -0.3697
18381TIP3   OH276557   0.835   5.966  16.132 -0.1579  0.2668  0.1762
18381TIP3    H176558   0.902   6.034  16.132  0.5584 -0.4041  1.2192
18381TIP3    H276559   0.772   5.994  16.066  0.8227  1.2324 -0.3771
18382TIP3   OH276560   3.278   3.941   4.237 -0.1437  0.0646 -0.2031
18382TIP3    H176561   3.198   3.888   4.243 -0.7414  0.5402 -2.8691
18382TIP3    H276562   3.247   4.028   4.211  1.1599  0.6158  0.0037
18383TIP3   OH276563   5.531   0.560  15.245 -0.4393  0.3720  0.4610
18383TIP3    H176564   5.546   0.503  15.169  0.2026  1.3070 -0.1306
18383TIP3    H276565   5.443   0.537  15.274 -0.4295 -0.4868 -0.1441
18384TIP3   OH276566   3.421   4.242   4.215  0.1507  0.2869  0.3820
18384TIP3    H176567   3.332   4.222   4.244 -0.2032  0.2253 -0.7130
18384TIP3    H276568   3.476   4.220   4.290 -0.6379 -0.7946  0.6657
18385TIP3   OH276569   6.557   6.450  14.497 -0.2138 -0.7834  0.0927
18385TIP3    H176570   6.528   6.374  14.547 -2.3229  1.0416  1.8604
18385TIP3    H276571   6.500   6.452  14.420  1.4009 -2.2016 -1.2303
18386TIP3   OH276572   5.002   5.195  14.348  0.3869 -0.1871 -0.3380
18386TIP3    H176573   5.076   5.206  14.289 -0.5632 -0.8972 -1.7178
18386TIP3    H276574   5.042   5.173  14.432  1.9234  3.5816  0.1418
18387TIP3   OH276575   0.567   4.625  14.305 -0.4452 -0.5817 -0.2254
18387TIP3    H176576   0.545   4.561  14.373  0.3901 -0.9829 -0.3150
18387TIP3    H276577   0.633   4.581  14.251 -0.1706  0.1976 -0.5453
18388TIP3   OH276578   1.008   5.474   0.428  0.0912  0.1391  0.2905
18388TIP3    H176579   1.003   5.478   0.524 -0.5038 -0.3103  0.2815
18388TIP3    H276580   0.917   5.478   0.399  0.3137  1.3888 -0.3117
18389TIP3   OH276581   4.980   2.865   3.169 -0.3871  0.3799 -0.0234
18389TIP3    H176582   5.012   2.789   3.121 -0.4241  0.3560 -0.0104
18389TIP3    H276583   5.042   2.934   3.149 -1.6870  1.0475 -2.0290
18390TIP3   OH276584   3.767   4.388  13.512  0.2419  0.1125  0.1653
18390TIP3    H176585   3.833   4.349  13.454 -0.3645 -0.1614 -0.3484
18390TIP3    H276586   3.782   4.347  13.597  0.3075 -0.4370 -0.1098
18391TIP3   OH276587   2.391   3.361  14.872 -0.4503 -0.4901  0.5018
18391TIP3    H176588   2.466   3.302  14.859  0.5700  1.1763 -1.9065
18391TIP3    H276589   2.412   3.409  14.952  1.4027  0.3246 -0.3990
18392TIP3   OH276590   2.072   1.842   6.028 -0.2511  0.3874  0.7066
18392TIP3    H176591   2.073   1.937   6.037 -0.4456  0.3448  1.2305
18392TIP3    H276592   2.165   1.817   6.027 -0.1896  0.6235  0.0228
18393TIP3   OH276593   4.386   0.106   0.428  0.2959  0.3217  0.2024
18393TIP3    H176594   4.292   0.089   0.421  0.2088  0.7079  0.3950
18393TIP3    H276595   4.414   0.062   0.507  1.0214 -2.9449 -1.6989
18394TIP3   OH276596   6.155   0.358   4.291 -0.3835 -0.3017 -0.2119
18394TIP3    H176597   6.143   0.451   4.311 -0.2337 -0.2045 -0.5542
18394TIP3    H276598   6.066   0.326   4.275 -0.5340 -0.4549  0.8752
18395TIP3   OH276599   4.344   3.074   1.867  0.3779 -0.1976  0.1772
18395TIP3    H176600   4.257   3.114   1.880 -0.0727 -1.6958  2.3320
18395TIP3    H276601   4.326   2.980   1.863  1.9324 -0.5508  1.0544
18396TIP3   OH276602   5.440   0.228   4.678  0.3589 -0.0901  0.2204
18396TIP3    H176603   5.514   0.249   4.620  1.3194  0.4736  1.5975
18396TIP3    H276604   5.481   0.184   4.753 -0.8810 -0.9851  0.3921
18397TIP3   OH276605   1.012   2.207  14.061  0.8608 -0.5281 -0.1147
18397TIP3    H176606   0.992   2.114  14.056 -0.2032 -0.3647  0.7454
18397TIP3    H276607   1.009   2.228  14.154 -2.1404  0.9962 -0.4322
18398TIP3   OH276608   3.097   1.197   3.532  0.0110  0.5463 -0.5471
18398TIP3    H176609   3.156   1.199   3.456 -1.5847 -1.9738 -1.9930
18398TIP3    H276610   3.134   1.129   3.589 -0.9593 -0.4302 -1.0477
18399TIP3   OH276611   5.867   1.914   0.381  1.0519  0.2335  0.0069
18399TIP3    H176612   5.883   2.003   0.413  1.4284 -0.6876  2.6072
18399TIP3    H276613   5.772   1.903   0.386  0.9669  0.6209 -0.7210
18400TIP3   OH276614   4.533   2.673  13.280 -0.3879  0.6426  0.4068
18400TIP3    H176615   4.465   2.628  13.231 -1.1443  1.3427  0.7702
18400TIP3    H276616   4.614   2.657  13.232 -0.9190  0.3146 -0.3825
18401TIP3   OH276617   6.714   6.342   5.184  0.3677 -0.3545 -0.6792
18401TIP3    H176618   6.721   6.436   5.196 -0.8005 -0.3498  0.0978
18401TIP3    H276619   6.755   6.304   5.262 -3.1081 -0.3798  1.3334
18402TIP3   OH276620   3.386   3.940   1.590 -0.1544 -0.3517  0.2242
18402TIP3    H176621   3.292   3.923   1.581 -0.2786  1.1660 -2.7498
18402TIP3    H276622   3.391   4.025   1.632 -0.2742  0.5605 -1.5049
18403TIP3   OH276623   5.260   0.946  10.314 -0.1245  0.5622  0.5460
18403TIP3    H176624   5.235   0.909  10.229  2.6083 -0.0093 -0.0945
18403TIP3    H276625   5.187   0.923  10.372 -1.0098 -1.0924 -1.1050
18404TIP3   OH276626   4.610   1.164   5.914  0.4742  0.3109  0.2860
18404TIP3    H176627   4.613   1.253   5.950  2.7026 -0.0270  1.0921
18404TIP3    H276628   4.546   1.119   5.970 -0.3386  1.2612  0.1614
18405TIP3   OH276629   3.747   0.671  16.900 -0.2744  0.5712 -0.2928
18405TIP3    H176630   3.757   0.587  16.854 -1.7361  0.5572 -0.6359
18405TIP3    H276631   3.831   0.685  16.943  0.2580 -0.6873 -0.8737
18406TIP3   OH276632   0.713   4.557  13.405  0.0999 -0.0411 -0.2539
18406TIP3    H176633   0.664   4.589  13.329 -0.4232 -0.3917 -0.0666
18406TIP3    H276634   0.714   4.462  13.395 -1.1542 -0.1963  0.8829
18407TIP3   OH276635   1.591   0.703   5.383  0.1307 -0.6311  0.1364
18407TIP3    H176636   1.538   0.782   5.369 -0.3867 -0.5695  2.1393
18407TIP3    H276637   1.610   0.671   5.294  0.5456  1.8312 -0.7634
18408TIP3   OH276638   1.536   3.584  16.310 -0.0143  0.8858 -0.2548
18408TIP3    H176639   1.582   3.503  16.330 -1.6218 -0.0273 -0.0743
18408TIP3    H276640   1.446   3.557  16.292 -0.6993  2.6650  0.2281
18409TIP3   OH276641   1.330   1.748  15.572  0.0164  0.4044 -0.2104
18409TIP3    H176642   1.357   1.751  15.481  2.5773 -0.9212  0.4038
18409TIP3    H276643   1.276   1.826  15.584 -0.6960  0.4008 -2.9101
18410TIP3   OH276644   3.781   6.067  16.311 -0.4805  0.0591 -0.0329
18410TIP3    H176645   3.702   6.061  16.257  0.1588 -1.5736 -0.8565
18410TIP3    H276646   3.816   5.978  16.312  0.8526  0.5618  1.0903
18411TIP3   OH276647   6.273   5.232  16.184 -0.5158  0.3616 -0.1396
18411TIP3    H176648   6.284   5.205  16.275  0.1776  0.8995 -0.0536
18411TIP3    H276649   6.306   5.322  16.182  1.6300 -0.3772 -1.3609
18412TIP3   OH276650   3.583   4.327   5.537 -0.0841 -0.5852  0.6020
18412TIP3    H176651   3.516   4.389   5.506  2.0092  0.9285 -1.2263
18412TIP3    H276652   3.620   4.369   5.614 -1.0255 -1.3168  1.4792
18413TIP3   OH276653   1.482   1.507  10.961  0.3797  0.5277 -0.0995
18413TIP3    H176654   1.493   1.435  11.024  1.0696  0.0699 -0.7179
18413TIP3    H276655   1.404   1.483  10.911  0.2516  0.5233  0.1013
18414TIP3   OH276656   1.465   1.374   2.202 -0.1677 -0.7285  0.1667
18414TIP3    H176657   1.401   1.344   2.138  0.3061 -0.2076 -0.5626
18414TIP3    H276658   1.493   1.460   2.170 -0.9272  0.1941  1.7939
18415TIP3   OH276659   1.992   3.272  13.815 -0.0187 -0.3924  0.0829
18415TIP3    H176660   1.911   3.227  13.838 -0.7479  0.7887 -0.1059
18415TIP3    H276661   2.060   3.205  13.824 -1.0864 -1.5793 -0.4034
18416TIP3   OH276662   4.180   5.606   4.782  0.7724 -0.3816 -0.2953
18416TIP3    H176663   4.215   5.695   4.785  0.2037 -0.1432 -0.5574
18416TIP3    H276664   4.257   5.551   4.769  0.9855  0.2018 -1.7041
18417TIP3   OH276665   2.266   4.730   1.386 -0.0475 -0.4748 -0.2401
18417TIP3    H176666   2.288   4.803   1.327  1.9094 -0.4802  0.4436
18417TIP3    H276667   2.243   4.658   1.327 -0.4553  0.2172 -0.9448
18418TIP3   OH276668   3.813   5.276  10.042  0.1568 -0.0749 -0.2052
18418TIP3    H176669   3.732   5.256  10.089 -0.1627 -0.6681 -0.9868
18418TIP3    H276670   3.798   5.363  10.005  0.3330  0.3110  0.6120
18419TIP3   OH276671   2.059   6.468   1.395  0.3292 -0.0267 -0.0230
18419TIP3    H176672   1.999   6.401   1.429  0.3536 -0.9028 -1.5780
18419TIP3    H276673   2.010   6.550   1.402 -0.0636 -0.3324  1.0512
18420TIP3   OH276674   0.497   1.284  14.343 -0.5953  0.5410 -0.0254
18420TIP3    H176675   0.439   1.349  14.302  0.0089  0.4347 -1.0888
18420TIP3    H276676   0.505   1.215  14.277 -0.6302 -0.2656  0.8001
18421TIP3   OH276677   3.564   3.743  11.396  0.3788  0.3248 -0.3743
18421TIP3    H176678   3.531   3.833  11.395  1.9506  0.9693 -2.2955
18421TIP3    H276679   3.496   3.691  11.352 -0.6915  0.4741  1.0547
18422TIP3   OH276680   2.265   0.728  15.509  0.4329 -0.6425 -0.1613
18422TIP3    H176681   2.237   0.794  15.573  0.1375  0.9063 -1.8165
18422TIP3    H276682   2.310   0.662  15.561 -0.5307  0.1295  1.7501
18423TIP3   OH276683   2.483   4.222   1.885  0.2559  0.3815  0.5730
18423TIP3    H176684   2.562   4.228   1.938  0.7844 -1.6172  0.0917
18423TIP3    H276685   2.470   4.311   1.852  1.5265  1.0406  1.7093
18424TIP3   OH276686   3.409   1.096   4.957  0.5480  0.3585  0.2896
18424TIP3    H176687   3.342   1.030   4.972  0.6898  0.2646  0.5314
18424TIP3    H276688   3.492   1.048   4.964  0.6834  0.7066  1.3396
18425TIP3   OH276689   0.129   5.119   1.744 -1.1158  0.3267 -0.6144
18425TIP3    H176690   0.136   5.027   1.716  1.1765  0.3330 -0.2541
18425TIP3    H276691   0.103   5.114   1.836  0.6995 -0.0921 -0.0768
18426TIP3   OH276692   1.557   6.534   4.540  0.1606  0.5377 -0.1987
18426TIP3    H176693   1.491   6.600   4.519 -1.0556 -0.9581 -1.3576
18426TIP3    H276694   1.508   6.465   4.585  1.5211  0.6703  1.5617
18427TIP3   OH276695   4.642   2.004  13.460  0.1149  0.4712 -0.1817
18427TIP3    H176696   4.705   2.028  13.527 -0.9295  0.5538  0.8036
18427TIP3    H276697   4.646   1.909  13.456  0.4372  0.4869 -0.2729
18428TIP3   OH276698   0.233   5.515   2.924  0.1259  0.4673 -0.1969
18428TIP3    H176699   0.167   5.577   2.957 -2.2694 -1.4937 -0.9987
18428TIP3    H276700   0.214   5.508   2.831  0.6491 -1.0826 -0.2062
18429TIP3   OH276701   4.319   5.703  12.689  0.0496  0.3846 -0.0924
18429TIP3    H176702   4.247   5.697  12.626 -0.2927 -0.0934  0.3268
18429TIP3    H276703   4.376   5.630  12.666  1.0705  1.5076 -1.2166
18430TIP3   OH276704   0.380   2.781   4.085  0.4003 -0.2800 -0.1666
18430TIP3    H176705   0.452   2.742   4.035  0.7635 -0.0390  0.1574
18430TIP3    H276706   0.361   2.863   4.041  0.1400 -0.4653 -0.4074
18431TIP3   OH276707   4.896   5.648   4.995  0.0610  0.0105 -0.1947
18431TIP3    H176708   4.971   5.590   4.985  0.7614  1.2862 -4.3591
18431TIP3    H276709   4.913   5.695   5.078  1.5019 -2.7406  1.2066
18432TIP3   OH276710   1.178   4.654  11.279 -0.5878  0.3220  0.2130
18432TIP3    H176711   1.147   4.613  11.198 -1.2511  1.5724 -0.1859
18432TIP3    H276712   1.144   4.743  11.276  1.5374  1.2170  0.6481
18433TIP3   OH276713   4.791   3.973   0.215 -0.1304  0.3289  0.4414
18433TIP3    H176714   4.751   3.974   0.302  0.1826 -0.3012  0.5995
18433TIP3    H276715   4.855   4.045   0.217  1.1598 -0.7851  1.3658
18434TIP3   OH276716   0.720   6.217  15.640  0.2948  0.4904 -0.6965
18434TIP3    H176717   0.786   6.233  15.708 -0.1625  0.3860 -0.2191
18434TIP3    H276718   0.638   6.246  15.679  0.3305  2.6795 -2.0807
18435TIP3   OH276719   4.021   6.705   2.000  0.6180 -0.9047 -0.3655
18435TIP3    H176720   4.067   6.764   2.060  0.7977 -1.2104 -0.1987
18435TIP3    H276721   4.042   6.738   1.913  0.3718 -0.4692 -0.2668
18436TIP3   OH276722   5.217   2.217   4.334 -0.0308 -0.0592 -0.5119
18436TIP3    H176723   5.202   2.125   4.356  0.7977 -0.1882 -0.4361
18436TIP3    H276724   5.207   2.264   4.417 -0.0712 -0.1315 -0.4759
18437TIP3   OH276725   3.056   4.628   0.195  0.4901 -0.3898 -0.2807
18437TIP3    H176726   3.050   4.549   0.141  0.6353 -0.5960  0.0009
18437TIP3    H276727   3.072   4.595   0.283  1.9032 -0.0064 -0.3721
18438TIP3   OH276728   6.664   2.426  12.796 -0.2080 -0.3483  0.2261
18438TIP3    H176729   6.744   2.421  12.847  0.5469 -0.2552 -0.9200
18438TIP3    H276730   6.594   2.421  12.861  0.7200  0.1762  1.2965
18439TIP3   OH276731   3.368   2.441   5.602 -0.2007  0.2000  0.1257
18439TIP3    H176732   3.292   2.439   5.661 -0.3208  0.9986  0.0080
18439TIP3    H276733   3.418   2.518   5.630  1.0915 -0.8310  0.8344
18440TIP3   OH276734   5.655   4.615   1.194 -0.3296  0.0704 -0.7923
18440TIP3    H176735   5.624   4.699   1.226  1.3422  0.6183 -0.5399
18440TIP3    H276736   5.616   4.607   1.106 -0.6336  1.0277 -0.7542
18441TIP3   OH276737   0.936   2.354   4.338  0.3282 -0.4211  0.2929
18441TIP3    H176738   0.909   2.433   4.385  0.2688  0.1102 -0.6084
18441TIP3    H276739   0.975   2.298   4.405  0.4075  0.3945  0.9371
18442TIP3   OH276740   1.233   1.403  15.671 -0.1895  0.2511 -0.1129
18442TIP3    H176741   1.193   1.479  15.714 -1.1373 -0.5284  0.4252
18442TIP3    H276742   1.234   1.425  15.578  1.3490  1.7201  0.1937
18443TIP3   OH276743   1.773   6.570   4.700  0.0628  0.2333  0.1156
18443TIP3    H176744   1.845   6.519   4.663  0.6188  2.0880 -1.4822
18443TIP3    H276745   1.699   6.555   4.641  0.2358  1.2449 -0.3814
18444TIP3   OH276746   1.534   2.671  11.876  0.5001  0.4239  0.3150
18444TIP3    H176747   1.503   2.745  11.823  2.5829  1.3509  0.3191
18444TIP3    H276748   1.484   2.596  11.843  0.1598  1.3693 -1.4532
18445TIP3   OH276749   2.549   0.674   1.451  0.4597  0.3094 -0.2013
18445TIP3    H176750   2.575   0.583   1.461  0.4655 -0.1580 -3.4060
18445TIP3    H276751   2.631   0.721   1.436  0.3429  0.6630  0.2174
18446TIP3   OH276752   2.906   3.336  15.846 -0.1489  0.0401 -0.3241
18446TIP3    H176753   2.948   3.383  15.918  1.6383 -0.2580 -1.1254
18446TIP3    H276754   2.890   3.248  15.880  0.6240 -0.0785 -0.2547
18447TIP3   OH276755   6.294   2.194   3.182 -0.2468  0.0099  0.1676
18447TIP3    H176756   6.343   2.115   3.205  0.1735 -0.0625 -0.9448
18447TIP3    H276757   6.244   2.170   3.104  0.9552  1.2299 -1.0291
18448TIP3   OH276758   1.925   3.855   3.493  0.1415  0.2021 -0.4104
18448TIP3    H176759   1.832   3.873   3.509  0.3564  0.9876  0.0008
18448TIP3    H276760   1.926   3.814   3.407 -0.6418 -0.3283 -0.1812
18449TIP3   OH276761   2.789   1.174   5.416  0.2839 -0.2364  0.0325
18449TIP3    H176762   2.860   1.176   5.479 -0.5168  0.5392  0.9489
18449TIP3    H276763   2.785   1.083   5.387  0.5043 -0.6741  1.3045
18450TIP3   OH276764   0.891   6.510   2.360  0.1641 -0.1498  0.1406
18450TIP3    H176765   0.986   6.517   2.361  0.1430  0.2198  0.9516
18450TIP3    H276766   0.866   6.526   2.270  1.0111 -2.4279 -0.5765
18451TIP3   OH276767   6.616   1.091  11.624 -0.2160  0.1590 -0.2516
18451TIP3    H176768   6.702   1.116  11.591  0.2511  0.5526  1.1677
18451TIP3    H276769   6.567   1.173  11.630  0.3066  0.3931  1.6011
18452TIP3   OH276770   0.195   4.074  15.994  0.0437  0.3709  0.2158
18452TIP3    H176771   0.189   4.062  16.089  0.0963  1.3652  0.3537
18452TIP3    H276772   0.260   4.143  15.982  0.7737 -0.4251 -0.6049
18453TIP3   OH276773   1.658   6.690  12.878  0.3728 -0.2623 -0.5412
18453TIP3    H176774   1.744   6.702  12.837  0.5219  1.4843  0.1661
18453TIP3    H276775   1.625   6.779  12.890 -0.8431 -0.8335  0.6252
18454TIP3   OH276776   0.180   0.523   5.280 -0.4163  0.6197 -0.4055
18454TIP3    H176777   0.176   0.488   5.369 -0.1090  3.1172  0.7001
18454TIP3    H276778   0.273   0.518   5.257 -0.0219  2.4716  0.5945
18455TIP3   OH276779   3.722   4.656  14.166 -0.1430 -0.2361 -0.1382
18455TIP3    H176780   3.797   4.708  14.136  0.1921 -0.2857  0.5910
18455TIP3    H276781   3.756   4.567  14.175 -0.4966 -0.4159 -0.5714
18456TIP3   OH276782   3.248   1.540   5.439 -0.4054  0.0031  0.1231
18456TIP3    H176783   3.154   1.551   5.455 -0.2951  0.8896  0.2131
18456TIP3    H276784   3.278   1.627   5.412  0.3471 -0.3307 -0.1390
18457TIP3   OH276785   4.511   5.102   0.568 -0.7795  0.1254 -0.2835
18457TIP3    H176786   4.436   5.140   0.614 -0.4261  1.9296 -1.1201
18457TIP3    H276787   4.513   5.011   0.597 -2.5203  0.3669  0.7320
18458TIP3   OH276788   6.607   2.363   3.367 -0.5443 -0.1411 -0.6272
18458TIP3    H176789   6.696   2.394   3.384 -1.0566  2.0500 -1.5743
18458TIP3    H276790   6.619   2.290   3.306  0.5972  0.4065 -1.1051
18459TIP3   OH276791   0.532   6.711   0.314  0.3941  0.3043  0.3056
18459TIP3    H176792   0.506   6.622   0.340  0.8616  0.2066  0.4607
18459TIP3    H276793   0.621   6.720   0.347  1.1345  0.0751 -1.4760
18460TIP3   OH276794   1.749   6.581  12.459 -0.5103 -0.3565 -0.0020
18460TIP3    H176795   1.800   6.510  12.421  0.7851  1.2541 -1.4451
18460TIP3    H276796   1.669   6.583  12.407 -1.1514 -1.5271  0.8845
18461TIP3   OH276797   6.427   2.443  12.458  0.8185  0.0454  0.5390
18461TIP3    H176798   6.407   2.349  12.446 -1.1947  0.6599 -1.9905
18461TIP3    H276799   6.521   2.449  12.445  0.9883 -1.6172  0.7028
18462TIP3   OH276800   3.165   1.390   3.196  0.1634 -0.3016 -0.1508
18462TIP3    H176801   3.148   1.296   3.182  0.3654 -0.2310 -0.8884
18462TIP3    H276802   3.096   1.417   3.257  1.3227 -1.3825  1.7594
18463TIP3   OH276803   5.572   3.665  14.655 -0.6954 -0.3094 -0.6240
18463TIP3    H176804   5.617   3.712  14.584 -0.9512  1.4502  0.3165
18463TIP3    H276805   5.643   3.627  14.706 -0.3299  0.9694 -0.1448
18464TIP3   OH276806   4.292   3.437   5.387  0.0971  0.3227  0.0296
18464TIP3    H176807   4.222   3.391   5.340 -0.9322  0.5885  1.2509
18464TIP3    H276808   4.247   3.507   5.435  0.8736 -0.7320  2.4490
18465TIP3   OH276809   0.266   3.699   0.694  0.5836 -0.1292  0.3033
18465TIP3    H176810   0.347   3.723   0.740  1.7206 -0.4578 -1.4367
18465TIP3    H276811   0.283   3.611   0.660 -1.5554 -1.3640  2.1468
18466TIP3   OH276812   5.938   0.265   5.507 -0.5546 -0.0491  0.3715
18466TIP3    H176813   5.941   0.323   5.431  1.6356  0.8839  1.1130
18466TIP3    H276814   5.867   0.203   5.486 -4.3059  3.7768  0.2710
18467TIP3   OH276815   1.278   2.001  11.139 -0.1677 -0.2830  0.2043
18467TIP3    H176816   1.260   2.073  11.200  0.8648 -0.9058  1.3053
18467TIP3    H276817   1.270   1.922  11.193  1.3480 -0.8222 -0.3082
18468TIP3   OH276818   0.098   4.931   3.429  0.3984  0.2445 -0.1485
18468TIP3    H176819   0.018   4.889   3.458  0.1156  0.0734 -1.1548
18468TIP3    H276820   0.070   4.994   3.363  1.0037  0.8020  0.1058
18469TIP3   OH276821   1.827   1.040  13.454  0.4115 -0.1516 -0.1966
18469TIP3    H176822   1.918   1.066  13.443  0.2900  1.1946  1.5172
18469TIP3    H276823   1.777   1.120  13.440 -0.6265 -1.0452 -1.9632
18470TIP3   OH276824   5.130   2.344  13.588  0.2819  0.1083 -0.1264
18470TIP3    H176825   5.170   2.258  13.601 -1.3012 -0.3955  1.8286
18470TIP3    H276826   5.160   2.396  13.662 -0.3144  0.6493 -0.2525
18471TIP3   OH276827   3.203   5.549   4.288  0.0539  0.1123  0.2653
18471TIP3    H176828   3.172   5.597   4.365 -0.8811  0.3152 -0.2311
18471TIP3    H276829   3.257   5.479   4.324 -1.6298 -0.7631  1.2112
18472TIP3   OH276830   5.356   0.052  12.877 -0.0095 -0.0584 -0.8549
18472TIP3    H176831   5.326   0.043  12.787  1.3701 -0.4420 -1.2978
18472TIP3    H276832   5.286   0.014  12.930 -0.5973 -0.2959 -1.7880
18473TIP3   OH276833   0.810   1.311   2.060 -0.0578  0.4845  0.2086
18473TIP3    H176834   0.847   1.234   2.103 -0.3064  0.5898  0.6097
18473TIP3    H276835   0.772   1.363   2.130  0.1574  1.0049 -0.0509
18474TIP3   OH276836   6.550   3.553   5.140 -0.1463  0.2019  0.2651
18474TIP3    H176837   6.556   3.589   5.051  1.0139 -0.0064  0.2375
18474TIP3    H276838   6.460   3.569   5.166 -0.2825  1.0232 -0.6334
18475TIP3   OH276839   3.256   2.889  13.144  0.3357  0.8797  0.8368
18475TIP3    H176840   3.318   2.920  13.078 -0.1339  1.7393  0.7783
18475TIP3    H276841   3.291   2.921  13.227  0.7796  0.0365  0.9815
18476TIP3   OH276842   6.721   5.164  14.237  0.0538  0.4817 -0.6585
18476TIP3    H176843   6.752   5.252  14.218 -0.8840  0.7281 -1.0853
18476TIP3    H276844   6.771   5.107  14.179 -0.0650  0.8402 -1.1144
18477TIP3   OH276845   4.304   2.505   1.172 -0.8538 -0.2190  0.6253
18477TIP3    H176846   4.225   2.515   1.225 -0.5401  2.3642  0.7614
18477TIP3    H276847   4.366   2.459   1.228 -0.8813  1.5266  2.1772
18478TIP3   OH276848   1.462   2.394   3.595  0.1838 -0.2384  0.0839
18478TIP3    H176849   1.463   2.440   3.512  0.5823 -1.0328 -0.3720
18478TIP3    H276850   1.392   2.435   3.645 -0.0083  0.3029 -0.6121
18479TIP3   OH276851   3.076   1.586  12.676  0.1065  0.1170 -0.1796
18479TIP3    H176852   3.129   1.603  12.597  1.3787 -0.9129  0.4097
18479TIP3    H276853   3.104   1.653  12.738  1.0852 -0.6980  0.2837
18480TIP3   OH276854   3.509   0.247  11.787  0.8660 -0.5930 -0.8962
18480TIP3    H176855   3.483   0.158  11.813  1.2261 -0.6465 -0.7144
18480TIP3    H276856   3.426   0.295  11.780  0.4936 -1.3990 -2.7291
18481TIP3   OH276857   3.754   1.068  15.773 -0.2153  0.3828 -0.4291
18481TIP3    H176858   3.748   1.155  15.812  1.4332  0.4585 -0.2716
18481TIP3    H276859   3.804   1.016  15.837 -1.4782 -0.7968 -0.3534
18482TIP3   OH276860   6.628   4.072  13.684  0.3345  0.1399 -0.3860
18482TIP3    H176861   6.696   4.022  13.639 -1.0740 -1.1315 -1.1451
18482TIP3    H276862   6.618   4.152  13.631  1.5888  0.6045  0.0421
18483TIP3   OH276863   5.339   2.142   2.869 -0.3145  0.0323 -0.6573
18483TIP3    H176864   5.312   2.178   2.784 -1.7756  0.1545 -0.1567
18483TIP3    H276865   5.434   2.156   2.871 -0.2860  0.2586 -2.1614
18484TIP3   OH276866   4.611   1.399  12.297 -0.1723 -0.2722 -0.0526
18484TIP3    H176867   4.706   1.391  12.303  0.1670  2.7370 -0.0883
18484TIP3    H276868   4.586   1.332  12.233  2.2790  0.6533 -2.1577
18485TIP3   OH276869   3.628   0.307   2.340 -0.9424  0.3885 -0.0300
18485TIP3    H176870   3.724   0.305   2.337 -0.9660 -0.5887 -0.7976
18485TIP3    H276871   3.606   0.280   2.429 -0.5078  2.9204  0.9400
18486TIP3   OH276872   6.500   2.659  15.034  0.3090  0.4463 -0.0203
18486TIP3    H176873   6.553   2.599  15.086 -1.0599 -1.3288 -0.5614
18486TIP3    H276874   6.425   2.606  15.006 -0.9695  2.4211 -0.5428
18487TIP3   OH276875   1.161   5.705  14.228 -0.5543 -0.5361 -0.1059
18487TIP3    H176876   1.158   5.801  14.227 -0.8729 -0.4539  2.5961
18487TIP3    H276877   1.251   5.684  14.201 -0.8999  0.3955 -2.2297
18488TIP3   OH276878   4.695   5.756   4.249  0.0885 -0.0170 -0.6264
18488TIP3    H176879   4.671   5.847   4.267  0.3360 -0.1427  0.3751
18488TIP3    H276880   4.614   5.716   4.217  0.0254  0.5946 -1.2551
18489TIP3   OH276881   0.378   5.635   2.253  0.2804  0.1809  0.5517
18489TIP3    H176882   0.302   5.686   2.225  0.5080  0.8397  1.1209
18489TIP3    H276883   0.403   5.673   2.337  1.3029  0.0360  0.3213
18490TIP3   OH276884   3.571   1.762   1.791  0.3718  0.0882 -0.5560
18490TIP3    H176885   3.516   1.689   1.763  0.1016 -0.4835  1.3069
18490TIP3    H276886   3.651   1.754   1.738 -0.1074 -0.8920 -1.1573
18491TIP3   OH276887   2.311   6.265   1.875 -0.2898  0.5464 -0.3635
18491TIP3    H176888   2.362   6.340   1.904 -0.0041  0.4538 -0.6214
18491TIP3    H276889   2.245   6.303   1.817 -0.4183  0.6482 -0.1511
18492TIP3   OH276890   3.850   4.284  15.861  0.2829  0.2717  0.2962
18492TIP3    H176891   3.936   4.324  15.853  0.5815 -0.0471  1.5767
18492TIP3    H276892   3.839   4.270  15.956 -0.5121 -1.0961  0.0358
18493TIP3   OH276893   1.486   1.343   3.766 -0.6142  0.4393  0.2088
18493TIP3    H176894   1.540   1.325   3.689 -0.1310  0.7664  0.4669
18493TIP3    H276895   1.453   1.432   3.752  0.4481  0.9657  0.9352
18494TIP3   OH276896   2.464   5.561   3.468 -0.4287  0.0843  0.4163
18494TIP3    H176897   2.477   5.484   3.411 -0.0036  1.3195 -1.2358
18494TIP3    H276898   2.484   5.529   3.556 -0.3954 -1.7304 -0.2085
18495TIP3   OH276899   0.478   4.012  11.434 -0.1344 -0.2980  0.0866
18495TIP3    H176900   0.531   4.063  11.373  3.1399  0.5163  3.2443
18495TIP3    H276901   0.537   3.943  11.465 -2.3500 -1.9896  0.7833
18496TIP3   OH276902   6.117   2.356   2.388 -0.1750  0.8034  0.2325
18496TIP3    H176903   6.178   2.409   2.438  1.0571 -1.8212  1.7227
18496TIP3    H276904   6.035   2.360   2.437  0.6012 -0.5315  1.7392
18497TIP3   OH276905   1.561   0.607   0.136 -0.3318 -0.1216  0.0860
18497TIP3    H176906   1.512   0.553   0.074  0.1240 -1.0632  0.5343
18497TIP3    H276907   1.512   0.600   0.218  0.8194 -1.5234  0.6932
18498TIP3   OH276908   3.850   1.143   3.620  0.1390 -0.7220  0.7565
18498TIP3    H176909   3.829   1.056   3.585  0.2262 -0.5098  0.1662
18498TIP3    H276910   3.925   1.172   3.568 -0.7658  0.2931 -0.0264
18499TIP3   OH276911   4.704   3.161   4.125 -0.3187 -0.0454 -0.3962
18499TIP3    H176912   4.618   3.128   4.151 -0.8278  0.7422 -1.0519
18499TIP3    H276913   4.694   3.256   4.121  0.2573 -0.0079 -1.5974
18500TIP3   OH276914   0.729   3.272  10.926 -0.1574  0.2604  0.6454
18500TIP3    H176915   0.703   3.361  10.903  0.1799 -0.1249 -1.4213
18500TIP3    H276916   0.816   3.262  10.887 -0.6959 -1.3504 -0.2414
18501TIP3   OH276917   2.136   6.151  16.612  0.1876 -0.2173  0.1520
18501TIP3    H176918   2.130   6.072  16.558  0.2615  0.6206 -1.1360
18501TIP3    H276919   2.210   6.135  16.670 -0.9639 -1.8538  1.2615
18502TIP3   OH276920   2.365   4.269   4.731  0.1757 -0.0769  0.2915
18502TIP3    H176921   2.420   4.343   4.706  1.5132 -1.4332 -1.0334
18502TIP3    H276922   2.275   4.303   4.726  0.6787  1.1582 -1.4361
18503TIP3   OH276923   4.076   0.199  15.161  0.3765 -0.0347 -0.3259
18503TIP3    H176924   4.106   0.114  15.129  1.3713 -0.5771  1.8365
18503TIP3    H276925   4.066   0.253  15.083 -0.5318 -2.2038 -1.7806
18504TIP3   OH276926   2.222   5.545  15.646 -0.3331 -0.3363  0.3301
18504TIP3    H176927   2.297   5.588  15.606  0.6403 -1.8126  0.4682
18504TIP3    H276928   2.146   5.582  15.601  0.6168 -0.6110 -1.6096
18505TIP3   OH276929   2.623   1.202  13.645 -0.0599 -0.1482 -0.9293
18505TIP3    H176930   2.712   1.185  13.676 -0.6512 -1.0063  0.3891
18505TIP3    H276931   2.568   1.189  13.722 -1.3284  0.4833 -1.6938
18506TIP3   OH276932   3.177   2.775   3.304 -0.4978 -0.3897 -0.3642
18506TIP3    H176933   3.121   2.834   3.355  0.4394 -0.8972  1.3509
18506TIP3    H276934   3.116   2.722   3.254 -1.4097  1.0771 -0.8869
18507TIP3   OH276935   0.833   6.031   4.136 -0.1235 -0.1156 -0.1208
18507TIP3    H176936   0.775   5.968   4.094  3.1454 -2.0864 -2.1311
18507TIP3    H276937   0.843   5.997   4.226  0.2765 -1.5938 -0.6851
18508TIP3   OH276938   5.720   5.006  12.584 -0.3049 -0.0334 -0.7822
18508TIP3    H176939   5.753   5.086  12.544 -0.9127 -0.4723 -2.2085
18508TIP3    H276940   5.673   4.961  12.514  0.7921 -2.0998 -0.2821
18509TIP3   OH276941   3.594   5.236   0.568  0.9260 -0.1155  0.1251
18509TIP3    H176942   3.621   5.297   0.499 -2.5031  2.4147  0.7497
18509TIP3    H276943   3.639   5.267   0.646 -0.5543  1.5798  0.3717
18510TIP3   OH276944   1.102   3.023  16.981 -0.3378  0.3394  0.0416
18510TIP3    H176945   1.080   3.063  16.897 -1.5518  1.2345  0.7572
18510TIP3    H276946   1.055   2.939  16.981  1.5072 -0.7920 -1.0850
18511TIP3   OH276947   1.900   3.948   2.061  0.7973 -0.1350  0.0387
18511TIP3    H176948   1.877   4.041   2.060  0.5551 -0.1863 -1.0260
18511TIP3    H276949   1.819   3.902   2.036  1.2745 -0.5110 -0.8977
18512TIP3   OH276950   1.572   1.816  13.402 -0.9689  0.7393  0.0275
18512TIP3    H176951   1.564   1.771  13.317  1.1980  0.4815 -0.0976
18512TIP3    H276952   1.517   1.764  13.461 -0.7241 -0.4264 -0.7260
18513TIP3   OH276953   5.619   5.918   1.085 -0.8366 -0.0657 -0.0817
18513TIP3    H176954   5.672   5.849   1.045 -1.5561 -0.1014 -0.9968
18513TIP3    H276955   5.683   5.979   1.123 -0.1242  0.0053 -1.3525
18514TIP3   OH276956   1.758   6.351   1.182  0.1811 -0.1017 -0.4021
18514TIP3    H176957   1.680   6.396   1.215  0.9662  1.2722 -0.3397
18514TIP3    H276958   1.763   6.270   1.234  0.3090  1.1005  1.5585
18515TIP3   OH276959   1.866   4.393  11.647 -0.1416  0.1764  0.2339
18515TIP3    H176960   1.919   4.323  11.609  0.0996  0.8927 -0.8038
18515TIP3    H276961   1.792   4.348  11.688  0.8369 -0.7806  0.9899
18516TIP3   OH276962   3.584   3.733   3.873 -0.4510 -0.2889 -0.3722
18516TIP3    H176963   3.514   3.788   3.906 -1.0675 -0.4882 -1.3021
18516TIP3    H276964   3.600   3.669   3.942  2.2438  2.6575  1.9991
18517TIP3   OH276965   1.712   2.236   0.609 -0.0951  0.4205  0.3754
18517TIP3    H176966   1.748   2.150   0.588 -0.3829  0.2953  0.3895
18517TIP3    H276967   1.782   2.280   0.657  0.5192  0.6625 -0.7161
18518TIP3   OH276968   6.779   6.187   2.987  0.3925 -0.0863 -0.4228
18518TIP3    H176969   6.774   6.153   3.076 -1.3408  1.8622  0.2987
18518TIP3    H276970   6.862   6.234   2.983  0.0771  0.5573  0.4676
18519TIP3   OH276971   6.418   0.862   4.151  0.1290  0.0417  0.0089
18519TIP3    H176972   6.464   0.918   4.214 -0.0260  0.9057 -0.6317
18519TIP3    H276973   6.442   0.898   4.065 -0.4641 -0.4977 -0.3886
18520TIP3   OH276974   3.272   4.657  16.106  0.5497 -0.3549  0.5079
18520TIP3    H176975   3.247   4.693  16.191  0.4791 -1.3369  0.9125
18520TIP3    H276976   3.314   4.573  16.126 -0.0345 -0.9029 -0.4514
18521TIP3   OH276977   6.368   1.046  10.414 -0.4203  0.1689  0.0459
18521TIP3    H176978   6.277   1.048  10.444 -1.1313 -0.3204 -1.8731
18521TIP3    H276979   6.362   1.066  10.320  1.4445 -0.0926 -0.1673
18522TIP3   OH276980   3.386   1.691   0.927 -0.2128  0.3026  0.0509
18522TIP3    H176981   3.459   1.634   0.951 -0.2537  0.4259  0.4732
18522TIP3    H276982   3.386   1.760   0.994  0.6468  1.5405 -1.1710
18523TIP3   OH276983   3.333   2.328  12.310  0.1124  0.0431 -0.5004
18523TIP3    H176984   3.313   2.240  12.277  0.3633 -0.1081 -0.2540
18523TIP3    H276985   3.274   2.340  12.384 -0.8711  0.6195 -1.3645
18524TIP3   OH276986   4.845   0.341  15.010 -0.0136 -0.0551 -0.2808
18524TIP3    H176987   4.792   0.316  14.934  0.2431  1.1731 -0.8839
18524TIP3    H276988   4.930   0.366  14.973  0.7838 -1.3321  0.6100
18525TIP3   OH276989   0.016   5.751   4.721  0.1383 -0.1951 -0.1008
18525TIP3    H176990   0.003   5.751   4.626  0.3196 -0.8298 -0.1286
18525TIP3    H276991  -0.006   5.662   4.748 -0.3665  0.1058  0.5206
18526TIP3   OH276992   1.258   1.073  10.497 -0.2598 -0.9262 -0.3055
18526TIP3    H176993   1.192   1.129  10.455 -1.4527 -1.7857  0.3783
18526TIP3    H276994   1.270   1.111  10.584  1.1680  0.0090 -0.8607
18527TIP3   OH276995   3.089   6.296   2.106  0.1300  0.2713 -0.1829
18527TIP3    H176996   3.096   6.388   2.080 -1.2258  0.0460 -1.4563
18527TIP3    H276997   3.179   6.264   2.105  0.3822  0.8683 -2.5714
18528TIP3   OH276998   5.137   1.082  15.119 -0.3072 -0.7196 -0.1645
18528TIP3    H176999   5.179   1.142  15.058  0.5871 -0.4990  0.6423
18528TIP3    H277000   5.204   1.017  15.140 -1.2614 -2.0447 -1.0312
18529TIP3   OH277001   1.001   0.461   4.021 -0.5010  0.3872 -0.3270
18529TIP3    H177002   1.058   0.392   3.986 -0.9653 -0.5276  0.6807
18529TIP3    H277003   0.919   0.450   3.974 -0.3377  0.7517 -0.7068
18530TIP3   OH277004   4.796   0.565  15.177  0.4029 -0.3574  0.1283
18530TIP3    H177005   4.766   0.500  15.114 -2.1082  1.8728 -1.2300
18530TIP3    H277006   4.727   0.568  15.244  0.6027  0.6304  0.3164
18531TIP3   OH277007   4.227   5.140   3.232  0.3167 -0.1160 -0.1653
18531TIP3    H177008   4.257   5.131   3.142  1.7914  2.5393 -0.0519
18531TIP3    H277009   4.139   5.176   3.224  0.5963  0.5005 -0.5822
18532TIP3   OH277010   3.087   6.121   5.588  0.5062 -0.5263 -0.1562
18532TIP3    H177011   3.026   6.171   5.642  1.0458  1.5811 -1.3734
18532TIP3    H277012   3.106   6.042   5.639 -2.5370 -0.8597  0.6237
18533TIP3   OH277013   3.988   1.072   1.716 -0.0554 -0.1184 -0.3482
18533TIP3    H177014   4.025   0.989   1.687 -0.9723 -0.8977  0.5884
18533TIP3    H277015   3.895   1.066   1.693 -0.0294  0.8962 -0.7778
18534TIP3   OH277016   3.796   4.456  12.187  0.1371  0.0038  0.1096
18534TIP3    H177017   3.767   4.483  12.100 -0.8241 -3.0054 -0.6189
18534TIP3    H277018   3.888   4.431  12.175 -0.2652 -1.3443 -0.3284
18535TIP3   OH277019   1.849   5.769  11.397 -0.0539  0.7447  0.4468
18535TIP3    H177020   1.935   5.810  11.387  0.1221  0.5661  1.1998
18535TIP3    H277021   1.837   5.761  11.492  0.2980 -1.7619  0.3452
18536TIP3   OH277022   0.966   6.200   1.203 -0.3694 -0.2607 -0.2402
18536TIP3    H177023   0.976   6.134   1.272 -0.9972  0.9747  1.0989
18536TIP3    H277024   0.877   6.232   1.214  0.5381  2.2523  0.5357
18537TIP3   OH277025   4.097   1.885   4.304 -0.0572  0.3126  0.2446
18537TIP3    H177026   4.136   1.955   4.356  0.7446  0.0008  0.0718
18537TIP3    H277027   4.015   1.923   4.271  0.4084  1.1986  0.0805
18538TIP3   OH277028   4.522   3.553   3.244  0.0364  0.1906 -0.0090
18538TIP3    H177029   4.587   3.614   3.279 -0.8505  0.4497  1.2224
18538TIP3    H277030   4.518   3.482   3.308  0.3521 -0.7208 -0.9510
18539TIP3   OH277031   5.223   5.587   5.481 -0.1351  0.1934 -0.2128
18539TIP3    H177032   5.173   5.577   5.561  0.4389  0.2265  0.1594
18539TIP3    H277033   5.164   5.632   5.421  0.4547  3.1200  1.2158
18540TIP3   OH277034   1.285   5.954  14.639  0.8885 -0.3505  0.3082
18540TIP3    H177035   1.232   6.020  14.684  2.5409  1.4113 -0.1860
18540TIP3    H277036   1.288   5.984  14.548  0.5758 -1.8689 -0.2267
18541TIP3   OH277037   5.320   3.441  16.057 -0.3983  0.6290 -0.1117
18541TIP3    H177038   5.260   3.509  16.089 -0.0557  0.1150  1.7352
18541TIP3    H277039   5.379   3.488  15.997 -2.1801  1.2684 -1.4464
18542TIP3   OH277040   5.223   0.778  16.744 -0.5172 -0.1330  0.3270
18542TIP3    H177041   5.139   0.755  16.703 -0.5194 -0.3503  0.4548
18542TIP3    H277042   5.260   0.694  16.771 -1.0809  0.0942  1.8999
18543TIP3   OH277043   3.704   6.754  13.863  0.0699  0.0899  0.1218
18543TIP3    H177044   3.631   6.802  13.823 -0.1715 -0.1785  0.2314
18543TIP3    H277045   3.663   6.707  13.936  0.7937  1.9517  1.8305
18544TIP3   OH277046   2.452   2.707   4.213 -0.2907 -0.2361 -0.4279
18544TIP3    H177047   2.540   2.715   4.176  0.7533 -0.8872  1.7529
18544TIP3    H277048   2.427   2.616   4.196  0.5777 -0.8093  1.1634
18545TIP3   OH277049   5.726   6.742  16.100  0.4286 -0.5863  0.2565
18545TIP3    H177050   5.783   6.782  16.165  0.4585  0.9281 -0.6508
18545TIP3    H277051   5.750   6.784  16.017 -2.9786  1.3539  0.0279
18546TIP3   OH277052   2.078   6.725   4.706  0.7334  0.1481 -0.6607
18546TIP3    H177053   2.051   6.786   4.774  0.4074  0.2819 -0.9049
18546TIP3    H277054   2.086   6.641   4.750  2.2902  0.5648 -0.0766
18547TIP3   OH277055   3.283   6.151   4.227  0.0596  0.1496 -0.3974
18547TIP3    H177056   3.317   6.221   4.283  1.6127 -0.0891 -0.9880
18547TIP3    H277057   3.254   6.083   4.288  1.9878 -0.2296  0.1857
18548TIP3   OH277058   2.757   5.755  16.785 -0.2418 -0.0627  0.1830
18548TIP3    H177059   2.694   5.811  16.738 -0.4261  0.0107  0.5183
18548TIP3    H277060   2.831   5.748  16.724 -0.8724 -0.7591 -0.5319
18549TIP3   OH277061   2.343   1.656  12.473  0.2178  0.2783 -0.1266
18549TIP3    H177062   2.407   1.626  12.408  0.5274  0.4801  0.0787
18549TIP3    H277063   2.276   1.700  12.422  0.2399  0.0567 -0.3482
18550TIP3   OH277064   2.632   1.350   3.624 -0.2864  0.5111  0.2208
18550TIP3    H177065   2.644   1.320   3.534  0.4500 -1.6336  0.9677
18550TIP3    H277066   2.664   1.277   3.678  1.0565  2.4495  2.2091
18551TIP3   OH277067   1.506   1.569  12.209  0.0400 -0.0655  0.1925
18551TIP3    H177068   1.478   1.632  12.142 -0.5275  1.9564  2.2112
18551TIP3    H277069   1.428   1.554  12.262  0.4584 -1.6832  0.4107
18552TIP3   OH277070   5.635   1.451   0.322  0.8138 -0.1836 -0.3686
18552TIP3    H177071   5.571   1.396   0.367  0.1017  0.1280 -0.9778
18552TIP3    H277072   5.670   1.508   0.390  0.1579 -0.0978 -0.0930
18553TIP3   OH277073   6.055   0.356  14.741  0.0202 -0.2963 -0.1002
18553TIP3    H177074   6.147   0.383  14.728 -0.3989  0.8962 -0.7663
18553TIP3    H277075   6.010   0.436  14.767 -0.5401 -1.2237  1.9622
18554TIP3   OH277076   4.746   4.473   4.329  0.8511 -0.0637 -0.0734
18554TIP3    H177077   4.758   4.386   4.292  1.4891 -0.7681  1.6887
18554TIP3    H277078   4.808   4.478   4.401 -0.1795  1.3092  0.7798
18555TIP3   OH277079   5.269   0.080  16.214  0.0679 -0.0121 -0.3283
18555TIP3    H177080   5.296   0.149  16.276 -0.6088 -0.3070  0.3187
18555TIP3    H277081   5.350   0.033  16.195  0.4510  0.6450 -0.3796
18556TIP3   OH277082   2.836   1.495  10.563  0.0748 -0.0676 -0.2351
18556TIP3    H177083   2.790   1.426  10.516  2.0030 -1.9421  0.4336
18556TIP3    H277084   2.842   1.463  10.653  2.9769 -0.2197 -0.3689
18557TIP3   OH277085   6.353   1.799  12.415  0.0897 -0.0857 -0.6453
18557TIP3    H177086   6.424   1.849  12.457 -0.4482  0.0833  0.0857
18557TIP3    H277087   6.378   1.707  12.428  0.7365 -0.0223 -1.3889
18558TIP3   OH277088   4.832   2.376  12.624  0.4694  0.5163 -0.7554
18558TIP3    H177089   4.784   2.312  12.571 -0.5087 -1.7458  2.5024
18558TIP3    H277090   4.772   2.451  12.631 -2.9954 -2.1184  2.9866
18559TIP3   OH277091   2.088   4.829  12.996  0.6489  0.7890  0.2963
18559TIP3    H177092   2.107   4.741  13.031 -0.4215  0.1491 -0.6629
18559TIP3    H277093   2.161   4.883  13.027  0.7669 -0.1764  1.8485
18560TIP3   OH277094   4.311   3.452  15.997  0.7104 -0.1587  0.6411
18560TIP3    H177095   4.270   3.366  15.986  2.0272 -0.6182 -1.2931
18560TIP3    H277096   4.253   3.512  15.950 -0.0654 -0.0121  1.7569
18561TIP3   OH277097   1.764   5.850  10.776  0.5379  0.1092  0.2500
18561TIP3    H177098   1.668   5.851  10.768  0.4722  2.5002  0.4460
18561TIP3    H277099   1.794   5.810  10.694 -0.6132 -1.0501  0.3601
18562TIP3   OH277100   5.275   1.065   2.954 -0.1774 -0.7356  0.3505
18562TIP3    H177101   5.237   1.078   3.041 -0.0712  1.5224  0.1128
18562TIP3    H277102   5.223   1.120   2.896  0.8075 -0.8755 -0.7077
18563TIP3   OH277103   5.612   4.916   4.621 -0.1146  0.2389  0.3816
18563TIP3    H177104   5.704   4.892   4.616  0.0966  1.1258 -0.2087
18563TIP3    H277105   5.612   5.008   4.649 -0.7773  0.4962 -0.4040
18564TIP3   OH277106   4.654   3.010  14.892  0.1586 -0.7240  0.0646
18564TIP3    H177107   4.595   2.935  14.878  0.3773 -1.2255  1.6907
18564TIP3    H277108   4.663   3.017  14.987  0.3354  1.2505 -0.0530
18565TIP3   OH277109   0.293   2.713  16.131  0.1313 -0.2772 -0.2095
18565TIP3    H177110   0.268   2.776  16.199  1.3039  0.5257 -0.5076
18565TIP3    H277111   0.372   2.672  16.165  0.5827 -0.0443 -0.9687
18566TIP3   OH277112   5.710   3.596   1.161 -0.0186 -0.0614  0.4607
18566TIP3    H177113   5.626   3.559   1.134  0.2736 -0.1271 -0.4069
18566TIP3    H277114   5.689   3.686   1.187 -0.2052  0.3061 -0.8630
18567TIP3   OH277115   5.461   1.437  15.155  0.1569  0.5720 -0.5003
18567TIP3    H177116   5.490   1.371  15.217 -2.1197 -2.2123 -2.1912
18567TIP3    H277117   5.538   1.492  15.141  2.0729 -1.5077  1.2229
18568TIP3   OH277118   5.827   4.665   1.774  0.1922  0.0620 -0.2179
18568TIP3    H177119   5.808   4.576   1.745 -2.0298  0.4530 -0.1432
18568TIP3    H277120   5.837   4.715   1.693 -0.4409  0.0880 -0.2853
18569TIP3   OH277121   4.415   1.499   5.719 -0.2281  0.0107  0.3034
18569TIP3    H177122   4.479   1.554   5.675  1.1174  1.0001  3.2454
18569TIP3    H277123   4.355   1.562   5.762 -0.1497 -0.8007  1.6637
18570TIP3   OH277124   5.800   1.617  11.540  0.6432 -0.2228 -0.1456
18570TIP3    H177125   5.729   1.565  11.577  0.1818  0.7049  0.2968
18570TIP3    H277126   5.785   1.706  11.572  2.3949 -0.1279  0.5600
18571TIP3   OH277127   6.235   4.855  13.869 -0.2351 -0.3674 -0.4779
18571TIP3    H177128   6.216   4.769  13.906  0.4102 -1.4191 -2.4248
18571TIP3    H277129   6.327   4.871  13.891 -0.3716 -0.1461 -0.0651
18572TIP3   OH277130   0.966   4.697   3.641  0.4916  0.9018  0.4321
18572TIP3    H177131   0.965   4.706   3.737 -1.8195  0.8026  0.4638
18572TIP3    H277132   0.975   4.786   3.608 -0.2656  1.0981  0.7475
18573TIP3   OH277133   6.596   2.920   5.068 -0.3449  0.5175 -0.0935
18573TIP3    H177134   6.671   2.891   5.016 -1.4757 -0.9713 -0.9386
18573TIP3    H277135   6.613   2.885   5.155 -1.4238 -2.3956 -0.9607
18574TIP3   OH277136   0.550   5.722  15.898 -0.1248  0.4269 -0.0843
18574TIP3    H177137   0.636   5.682  15.909  0.5193  1.4348 -1.1846
18574TIP3    H277138   0.488   5.650  15.905  0.8654 -0.4497 -0.1338
18575TIP3   OH277139   3.965   1.313  12.273  0.2023  0.7270 -0.7326
18575TIP3    H177140   3.985   1.405  12.256  0.7145  0.6361 -0.6536
18575TIP3    H277141   4.012   1.265  12.205  0.8000  0.4694 -0.1570
18576TIP3   OH277142   0.207   5.119  12.134 -0.2372  0.0774 -0.0470
18576TIP3    H177143   0.209   5.214  12.121 -1.4083 -0.0052 -0.9602
18576TIP3    H277144   0.300   5.094  12.143  0.0194  1.5046  1.9674
18577TIP3   OH277145   6.301   0.711   0.464 -0.3991 -0.2502 -0.7460
18577TIP3    H177146   6.255   0.628   0.459 -0.9763  0.0389 -0.2875
18577TIP3    H277147   6.354   0.705   0.543  0.8953 -0.8417 -1.6155
18578TIP3   OH277148   0.554   3.557  14.555 -0.0098  0.0026 -1.1492
18578TIP3    H177149   0.579   3.628  14.496 -2.3488  0.8923 -1.1880
18578TIP3    H277150   0.475   3.589  14.599 -0.4903 -2.1233 -0.3264
18579TIP3   OH277151   5.190   3.497  15.406  0.3761 -0.4487  0.2308
18579TIP3    H177152   5.191   3.567  15.341  0.6926 -0.5069  0.1746
18579TIP3    H277153   5.097   3.482  15.423  0.3054 -0.0711  0.1843
18580TIP3   OH277154   4.849   1.222   2.689 -0.4469  0.1130 -0.2960
18580TIP3    H177155   4.773   1.246   2.742  1.6669  2.1192  2.0415
18580TIP3    H277156   4.834   1.266   2.605 -1.9332  0.2960  0.0344
18581TIP3   OH277157   6.136   0.752  14.033  0.3169 -0.2577 -0.3503
18581TIP3    H177158   6.099   0.786  14.115  1.4156  3.6324 -1.2788
18581TIP3    H277159   6.227   0.783  14.034  0.7372 -1.2886 -2.4693
18582TIP3   OH277160   4.560   2.976   3.205  0.0861  0.2436 -0.1937
18582TIP3    H177161   4.595   3.047   3.151  0.0226 -0.3712 -1.0747
18582TIP3    H277162   4.580   3.001   3.295  1.6761  0.5034 -0.6035
18583TIP3   OH277163   2.657   4.430  15.874  0.0306 -0.2085  0.0095
18583TIP3    H177164   2.618   4.401  15.791 -1.1634  3.7046 -1.0307
18583TIP3    H277165   2.690   4.518  15.855  1.3031  0.1707  3.2996
18584TIP3   OH277166   1.525   4.864  11.796 -0.1716 -1.0928  0.3719
18584TIP3    H177167   1.567   4.937  11.842 -1.0816 -0.6665  0.5404
18584TIP3    H277168   1.452   4.904  11.749 -0.8522 -1.9370  0.6972
18585TIP3   OH277169   3.960   1.556  15.752  0.3842  0.2839  0.0089
18585TIP3    H177170   3.985   1.497  15.823  0.8460  0.1984 -0.2157
18585TIP3    H277171   3.870   1.532  15.731  0.8624 -1.0025 -0.7091
18586TIP3   OH277172   1.730   6.704  13.762 -0.5204  0.0115  0.5385
18586TIP3    H177173   1.806   6.674  13.712  0.0687 -0.6090  1.7766
18586TIP3    H277174   1.656   6.690  13.704  0.1791 -0.4346 -0.2671
18587TIP3   OH277175   4.781   5.964  10.175  0.0881 -0.0715 -0.0837
18587TIP3    H177176   4.710   5.963  10.111 -1.3935  2.1211  1.3740
18587TIP3    H277177   4.772   5.882  10.223 -1.6833  0.2659  0.2252
18588TIP3   OH277178   2.687   2.411   5.229 -0.1735  0.6112 -0.7876
18588TIP3    H177179   2.714   2.376   5.314  1.5268  0.9277 -1.1693
18588TIP3    H277180   2.755   2.383   5.168  0.7894  3.6508 -1.3058
18589TIP3   OH277181   3.029   6.230   5.211  0.4840  0.4552 -0.3625
18589TIP3    H177182   3.034   6.268   5.123 -0.4389  1.1868 -0.1065
18589TIP3    H277183   3.100   6.273   5.259  1.6247 -0.6576 -0.9900
18590TIP3   OH277184   4.204   0.734  15.595  0.1240 -0.0076  0.4781
18590TIP3    H177185   4.201   0.653  15.544  0.4968  0.3602 -0.1345
18590TIP3    H277186   4.114   0.766  15.594 -0.3811 -1.2102  2.0566
18591TIP3   OH277187   3.820   2.207  14.303 -0.0644  0.3099 -0.3881
18591TIP3    H177188   3.905   2.169  14.323 -1.0247 -1.0002  1.4322
18591TIP3    H277189   3.833   2.253  14.219  2.4501  0.3410 -0.0366
18592TIP3   OH277190   3.843   0.433   4.680 -0.1364  0.3150 -0.6573
18592TIP3    H177191   3.860   0.459   4.771  1.7457 -2.0998 -0.2001
18592TIP3    H277192   3.819   0.341   4.686  3.5232 -0.9817 -2.7295
18593TIP3   OH277193   3.780   0.607   0.221  0.2673 -0.0212  0.4583
18593TIP3    H177194   3.724   0.628   0.295 -1.5869 -1.3265 -0.4706
18593TIP3    H277195   3.830   0.530   0.250  0.9639  0.6079  0.9753
18594TIP3   OH277196   1.527   0.368  11.161 -0.9076 -0.4673  0.2297
18594TIP3    H177197   1.444   0.325  11.183 -1.7913  1.5017  0.9340
18594TIP3    H277198   1.503   0.437  11.099  0.0083  0.8660  1.3085
18595TIP3   OH277199   3.430   4.301  15.526 -0.1565  0.7441 -0.3131
18595TIP3    H177200   3.491   4.373  15.542  0.7971  0.0583 -0.7357
18595TIP3    H277201   3.481   4.238  15.475  0.1863 -1.7679  2.7987
18596TIP3   OH277202   0.110   2.039   3.932  0.0702 -0.7246 -0.0403
18596TIP3    H177203   0.058   2.117   3.952  0.3958 -1.1011  2.5873
18596TIP3    H277204   0.195   2.056   3.972  0.6412 -1.8244 -0.7445
18597TIP3   OH277205   4.777   5.402  11.412  0.0638 -0.4707 -0.4857
18597TIP3    H177206   4.834   5.394  11.488  1.5373  0.3455 -1.4426
18597TIP3    H277207   4.723   5.323  11.413  1.5078 -1.4817  0.2298
18598TIP3   OH277208   5.001   0.875   2.918  0.1073  0.0721 -0.5436
18598TIP3    H177209   5.088   0.850   2.950 -0.4788  0.8622  1.8374
18598TIP3    H277210   4.988   0.963   2.951 -1.9921 -0.4006  0.0202
18599TIP3   OH277211   1.681   1.705   3.990  0.7363 -0.1737 -0.4370
18599TIP3    H177212   1.726   1.770   3.935  1.0736 -0.1206 -0.0997
18599TIP3    H277213   1.729   1.624   3.973 -1.1025 -0.9070 -2.6637
18600TIP3   OH277214   3.853   1.476  16.906  0.4893  0.6292  0.1710
18600TIP3    H177215   3.766   1.446  16.934 -0.8742  2.5870 -1.5951
18600TIP3    H277216   3.881   1.412  16.841  1.3424 -1.1022  2.1576
18601TIP3   OH277217   1.357   0.482  11.725 -0.0727 -0.0119  0.3953
18601TIP3    H177218   1.282   0.458  11.671  0.8319  0.7620 -1.2856
18601TIP3    H277219   1.319   0.508  11.809 -1.5061 -1.4060  0.2141
18602TIP3   OH277220   5.707   2.372  17.029  0.6154  0.3182  0.0762
18602TIP3    H177221   5.773   2.441  17.041 -1.4531  2.3955  0.1525
18602TIP3    H277222   5.677   2.352  17.117 -1.3506  2.0315 -0.1414
18603TIP3   OH277223   2.180   2.188   3.792 -0.1473  0.0429 -0.4823
18603TIP3    H177224   2.154   2.244   3.866 -2.1185 -2.4484  0.8798
18603TIP3    H277225   2.172   2.244   3.715  0.3529  2.2744  0.9847
18604TIP3   OH277226   6.219   1.245  10.676  0.8702 -0.3067 -0.2536
18604TIP3    H177227   6.190   1.177  10.614  2.0069 -1.1900  0.1544
18604TIP3    H277228   6.307   1.218  10.701  0.7033  0.4390  1.2030
18605TIP3   OH277229   5.778   6.680   0.572 -0.0811 -0.0520  0.4833
18605TIP3    H177230   5.728   6.755   0.540  2.2472  0.9100 -1.1126
18605TIP3    H277231   5.780   6.692   0.667 -0.4705  1.4390  0.3339
18606TIP3   OH277232   5.716   4.163  13.040  0.3224  1.1473 -0.3406
18606TIP3    H177233   5.697   4.085  12.987 -1.7833  2.0257 -0.9547
18606TIP3    H277234   5.811   4.159  13.055  0.2230 -1.7740  0.0634
18607TIP3   OH277235   4.548   4.730   1.788  0.2689  0.0323  0.2554
18607TIP3    H177236   4.554   4.712   1.882 -1.1199  0.4137  0.4327
18607TIP3    H277237   4.458   4.757   1.774  0.6288  0.6230 -1.0879
18608TIP3   OH277238   3.834   5.970  15.683 -0.7200 -0.1669 -0.0406
18608TIP3    H177239   3.837   6.052  15.635  0.8356 -0.4912 -0.5679
18608TIP3    H277240   3.747   5.968  15.722 -1.4189  0.9110 -1.4447
18609TIP3   OH277241   4.778   1.874  14.402 -0.1190  0.2600  0.3874
18609TIP3    H177242   4.859   1.919  14.426 -0.7138  1.2744  0.5540
18609TIP3    H277243   4.723   1.943  14.364 -1.4363 -0.1217  1.5518
18610TIP3   OH277244   5.137   0.663  14.281 -0.4053 -0.0890 -0.5213
18610TIP3    H177245   5.098   0.740  14.239 -0.9159 -0.4665 -0.7498
18610TIP3    H277246   5.180   0.698  14.359  0.0606  0.5420 -1.0400
18611TIP3   OH277247   4.577   2.168  14.711  0.3343 -0.4162  0.2213
18611TIP3    H177248   4.511   2.181  14.779  2.2877  0.4972  2.0667
18611TIP3    H277249   4.586   2.073  14.705 -1.3733 -0.5734 -0.3478
18612TIP3   OH277250   2.567   6.729  11.856 -0.2601  0.3066 -0.1159
18612TIP3    H177251   2.584   6.769  11.941  1.8761 -2.4872  0.9348
18612TIP3    H277252   2.491   6.672  11.871 -2.0470  2.3142 -1.0816
18613TIP3   OH277253   5.821   1.318  15.112  0.4560 -0.1493  0.1385
18613TIP3    H177254   5.867   1.316  15.196 -0.8416  0.4567  0.8968
18613TIP3    H277255   5.799   1.410  15.099 -0.4701 -0.4055 -0.2253
18614TIP3   OH277256   5.243   6.188   3.105 -0.1667 -0.4879 -0.4502
18614TIP3    H177257   5.270   6.097   3.092  2.8189 -0.2233  2.4522
18614TIP3    H277258   5.290   6.236   3.037  0.2051 -0.8939 -0.4925
18615TIP3   OH277259   1.401   0.175   4.162 -0.0569  0.0617  0.1356
18615TIP3    H177260   1.350   0.198   4.240 -0.4186  0.0504 -0.0933
18615TIP3    H277261   1.389   0.081   4.152  0.1353  0.0334  0.1675
18616TIP3   OH277262   1.687   4.830  15.488 -0.0772 -0.1856  0.4121
18616TIP3    H177263   1.668   4.747  15.443 -0.9520  0.2333 -0.0132
18616TIP3    H277264   1.608   4.848  15.538 -0.1105  0.6824  0.0572
18617TIP3   OH277265   2.493   6.367   1.664 -0.3034  0.1233  0.1067
18617TIP3    H177266   2.401   6.390   1.657 -0.4752 -0.7225 -0.6041
18617TIP3    H277267   2.496   6.299   1.731 -0.1178  0.4810  0.4723
18618TIP3   OH277268   2.758   6.775   2.189  0.2153  0.2777 -0.2627
18618TIP3    H177269   2.847   6.741   2.179  1.2366  2.4446  0.8050
18618TIP3    H277270   2.731   6.797   2.099  1.7470  1.8044 -0.4108
18619TIP3   OH277271   6.135   4.103  12.063  0.1746 -0.1494  0.1423
18619TIP3    H177272   6.083   4.112  11.984  0.1672 -0.5614  0.1000
18619TIP3    H277273   6.225   4.094  12.032  0.4721  1.9332  0.2504
18620TIP3   OH277274   4.773   5.573  15.056 -0.5425 -0.0963 -0.0912
18620TIP3    H177275   4.765   5.513  15.130 -0.4698 -0.3493 -0.2896
18620TIP3    H277276   4.684   5.607  15.043 -0.8260 -1.0552 -0.7294
18621TIP3   OH277277   6.629   1.789  16.651  0.0685  0.1527  0.0801
18621TIP3    H177278   6.681   1.760  16.726 -1.2860  0.4700  1.1879
18621TIP3    H277279   6.682   1.768  16.575  1.2121 -0.7664  1.1010
18622TIP3   OH277280   0.375   2.743  13.975 -0.0066  0.3126 -0.3361
18622TIP3    H177281   0.436   2.705  13.912 -3.2252 -0.0323 -3.5444
18622TIP3    H277282   0.362   2.674  14.041  1.2096 -0.5078 -0.9277
18623TIP3   OH277283   1.011   3.772  16.024 -0.0278  0.2385  0.3306
18623TIP3    H177284   1.032   3.681  16.044 -1.0613 -0.2901 -0.8466
18623TIP3    H277285   1.050   3.823  16.095  1.9328 -0.9831  0.2085
18624TIP3   OH277286   4.309   1.425  16.468 -0.2192 -0.3193  0.3743
18624TIP3    H177287   4.242   1.485  16.436 -1.6631 -2.5854 -1.1764
18624TIP3    H277288   4.392   1.472  16.456 -1.2892  1.4631 -0.3997
18625TIP3   OH277289   3.668   4.445  16.505 -0.1485 -0.4935  0.4479
18625TIP3    H177290   3.705   4.422  16.590  0.5946 -0.2839  0.1957
18625TIP3    H277291   3.625   4.365  16.475  0.3518 -0.8390  0.6334
18626TIP3   OH277292   0.450   2.262  15.399 -0.4665 -0.3967 -0.4385
18626TIP3    H177293   0.533   2.262  15.448 -1.3068 -0.0860  1.0505
18626TIP3    H277294   0.419   2.172  15.404 -1.3727 -0.0339  1.1139
18627TIP3   OH277295   5.767   4.910  13.114 -0.3827  0.3132 -0.3670
18627TIP3    H177296   5.743   4.818  13.129  0.6038 -0.2244 -1.8436
18627TIP3    H277297   5.863   4.909  13.113 -0.3723  1.2052 -1.3205
18628TIP3   OH277298   6.346   1.622  15.936 -0.3305 -0.1335  0.2594
18628TIP3    H177299   6.315   1.665  16.016  0.5525 -0.7555  0.9622
18628TIP3    H277300   6.405   1.553  15.968 -0.4886 -0.8259 -0.9015
18629TIP3   OH277301   2.198   0.097  14.770 -0.2107  1.0102 -0.1349
18629TIP3    H177302   2.186   0.041  14.693 -1.3519  1.3102 -0.2025
18629TIP3    H277303   2.293   0.103  14.781 -0.0536 -1.6074  0.4029
18630TIP3   OH277304   5.760   1.151  13.455 -0.2609  0.0002 -0.1071
18630TIP3    H177305   5.715   1.149  13.540  0.1425  1.2322  0.1514
18630TIP3    H277306   5.837   1.206  13.470  0.5384 -0.8597 -0.9381
18631TIP3   OH277307   5.792   3.708   5.151 -1.0384  0.9214  0.4350
18631TIP3    H177308   5.814   3.704   5.245 -2.6337  0.6255  0.8216
18631TIP3    H277309   5.866   3.755   5.112  1.5307 -2.1316  1.2214
18632TIP3   OH277310   2.170   3.351   5.328  0.0504 -0.2581  0.9517
18632TIP3    H177311   2.263   3.329   5.322  0.6185  2.2787 -2.0487
18632TIP3    H277312   2.124   3.271   5.301  1.3886 -1.1917  1.3737
18633TIP3   OH277313   5.208   6.144   0.871 -0.0197 -0.3155 -0.1025
18633TIP3    H177314   5.285   6.088   0.885  1.1457  1.6119  1.9998
18633TIP3    H277315   5.135   6.095   0.909  0.9371 -0.5521  1.5472
18634TIP3   OH277316   1.183   3.067  16.674 -0.3116  0.0310 -0.3026
18634TIP3    H177317   1.223   3.154  16.669  1.2776 -0.5033  1.5033
18634TIP3    H277318   1.092   3.080  16.649  0.4164  1.7848 -2.2808
18635TIP3   OH277319   0.442   0.265  15.192  0.6256  0.4778 -0.6147
18635TIP3    H177320   0.417   0.338  15.136  0.3929  0.3051 -0.7412
18635TIP3    H277321   0.359   0.221  15.213  0.9240 -1.0108 -2.2980
18636TIP3   OH277322   0.769   1.908   2.593 -0.3705 -0.1225  0.5760
18636TIP3    H177323   0.824   1.986   2.598 -3.2939  2.1963 -0.5105
18636TIP3    H277324   0.757   1.880   2.684 -0.6779  1.8401  1.1758
18637TIP3   OH277325   6.011   5.645   3.693  0.2184  0.0526  0.6364
18637TIP3    H177326   5.951   5.618   3.762 -0.6759 -0.6925 -0.4031
18637TIP3    H277327   6.065   5.714   3.733  1.2950 -1.9010  2.7851
18638TIP3   OH277328   1.270   2.872   0.546 -0.6338 -0.5917 -0.3931
18638TIP3    H177329   1.195   2.859   0.604 -1.4260 -3.6861 -1.8815
18638TIP3    H277330   1.237   2.928   0.475 -0.5712  0.6031  0.4899
18639TIP3   OH277331   4.713   5.562  15.817  0.0375 -0.0081  0.2102
18639TIP3    H177332   4.658   5.484  15.818  0.0966 -0.0433  1.0752
18639TIP3    H277333   4.799   5.531  15.787 -1.0150  0.4944 -3.9820
18640TIP3   OH277334   3.534   1.253  11.815 -0.3877  0.9289 -0.0618
18640TIP3    H177335   3.551   1.329  11.759 -0.3482  0.7771 -0.2584
18640TIP3    H277336   3.588   1.267  11.893 -0.8603  1.4106  0.1799
18641TIP3   OH277337   1.641   5.610  16.760 -0.0227  0.2496  0.5852
18641TIP3    H177338   1.717   5.642  16.809 -0.1680  0.8014  0.4612
18641TIP3    H277339   1.577   5.589  16.828  0.1816 -0.0669  0.6820
18642TIP3   OH277340   2.692   3.694   4.604 -0.4499 -0.1055 -0.2216
18642TIP3    H177341   2.661   3.635   4.535  0.5257 -1.0086  0.0801
18642TIP3    H277342   2.618   3.752   4.622 -1.0290 -0.4784 -1.3574
18643TIP3   OH277343   2.991   6.519   5.511 -0.3033  0.4750 -0.5233
18643TIP3    H177344   3.052   6.567   5.566 -2.4483  1.2412  1.3133
18643TIP3    H277345   3.000   6.428   5.539 -0.8130  0.7534  0.6054
18644TIP3   OH277346   2.769   4.794  13.469  0.5665 -0.0763 -0.3177
18644TIP3    H177347   2.783   4.702  13.491  1.6311  0.3074  0.7151
18644TIP3    H277348   2.726   4.792  13.383 -0.3738 -1.5455  0.1511
18645TIP3   OH277349   5.821   4.804   2.710  0.1681  0.6781 -0.5443
18645TIP3    H177350   5.861   4.775   2.628 -0.8408 -0.5246 -0.6399
18645TIP3    H277351   5.794   4.895   2.694 -0.4470  0.3003 -1.7059
18646TIP3   OH277352   5.033   4.883  13.380  0.0541 -0.7589 -0.0271
18646TIP3    H177353   5.024   4.945  13.307  0.8764 -1.2752 -0.5911
18646TIP3    H277354   5.123   4.893  13.410 -0.8686  1.0226  2.4284
18647TIP3   OH277355   1.978   1.919  15.875 -0.0975  0.2430 -0.5088
18647TIP3    H177356   1.950   1.831  15.850  0.4718 -0.5051  1.2988
18647TIP3    H277357   2.063   1.906  15.917 -1.1385  1.2638  2.1472
18648TIP3   OH277358   1.233   3.924   4.452 -0.1170  0.2477  0.1563
18648TIP3    H177359   1.316   3.971   4.454  1.9543 -2.9717 -0.9674
18648TIP3    H277360   1.226   3.893   4.361 -0.7940 -2.2699  0.9840
18649TIP3   OH277361   6.094   5.543   1.169  0.3370  0.0489  0.5776
18649TIP3    H177362   6.018   5.567   1.116 -0.4351 -1.5695  0.8881
18649TIP3    H277363   6.149   5.490   1.110  2.0332  2.4237 -0.1180
18650TIP3   OH277364   4.150   1.046  11.410 -0.0137 -0.0706 -0.6542
18650TIP3    H177365   4.200   1.127  11.414 -0.2597  0.0358  0.7626
18650TIP3    H277366   4.059   1.074  11.407 -0.0729 -0.2895 -0.9708
18651TIP3   OH277367   3.140   4.192   1.649 -0.3996 -1.0569 -0.3316
18651TIP3    H177368   3.131   4.165   1.740 -0.9738 -0.8448 -0.3217
18651TIP3    H277369   3.107   4.117   1.599  0.0953 -1.2481 -0.3693
18652TIP3   OH277370   6.416   3.184  13.605 -0.2678  0.2518  0.4363
18652TIP3    H177371   6.402   3.273  13.638  0.3214  0.2330  0.7453
18652TIP3    H277372   6.357   3.130  13.657 -0.8998  0.5030 -0.0025
18653TIP3   OH277373   0.590   0.570  14.133  0.0173  0.0359 -0.8254
18653TIP3    H177374   0.529   0.578  14.206  0.1637  1.8365 -0.8417
18653TIP3    H277375   0.567   0.488  14.090  0.2416 -1.3290  1.5003
18654TIP3   OH277376   1.248   0.648   3.953 -0.1662 -0.1342  1.0022
18654TIP3    H177377   1.202   0.723   3.991 -1.0605  0.2747 -0.7772
18654TIP3    H277378   1.192   0.621   3.881  1.6588 -0.6142 -0.2806
18655TIP3   OH277379   4.238   2.948   3.412  0.1411 -0.8762 -0.1137
18655TIP3    H177380   4.278   2.995   3.485  0.8777  0.2349 -1.1891
18655TIP3    H277381   4.302   2.881   3.389  0.8884  0.1355 -1.0698
18656TIP3   OH277382   3.266   3.529  16.573 -0.1396  0.1267  0.3853
18656TIP3    H177383   3.248   3.598  16.636  1.6702  1.1202 -0.1070
18656TIP3    H277384   3.361   3.517  16.577 -0.1203 -0.6010 -1.2958
18657TIP3   OH277385   3.472   5.123   3.221  0.4693  0.2497 -0.6725
18657TIP3    H177386   3.458   5.085   3.134  0.1658  0.5880 -0.7713
18657TIP3    H277387   3.459   5.217   3.208  0.6016  0.3187 -0.2960
18658TIP3   OH277388   3.662   2.428  15.988 -0.3776  0.2972  1.2461
18658TIP3    H177389   3.708   2.467  15.914  1.0004 -1.7477  0.9573
18658TIP3    H277390   3.646   2.501  16.047  0.0613  1.6681 -0.2561
18659TIP3   OH277391   6.205   3.146   5.674 -0.6523 -0.4195 -0.3362
18659TIP3    H177392   6.292   3.165   5.639  0.5622 -0.7568  2.2439
18659TIP3    H277393   6.165   3.232   5.686 -0.9019 -0.2799 -1.9659
18660TIP3   OH277394   0.440   0.330  11.043 -0.3208  0.2071 -0.5171
18660TIP3    H177395   0.461   0.390  10.971  1.9894 -0.7659 -0.7121
18660TIP3    H277396   0.406   0.252  11.000 -1.1899  0.5017 -0.3870
18661TIP3   OH277397   3.428   5.651  10.516 -0.0964 -0.0441 -0.3944
18661TIP3    H177398   3.492   5.682  10.453  0.5223  1.5723  0.9386
18661TIP3    H277399   3.471   5.578  10.560  0.1915 -0.0010 -0.6005
18662TIP3   OH277400   0.438   1.452   2.114 -0.5020  0.3900  0.2823
18662TIP3    H177401   0.353   1.409   2.123 -0.1034  0.0323  2.8782
18662TIP3    H277402   0.416   1.545   2.103 -1.2190  0.2325  0.3049
18663TIP3   OH277403   0.027   1.608   1.495 -0.2681  0.2886  0.0865
18663TIP3    H177404  -0.003   1.697   1.479  1.9750  1.2731  0.9085
18663TIP3    H277405   0.075   1.584   1.416  0.0064  0.2192  0.2716
18664TIP3   OH277406   6.629   0.391  15.851  0.8430  0.0039  0.3127
18664TIP3    H177407   6.724   0.394  15.839  1.0329  1.5482  1.7287
18664TIP3    H277408   6.595   0.452  15.786  1.0000  0.7607  0.9197
18665TIP3   OH277409   5.602   4.221  12.138  0.1539  0.5317  0.1990
18665TIP3    H177410   5.619   4.135  12.176 -1.3229  0.6130  1.1280
18665TIP3    H277411   5.535   4.259  12.194  0.1950  1.9692 -0.6765
18666TIP3   OH277412   6.312   5.421   0.507  0.1560  0.1004 -0.3337
18666TIP3    H177413   6.222   5.390   0.495  0.7075 -1.2766 -1.0406
18666TIP3    H277414   6.326   5.419   0.602 -0.2146 -0.6816 -0.2944
18667TIP3   OH277415   4.906   3.559  12.238 -0.0507  0.4124  0.4215
18667TIP3    H177416   4.968   3.610  12.290 -0.0077 -0.0385  0.8252
18667TIP3    H277417   4.950   3.543  12.155 -0.4704  1.9106 -0.1209
18668TIP3   OH277418   5.366   3.291   1.898 -0.1778  0.0182  0.1320
18668TIP3    H177419   5.416   3.312   1.977  0.2076  0.4889 -0.2304
18668TIP3    H277420   5.290   3.349   1.902 -0.8483 -0.8806  0.8160
18669TIP3   OH277421   5.688   5.435  11.519  0.3273  0.5618  0.6017
18669TIP3    H177422   5.646   5.485  11.450 -1.1239 -0.5658  0.6132
18669TIP3    H277423   5.707   5.499  11.587  0.1552  1.3832 -0.1043
18670TIP3   OH277424   5.036   5.892  13.756 -0.0158  0.0266 -0.4122
18670TIP3    H177425   5.108   5.830  13.760  0.9022  1.0760  0.0649
18670TIP3    H277426   4.997   5.890  13.843  1.2311  1.4525  0.2352
18671TIP3   OH277427   2.865   4.546   5.490  0.0985 -0.3534 -0.0943
18671TIP3    H177428   2.892   4.501   5.409 -2.5406  0.5655 -1.6383
18671TIP3    H277429   2.784   4.501   5.515 -0.6324  1.1754  0.4044
18672TIP3   OH277430   0.950   3.144   1.634 -0.0172  0.0881 -0.4404
18672TIP3    H177431   0.984   3.227   1.667  0.1941 -0.0332 -0.3477
18672TIP3    H277432   0.969   3.145   1.540  0.6092 -0.1490 -0.3239
18673TIP3   OH277433   3.389   3.002  14.817 -0.5168  0.2484  0.2296
18673TIP3    H177434   3.375   3.095  14.833 -2.0868  0.1131 -0.1381
18673TIP3    H277435   3.309   2.974  14.772  0.6943 -0.8949 -1.2750
18674TIP3   OH277436   0.639   0.072   2.871 -0.0296 -0.0403  1.1530
18674TIP3    H177437   0.725   0.105   2.846  0.1887 -0.2498  1.6100
18674TIP3    H277438   0.587   0.151   2.889 -0.5768  0.1750 -1.1116
18675TIP3   OH277439   6.061   3.494   0.687 -0.9117  0.4143  0.6042
18675TIP3    H177440   6.103   3.578   0.668 -1.3706  0.3369 -0.9070
18675TIP3    H277441   6.126   3.428   0.663 -0.8173  0.3246  1.0977
18676TIP3   OH277442   4.228   3.981   1.131  0.7964 -0.3674  0.2289
18676TIP3    H177443   4.206   3.897   1.091  0.0725 -0.0504 -0.0493
18676TIP3    H277444   4.152   4.003   1.184  0.9556  0.1519  0.2436
18677TIP3   OH277445   2.176   6.835  13.498  0.4511  0.1525  0.3906
18677TIP3    H177446   2.094   6.873  13.467  0.4636  0.0416  0.2186
18677TIP3    H277447   2.194   6.880  13.580 -0.9083 -1.2887  1.5666
18678TIP3   OH277448   0.110   3.915   0.325 -0.6672 -0.3912  0.1779
18678TIP3    H177449   0.081   3.890   0.413 -1.7301  1.7764  0.5100
18678TIP3    H277450   0.178   3.981   0.341 -1.4048  0.5808 -0.5972
18679TIP3   OH277451   5.681   3.660  11.312 -0.1167 -0.9694 -0.6441
18679TIP3    H177452   5.698   3.626  11.224 -0.6222 -1.8226 -0.4143
18679TIP3    H277453   5.608   3.722  11.299 -0.9910 -1.9660 -0.6651
18680TIP3   OH277454   2.199   5.357  14.747 -0.1789 -0.1471 -0.1742
18680TIP3    H177455   2.119   5.385  14.702 -0.4116  0.6423  0.7104
18680TIP3    H277456   2.269   5.402  14.700 -0.1023 -1.7012 -1.6686
18681TIP3   OH277457   0.229   3.932   4.685 -0.1400  0.6558 -0.6863
18681TIP3    H177458   0.303   3.990   4.704  0.1025 -0.3662  1.9132
18681TIP3    H277459   0.161   3.959   4.747 -0.0729 -1.6390  0.5099
18682TIP3   OH277460   4.847   2.995   1.069  0.4595  0.2892 -0.0301
18682TIP3    H177461   4.868   2.929   1.003 -2.6882  0.0005 -0.9016
18682TIP3    H277462   4.821   2.945   1.146  1.2635  0.6018  0.4613
18683TIP3   OH277463   5.489   5.643  16.025 -0.6878 -0.1961  0.0224
18683TIP3    H177464   5.547   5.719  16.034  0.8789 -1.1566 -1.3855
18683TIP3    H277465   5.511   5.587  16.099 -0.7353  0.0117  0.1949
18684TIP3   OH277466   6.194   4.986  16.634  0.4405  0.1191  0.1688
18684TIP3    H177467   6.100   4.971  16.628  0.7085 -1.2161 -1.8063
18684TIP3    H277468   6.226   4.972  16.545  2.4692  0.8451  0.7376
18685TIP3   OH277469   4.431   2.535  13.073 -0.3038 -0.1298 -0.0196
18685TIP3    H177470   4.486   2.566  13.002 -0.7795  0.5479 -0.1023
18685TIP3    H277471   4.409   2.445  13.048  1.7497 -0.8573  0.6298
18686TIP3   OH277472   1.914   2.519  10.396 -0.5238  0.1409 -0.2027
18686TIP3    H177473   1.912   2.604  10.351 -1.3252  0.3167  0.1347
18686TIP3    H277474   1.929   2.541  10.488  3.8483 -0.3670 -0.6224
18687TIP3   OH277475   1.078   3.241   5.402 -0.2219 -1.0967 -0.4800
18687TIP3    H177476   1.142   3.196   5.348 -0.1085 -0.7188 -0.6626
18687TIP3    H277477   1.081   3.333   5.373 -0.6622 -1.0255 -0.3186
18688TIP3   OH277478   0.046   2.585   4.723 -0.0016  0.3262 -0.0233
18688TIP3    H177479   0.023   2.676   4.706  1.9908  0.8744  0.0071
18688TIP3    H277480   0.067   2.549   4.637  1.4830  0.5931  0.1996
18689TIP3   OH277481   4.601   2.024  12.315 -0.0066 -0.2865  0.0649
18689TIP3    H177482   4.546   1.945  12.314 -0.3628 -0.0409 -0.5280
18689TIP3    H277483   4.636   2.030  12.226 -1.8960  1.4999 -0.6562
18690TIP3   OH277484   3.425   3.907  12.233 -0.2021  0.0502  0.0317
18690TIP3    H177485   3.475   3.958  12.169  2.5918 -1.2759  0.9877
18690TIP3    H277486   3.390   3.833  12.184  0.1470  0.1379 -0.3562
18691TIP3   OH277487   4.259   5.931  11.068 -0.0410 -0.4630 -0.7235
18691TIP3    H177488   4.321   5.914  10.997  1.2158  1.1869 -0.0733
18691TIP3    H277489   4.291   5.876  11.141  0.1638 -0.2559 -0.6556
18692TIP3   OH277490   0.392   3.798   1.343  0.3602  0.1037  0.5447
18692TIP3    H177491   0.371   3.705   1.331  2.1315 -0.2167 -0.4004
18692TIP3    H277492   0.383   3.813   1.437  1.3006 -1.3654  0.8988
18693TIP3   OH277493   6.094   2.426   1.753 -0.5827  0.4048 -0.1930
18693TIP3    H177494   6.138   2.471   1.681  1.1361 -4.3251 -2.5583
18693TIP3    H277495   6.013   2.392   1.715 -0.5437 -0.6757  0.6253
18694TIP3   OH277496   3.236   0.007   6.173 -0.0066  1.0025 -0.7092
18694TIP3    H177497   3.275   0.094   6.184  0.3070  0.7969 -0.1704
18694TIP3    H277498   3.307  -0.054   6.192 -0.9387  0.5973  1.9506
18695TIP3   OH277499   3.147   2.152   4.472  0.4669  0.0395 -0.9366
18695TIP3    H177500   3.083   2.124   4.537 -0.1186  0.2262 -1.4216
18695TIP3    H277501   3.217   2.192   4.523 -0.9585  2.1536 -0.5075
18696TIP3   OH277502   6.691   1.422  15.339 -0.1698  0.4190 -0.4389
18696TIP3    H177503   6.646   1.365  15.276  1.9102  1.3597 -2.9599
18696TIP3    H277504   6.638   1.502  15.341  0.3382  0.8446 -2.0249
18697TIP3   OH277505   1.850   3.464  13.185 -0.3561 -0.0565 -0.1723
18697TIP3    H177506   1.941   3.467  13.158 -0.7486 -0.9403 -1.6597
18697TIP3    H277507   1.807   3.532  13.133 -0.8676 -0.8519 -0.8079
18698TIP3   OH277508   0.923   6.301  11.259 -0.1314 -0.2630 -0.3126
18698TIP3    H177509   0.981   6.336  11.327 -2.2193 -0.7955  1.8849
18698TIP3    H277510   0.872   6.377  11.230 -0.7634 -0.4044  0.3784
18699TIP3   OH277511   2.930   6.409   4.531  0.2521 -0.3053  0.3323
18699TIP3    H177512   2.847   6.435   4.493 -0.5849 -1.2927  1.4098
18699TIP3    H277513   2.953   6.481   4.591 -0.9203 -0.9677  1.6236
18700TIP3   OH277514   0.908   3.274   4.778 -0.1691  0.3981 -0.3202
18700TIP3    H177515   0.992   3.308   4.811 -0.1949 -0.5089  0.7267
18700TIP3    H277516   0.846   3.290   4.849 -0.2943 -1.3103 -0.0226
18701TIP3   OH277517   0.022   1.718   5.009  0.1025 -0.0034  0.4053
18701TIP3    H177518   0.099   1.677   4.969 -0.0598  0.5284 -0.4771
18701TIP3    H277519   0.020   1.806   4.972 -0.5077  0.2369  0.9991
18702TIP3   OH277520   1.173   2.938   2.172 -0.1770  0.0512  0.3084
18702TIP3    H177521   1.226   3.014   2.198  2.2555 -1.2992 -0.4499
18702TIP3    H277522   1.168   2.884   2.251  1.4189 -0.8019 -0.1346
18703TIP3   OH277523   0.057   2.935  11.614  0.5296  0.0375  0.0858
18703TIP3    H177524  -0.033   2.968  11.618  0.4364 -0.2445  0.3119
18703TIP3    H277525   0.087   2.959  11.526 -0.0892 -0.6963 -0.3331
18704TIP3   OH277526   2.846   0.028  14.186  0.3918  0.4648 -0.4572
18704TIP3    H177527   2.940   0.007  14.179  0.1529 -1.2672  0.7143
18704TIP3    H277528   2.844   0.116  14.224  1.5700  0.1367  0.4562
18705TIP3   OH277529   0.560   6.712   2.679  0.6033  0.7872 -0.3471
18705TIP3    H177530   0.571   6.781   2.745  1.3624 -0.3464  0.7465
18705TIP3    H277531   0.553   6.631   2.730  3.0411 -0.3531 -1.6993
18706TIP3   OH277532   2.671   4.982  15.054  0.3708  0.6917  0.0031
18706TIP3    H177533   2.753   4.992  15.102  0.2178  1.1277  0.1735
18706TIP3    H277534   2.622   5.062  15.072 -0.8365 -0.2860  1.3325
18707TIP3   OH277535   5.230   5.770   4.183 -0.3419  0.4591 -0.4034
18707TIP3    H177536   5.171   5.838   4.150 -1.4982 -0.8170 -1.0780
18707TIP3    H277537   5.174   5.693   4.193  1.6483 -1.8440 -4.2836
18708TIP3   OH277538   5.857   2.735   3.787  0.5808  0.9183  0.3046
18708TIP3    H177539   5.941   2.769   3.818  0.8943  0.0429  0.4713
18708TIP3    H277540   5.799   2.740   3.863 -0.3926  4.0788 -0.5029
18709TIP3   OH277541   6.030   4.793  11.717 -0.0436 -0.1864 -0.4265
18709TIP3    H177542   6.026   4.722  11.652 -0.7200 -0.5055 -0.0461
18709TIP3    H277543   5.962   4.854  11.688  0.1314  0.0112 -0.4149
18710TIP3   OH277544   2.253   4.892  10.684  0.6344  0.2111  0.1894
18710TIP3    H177545   2.161   4.869  10.694  0.1925  1.8911  0.3157
18710TIP3    H277546   2.291   4.820  10.635 -1.0503  0.0973 -1.0261
18711TIP3   OH277547   6.705   4.964   0.846 -0.5007  0.4637 -0.0456
18711TIP3    H177548   6.752   5.045   0.866 -1.6409  0.6653  2.1326
18711TIP3    H277549   6.772   4.896   0.844  0.1712  1.0891  0.6335
18712TIP3   OH277550   2.115   5.475   1.935 -0.1209  0.4210  0.4687
18712TIP3    H177551   2.141   5.510   2.021 -0.2999 -1.5289  1.3715
18712TIP3    H277552   2.198   5.461   1.889  0.1350 -0.4785  1.1614
18713TIP3   OH277553   5.915   0.298  16.375 -0.3241  0.1700  0.3769
18713TIP3    H177554   5.967   0.350  16.314  0.7281  0.2139  1.2707
18713TIP3    H277555   5.842   0.265  16.323 -0.4955  1.7468 -0.4410
18714TIP3   OH277556   1.553   1.270  16.342 -0.5071  0.4334 -0.0779
18714TIP3    H177557   1.543   1.201  16.408  1.2842  0.7838  0.6248
18714TIP3    H277558   1.546   1.223  16.258  1.5726 -0.8509  0.3738
18715TIP3   OH277559   1.316   0.864  13.660  0.0831 -0.0052 -0.2503
18715TIP3    H177560   1.274   0.948  13.679  0.7606  0.2670  0.0640
18715TIP3    H277561   1.365   0.843  13.739  0.2867 -0.4731 -0.4992
18716TIP3   OH277562   3.338   1.612  13.093 -0.0711 -0.1353 -0.2111
18716TIP3    H177563   3.411   1.672  13.108 -0.1249 -0.0759 -0.1841
18716TIP3    H277564   3.262   1.658  13.129 -0.0851 -0.2913 -0.0384
18717TIP3   OH277565   3.120   5.809   0.952  0.0550 -0.7977  0.2865
18717TIP3    H177566   3.076   5.893   0.965  0.9655 -0.4187  1.1009
18717TIP3    H277567   3.152   5.813   0.861 -1.7827 -1.2094 -0.4160
18718TIP3   OH277568   2.570   4.964   1.963  0.1452 -0.2776 -0.2339
18718TIP3    H177569   2.493   4.952   2.019  0.0835 -0.1045 -0.2800
18718TIP3    H277570   2.569   5.058   1.941  0.7801 -0.1159  0.3649
18719TIP3   OH277571   3.061   3.879   4.878 -0.6153 -0.2613  0.2512
18719TIP3    H177572   3.089   3.962   4.839  0.3192 -0.8821 -0.4415
18719TIP3    H277573   3.139   3.848   4.925 -0.8012 -1.0018  0.0686
18720TIP3   OH277574   1.369   2.228  11.329  0.2708  0.0644 -0.1687
18720TIP3    H177575   1.337   2.207  11.417  0.8130 -0.1525 -0.0200
18720TIP3    H277576   1.461   2.251  11.342  0.4001 -0.1499 -0.7099
18721TIP3   OH277577   4.629   3.890  15.539 -0.0425  0.1998 -0.2257
18721TIP3    H177578   4.722   3.873  15.557  0.0660  0.9726 -0.0353
18721TIP3    H277579   4.627   3.918  15.447  0.2101  2.2126  0.3244
18722TIP3   OH277580   6.089   6.425  11.860  0.0720  0.4933 -0.7010
18722TIP3    H177581   6.069   6.392  11.773 -0.7774 -0.9973  0.0253
18722TIP3    H277582   6.005   6.422  11.907  0.9027 -0.6961  0.7849
18723TIP3   OH277583   1.931   1.748  14.572 -0.0697  0.2253  0.4644
18723TIP3    H177584   1.869   1.816  14.599 -0.8937 -0.7046  0.9770
18723TIP3    H277585   2.011   1.768  14.620 -0.6295  0.2536  1.4068
18724TIP3   OH277586   1.640   6.334   2.749  0.4492 -0.1865 -0.4483
18724TIP3    H177587   1.696   6.355   2.675  1.2714 -0.8933 -0.0398
18724TIP3    H277588   1.628   6.239   2.745 -0.0285 -0.1489 -0.0419
18725TIP3   OH277589   6.267   3.510  12.426 -0.2588  0.2701  0.0316
18725TIP3    H177590   6.300   3.507  12.336  1.1530  0.3494  0.5305
18725TIP3    H277591   6.259   3.603  12.446  1.4855  0.3140  0.6878
18726TIP3   OH277592   0.010   5.265   3.369  0.3142 -0.1469  0.2352
18726TIP3    H177593  -0.054   5.336   3.362  1.9082  1.2950 -0.4788
18726TIP3    H277594   0.055   5.282   3.452 -0.7908 -1.6970  1.1996
18727TIP3   OH277595   5.698   5.866  16.067 -0.1236  0.4780 -0.5579
18727TIP3    H177596   5.774   5.880  16.123 -1.8180 -3.3066  3.2126
18727TIP3    H277597   5.629   5.921  16.107 -0.7932 -0.5871 -0.2035
18728TIP3   OH277598   0.886   5.310  14.374  0.0055  0.0356  0.3747
18728TIP3    H177599   0.902   5.373  14.304  0.2175 -0.1319  0.2709
18728TIP3    H277600   0.791   5.311  14.386 -0.3183 -1.7008 -1.5973
18729TIP3   OH277601   0.421   0.111   0.357 -0.1766 -0.1784  0.6477
18729TIP3    H177602   0.389   0.140   0.272 -2.1766  2.1727  2.0485
18729TIP3    H277603   0.457   0.024   0.341 -0.4809  0.1560 -2.5525
18730TIP3   OH277604   2.508   6.233   4.869 -0.0952  0.0593  0.4566
18730TIP3    H177605   2.458   6.153   4.851  0.7043 -0.7374  1.6890
18730TIP3    H277606   2.512   6.238   4.964  0.8561  0.9463  0.3842
18731TIP3   OH277607   6.679   5.648  14.216  0.1624  0.0860  0.0585
18731TIP3    H177608   6.744   5.663  14.284 -0.2422  0.3135  0.4001
18731TIP3    H277609   6.595   5.644  14.263  0.2056 -3.8398  0.1235
18732TIP3   OH277610   3.005   3.323  15.251  0.0107 -0.1134 -0.5865
18732TIP3    H177611   2.921   3.350  15.214 -0.8986  0.3000  1.5942
18732TIP3    H277612   3.043   3.264  15.185 -2.7117 -1.5690 -0.9912
18733TIP3   OH277613   6.307   0.360  13.569 -0.0327 -0.0989  0.2689
18733TIP3    H177614   6.385   0.400  13.530 -1.0865  1.5851 -0.2238
18733TIP3    H277615   6.314   0.267  13.546  0.4247  0.4721 -2.2627
18734TIP3   OH277616   1.426   6.644  15.196 -0.4167 -0.2770 -0.1423
18734TIP3    H177617   1.451   6.623  15.106  0.5416 -1.1784  0.3236
18734TIP3    H277618   1.420   6.560  15.240 -0.6749  0.1740  0.7085
18735TIP3   OH277619   0.274   0.155  13.052 -0.2881 -0.3597  0.2279
18735TIP3    H177620   0.228   0.121  13.129  0.2824  0.1396  0.7970
18735TIP3    H277621   0.228   0.236  13.030  0.2029  0.0686  0.7159
18736TIP3   OH277622   6.588   6.511   1.407 -0.0365 -0.2112  0.1913
18736TIP3    H177623   6.597   6.519   1.502 -0.8155 -0.9235  0.3362
18736TIP3    H277624   6.565   6.420   1.392 -2.0995  0.3550 -0.4718
18737TIP3   OH277625   4.020   1.115  14.988  0.7055 -0.0876  0.4842
18737TIP3    H177626   4.030   1.105  14.893 -1.4226  2.0558 -0.0531
18737TIP3    H277627   4.023   1.026  15.022  1.6801 -0.8907 -1.5630
18738TIP3   OH277628   3.429   6.193   4.616  0.2271 -0.1478 -0.1294
18738TIP3    H177629   3.426   6.278   4.659  1.6729 -0.1987  0.1185
18738TIP3    H277630   3.337   6.169   4.604 -0.2087  1.7133 -0.7688
18739TIP3   OH277631   1.964   5.659   5.500  0.1909  0.4613 -0.1336
18739TIP3    H177632   2.000   5.577   5.532  0.8275  0.4513 -0.8474
18739TIP3    H277633   1.982   5.722   5.569 -1.3744 -0.2293  0.9599
18740TIP3   OH277634   0.615   1.403   5.205  0.2931  0.1408 -0.1041
18740TIP3    H177635   0.542   1.341   5.194  0.5094 -0.5866  2.0331
18740TIP3    H277636   0.603   1.438   5.294  1.4131  1.5505 -0.4699
18741TIP3   OH277637   4.996   2.327   3.530  0.2645 -0.4465 -0.4049
18741TIP3    H177638   4.981   2.250   3.584  0.4536 -3.6425 -4.4340
18741TIP3    H277639   4.919   2.332   3.473  0.7262  1.8035 -0.9479
18742TIP3   OH277640   3.876   0.240   0.198  0.1911 -0.3804 -0.3794
18742TIP3    H177641   3.823   0.301   0.146 -0.0316  0.5040  0.8371
18742TIP3    H277642   3.957   0.230   0.148  0.0606  0.5960 -0.8118
18743TIP3   OH277643   0.580   2.358  15.188 -0.2038  0.1286 -0.1919
18743TIP3    H177644   0.595   2.273  15.148  0.4202  0.5504 -0.8773
18743TIP3    H277645   0.551   2.338  15.278 -2.6125 -0.8657 -1.1025
18744TIP3   OH277646   0.753   6.704  12.439  0.7637  0.4151  0.1751
18744TIP3    H177647   0.661   6.695  12.464  0.6431  0.2890 -0.3135
18744TIP3    H277648   0.758   6.668  12.350  1.1981  0.8323  0.0271
18745TIP3   OH277649   0.299   5.132   5.218  0.2409  0.1848 -0.0144
18745TIP3    H177650   0.326   5.123   5.309 -0.4369  0.9336  0.2751
18745TIP3    H277651   0.232   5.064   5.207  0.7958 -0.3453 -0.1525
18746TIP3   OH277652   3.941   4.602  10.179  0.6036 -0.0443  0.5098
18746TIP3    H177653   3.853   4.617  10.146  0.6479 -0.2587  0.2950
18746TIP3    H277654   3.928   4.556  10.262  0.5686 -3.5778 -1.2894
18747TIP3   OH277655   4.807   1.278  16.475 -0.3460  0.0346 -0.1995
18747TIP3    H177656   4.808   1.303  16.567  0.2339 -1.7563  0.3388
18747TIP3    H277657   4.768   1.190  16.474  3.2124 -1.7439 -1.0710
18748TIP3   OH277658   1.449   5.616  15.752  0.2593  0.4735  0.0749
18748TIP3    H177659   1.415   5.704  15.734  0.1661  0.2898 -0.6798
18748TIP3    H277660   1.391   5.582  15.820 -1.8648 -0.2795 -1.9757
18749TIP3   OH277661   0.023   4.519   0.747 -0.4199 -0.0997  0.3626
18749TIP3    H177662  -0.016   4.445   0.795  0.7230 -0.4214  0.8491
18749TIP3    H277663  -0.011   4.511   0.658 -0.7577 -0.8877  0.5512
18750TIP3   OH277664   5.830   3.023   3.089  0.2244 -0.0019  0.1233
18750TIP3    H177665   5.740   3.001   3.065 -0.1427 -0.2357  1.6237
18750TIP3    H277666   5.884   2.977   3.025 -0.6621 -1.7594  0.5722
18751TIP3   OH277667   0.086   1.844  16.796 -0.3915  0.3114 -0.3255
18751TIP3    H177668   0.012   1.893  16.832 -0.6255 -0.3737  0.1446
18751TIP3    H277669   0.130   1.906  16.738 -2.5434  0.1323 -2.2814
18752TIP3   OH277670   4.761   0.310   5.372 -0.0222  0.2558  0.5766
18752TIP3    H177671   4.760   0.242   5.439  0.1351 -1.8779 -1.4221
18752TIP3    H277672   4.682   0.361   5.387 -1.4500 -1.8975  0.7634
18753TIP3   OH277673   1.230   6.431  10.653  0.2334  0.9618  0.2702
18753TIP3    H177674   1.201   6.398  10.568 -1.9841  0.3889  1.1844
18753TIP3    H277675   1.307   6.484  10.633 -0.1589  0.7570 -2.0715
18754TIP3   OH277676   3.738   0.865  10.773 -0.0848  0.4091  0.0226
18754TIP3    H177677   3.657   0.872  10.724 -0.4314  1.7262  0.7415
18754TIP3    H277678   3.764   0.956  10.791  0.2871 -0.0118  1.8139
18755TIP3   OH277679   3.880   0.674   2.892 -0.0686  0.0871  0.1352
18755TIP3    H177680   3.961   0.714   2.922  0.3773 -0.6863 -0.0130
18755TIP3    H277681   3.822   0.748   2.872  0.7017  0.6456 -0.0474
18756TIP3   OH277682   3.171   1.155  11.690  0.1381 -0.0208 -0.2528
18756TIP3    H177683   3.193   1.127  11.778 -0.3884  0.7287  0.1325
18756TIP3    H277684   3.229   1.229  11.673 -1.8924  1.9320  0.7503
18757TIP3   OH277685   4.277   2.728   3.204  0.0696 -0.2380  0.3394
18757TIP3    H177686   4.195   2.698   3.165 -0.0414  1.5464 -0.9281
18757TIP3    H277687   4.337   2.653   3.194 -0.7056 -0.7205 -0.9297
18758TIP3   OH277688   5.938   2.431   1.393 -0.6381  0.5279 -0.1667
18758TIP3    H177689   5.993   2.356   1.416  1.0691  1.5723 -0.7026
18758TIP3    H277690   5.939   2.433   1.297 -2.8608 -0.2725 -0.2814
18759TIP3   OH277691   1.038   1.267   1.887  0.1566  0.1772 -0.3548
18759TIP3    H177692   0.949   1.233   1.890  0.8338 -1.6885  0.2778
18759TIP3    H277693   1.048   1.315   1.968 -0.4954  1.0346 -0.7724
18760TIP3   OH277694   0.299   2.893   4.626 -0.2590  0.4820 -0.0144
18760TIP3    H177695   0.376   2.924   4.674  0.8587 -1.3595 -0.5378
18760TIP3    H277696   0.233   2.960   4.641  0.6851  0.9534  2.4362
18761TIP3   OH277697   3.163   5.571   5.590  0.1967  0.1278 -0.7200
18761TIP3    H177698   3.138   5.594   5.501 -2.0301  0.0626 -0.1711
18761TIP3    H277699   3.240   5.514   5.580  0.9677  1.4011 -2.4740
18762TIP3   OH277700   0.019   4.342   1.418  0.4643  0.1251 -0.1488
18762TIP3    H177701   0.053   4.254   1.426 -3.3720 -1.4341  1.9578
18762TIP3    H277702   0.002   4.353   1.325  0.2200 -1.7388 -0.3610
18763TIP3   OH277703   5.708   2.039  15.954  0.6081 -0.1420 -0.4406
18763TIP3    H177704   5.798   2.031  15.984  0.2081 -0.3352  0.7655
18763TIP3    H277705   5.677   2.121  15.993 -0.1198 -0.7092  0.2138
18764TIP3   OH277706   3.486   5.788   5.605 -0.3596 -0.3674  0.0137
18764TIP3    H177707   3.578   5.778   5.584 -0.2970  0.9770 -0.4145
18764TIP3    H277708   3.441   5.784   5.521 -0.6144 -0.1819  0.1409
18765TIP3   OH277709   4.699   0.856  12.000  0.4257 -0.5519 -0.4524
18765TIP3    H177710   4.669   0.843  12.091 -0.1049  0.3190 -0.4954
18765TIP3    H277711   4.656   0.786  11.951  0.4853 -0.8507 -0.0895
18766TIP3   OH277712   5.783   0.722   0.245  0.4177 -0.1445 -0.1342
18766TIP3    H177713   5.785   0.782   0.320 -0.1308  1.7365 -1.5181
18766TIP3    H277714   5.874   0.714   0.218  0.5352 -0.2380  0.2831
18767TIP3   OH277715   0.414   6.750  10.428  0.3984  0.3003 -0.6881
18767TIP3    H177716   0.453   6.768  10.343 -1.6912  1.9100 -1.4110
18767TIP3    H277717   0.412   6.836  10.471 -0.2625 -0.1517  0.2031
18768TIP3   OH277718   2.703   2.899   1.214  0.5484 -0.4275  0.6252
18768TIP3    H177719   2.619   2.896   1.169 -0.1532  0.2923  1.8463
18768TIP3    H277720   2.704   2.822   1.270  0.8301 -0.5827  0.4133
18769TIP3   OH277721   0.184   4.538  12.636 -0.0718 -0.6873 -0.5403
18769TIP3    H177722   0.255   4.481  12.668  0.5902  0.9659  1.1247
18769TIP3    H277723   0.115   4.529  12.702 -0.2818 -0.1834 -0.6880
18770TIP3   OH277724   3.254   6.029  11.426 -0.0662 -0.5481 -0.0372
18770TIP3    H177725   3.286   6.111  11.464 -0.0828 -0.6908  0.2896
18770TIP3    H277726   3.174   6.010  11.476 -0.5949 -0.2626 -0.7500
18771TIP3   OH277727   0.452   5.631  12.621 -0.4343  0.1094  0.1648
18771TIP3    H177728   0.417   5.575  12.552 -0.2454  0.1056  0.0728
18771TIP3    H277729   0.459   5.717  12.579 -0.9190  0.2529  0.3638
18772TIP3   OH277730   5.411   2.015   2.413  0.0705 -0.1555 -0.4676
18772TIP3    H177731   5.359   1.935   2.419  0.2338 -0.2802 -0.6929
18772TIP3    H277732   5.371   2.075   2.476 -0.0858 -0.3959 -0.3384
18773TIP3   OH277733   3.620   6.157   3.287 -0.2305  0.3218  0.0249
18773TIP3    H177734   3.675   6.082   3.266 -0.9941 -0.6255  1.2859
18773TIP3    H277735   3.544   6.148   3.229 -1.0027 -0.7043  1.1720
18774TIP3   OH277736   4.323   4.575  16.761  0.3429 -0.0088 -0.2944
18774TIP3    H177737   4.279   4.540  16.683  0.3633  0.0649 -0.3383
18774TIP3    H277738   4.252   4.611  16.814  0.5081  1.5402 -1.0880
18775TIP3   OH277739   1.476   1.255   1.175 -0.1241 -0.1810 -0.0330
18775TIP3    H177740   1.425   1.272   1.096 -0.0595 -1.2185 -0.3094
18775TIP3    H277741   1.418   1.281   1.247 -0.2871  0.5025 -0.3996
18776TIP3   OH277742   4.179   1.431  13.600  0.3040  0.5503  0.4769
18776TIP3    H177743   4.140   1.395  13.520 -0.8172  0.6927  0.9414
18776TIP3    H277744   4.210   1.518  13.575 -1.2301  1.1322  0.4889
18777TIP3   OH277745   2.069   3.050   3.563 -0.4191  0.1370 -0.0302
18777TIP3    H177746   1.990   2.996   3.570 -0.6147  0.4256  0.0187
18777TIP3    H277747   2.120   3.029   3.640  0.2266 -1.1175 -0.7719
18778TIP3   OH277748   2.862   5.074   2.158  0.3182 -0.0394 -0.3763
18778TIP3    H177749   2.846   4.993   2.110  1.5781  0.8636 -2.4566
18778TIP3    H277750   2.787   5.082   2.216  0.2065 -2.7300 -0.0006
18779TIP3   OH277751   6.006   2.472  14.535 -0.2076 -0.0608  0.2850
18779TIP3    H177752   6.001   2.453  14.442  2.1903 -0.2590  0.1242
18779TIP3    H277753   5.936   2.534  14.551 -0.4337  0.2659 -1.7337
18780TIP3   OH277754   5.778   2.234  12.848 -0.2182  0.4194 -0.1314
18780TIP3    H177755   5.778   2.194  12.761  1.6857 -0.0134  0.0240
18780TIP3    H277756   5.860   2.283  12.851 -0.2550  0.4134  1.4392
18781TIP3   OH277757   1.000   4.633  11.499 -0.0033 -0.3226 -0.0723
18781TIP3    H177758   0.983   4.539  11.509  1.0014 -0.3109  2.5280
18781TIP3    H277759   1.062   4.639  11.426  1.3399 -1.8845  0.8881
18782TIP3   OH277760   4.115   4.883  16.173 -0.2060 -0.3488  0.0088
18782TIP3    H177761   4.157   4.934  16.104  1.1504  1.3658  2.0003
18782TIP3    H277762   4.166   4.803  16.179  0.3753  0.0025 -0.2171
18783TIP3   OH277763   6.708   0.860   3.957  0.5605  0.3408  0.3373
18783TIP3    H177764   6.642   0.810   3.910  1.9415  0.2005 -1.5631
18783TIP3    H277765   6.772   0.795   3.986  1.6327  0.7909 -0.9094
18784TIP3   OH277766   5.726   2.097  13.893  0.0465  0.4849  0.0074
18784TIP3    H177767   5.651   2.150  13.868  0.3481  1.2105  0.5808
18784TIP3    H277768   5.735   2.112  13.987 -0.6767 -1.6641  0.4663
18785TIP3   OH277769   4.655   4.640  12.671  0.1251 -0.5207  0.5548
18785TIP3    H177770   4.681   4.640  12.763 -2.5124 -0.5182  1.3714
18785TIP3    H277771   4.709   4.709  12.631  1.0985 -0.3101  2.1385
18786TIP3   OH277772   6.500   2.973  14.846  0.5029  0.7304  0.7145
18786TIP3    H177773   6.440   2.901  14.830 -0.7093  1.6886  0.8294
18786TIP3    H277774   6.491   2.993  14.939  1.3808  0.5685  0.8485
18787TIP3   OH277775   5.782   0.678  14.149  0.6557  0.6754 -0.8078
18787TIP3    H177776   5.839   0.742  14.192 -0.1464  1.6702 -1.1811
18787TIP3    H277777   5.695   0.718  14.153 -0.0692 -0.8972 -0.0605
18788TIP3   OH277778   2.008   5.698   5.792 -0.0613 -0.1873  0.3272
18788TIP3    H177779   1.926   5.691   5.840 -0.1771 -1.6223 -0.0373
18788TIP3    H277780   2.073   5.653   5.846  0.7398  1.7246  1.0613
18789TIP3   OH277781   4.576   3.091  14.282  0.1870 -0.5469 -0.2324
18789TIP3    H177782   4.545   3.123  14.366 -0.8162  1.1798 -1.1924
18789TIP3    H277783   4.648   3.032  14.303  1.0207  1.0899  1.7596
18790TIP3   OH277784   4.136   5.841  10.582  0.4150 -0.1792  0.0789
18790TIP3    H177785   4.077   5.814  10.512  1.1285 -1.4314 -0.0699
18790TIP3    H277786   4.209   5.779  10.577  1.4237  0.9210  0.6810
18791TIP3   OH277787   3.266   4.050   2.311 -0.1265 -0.5169 -0.2088
18791TIP3    H177788   3.220   3.971   2.338 -0.5427 -0.8232 -1.7380
18791TIP3    H277789   3.223   4.121   2.358  0.2825 -1.1742  1.2191
18792TIP3   OH277790   3.041   5.393   0.380  0.2324  0.0623  0.3109
18792TIP3    H177791   3.118   5.404   0.326 -1.5954 -0.8142 -2.7205
18792TIP3    H277792   2.987   5.470   0.361 -0.7581 -0.6080  0.3274
18793TIP3   OH277793   5.531   2.211   5.412  0.3121 -0.4225 -0.2099
18793TIP3    H177794   5.596   2.147   5.381 -1.4525 -1.9232 -0.9700
18793TIP3    H277795   5.481   2.164   5.478  1.7566  1.6446  2.5959
18794TIP3   OH277796   6.356   2.132  12.435  0.3061 -0.3968  0.5073
18794TIP3    H177797   6.272   2.153  12.475 -0.4404 -0.6654 -0.8760
18794TIP3    H277798   6.411   2.104  12.509 -1.0785 -1.0841  1.3163
18795TIP3   OH277799   1.754   2.368   5.894  0.3761 -0.1034  0.0710
18795TIP3    H177800   1.660   2.385   5.898  0.6341  1.3828  0.6309
18795TIP3    H277801   1.767   2.292   5.951 -0.5334 -0.6399 -0.4120
18796TIP3   OH277802   5.475   5.185   4.828 -0.0742  0.3520 -0.5519
18796TIP3    H177803   5.397   5.222   4.788 -1.1335 -0.0623  1.0384
18796TIP3    H277804   5.547   5.210   4.769 -1.0881  2.6759 -0.8950
18797TIP3   OH277805   0.598   2.902  10.964  0.2121  0.0234 -0.5104
18797TIP3    H177806   0.551   2.860  10.892 -0.3186  2.4632 -1.6896
18797TIP3    H277807   0.662   2.959  10.921  0.2148  1.1764  0.9390
18798TIP3   OH277808   6.690   0.096  16.020 -0.2084 -0.3097 -0.2906
18798TIP3    H177809   6.758   0.156  15.990 -0.4973 -0.4556 -1.2625
18798TIP3    H277810   6.610   0.148  16.022 -0.5414 -0.7372 -1.5280
18799TIP3   OH277811   6.793   3.942  13.159 -0.0246  0.6366  0.7431
18799TIP3    H177812   6.855   3.981  13.097  0.1350 -0.1320  0.4092
18799TIP3    H277813   6.724   4.008  13.168  0.0174  0.8151 -0.1561
18800TIP3   OH277814   6.643   3.298   5.060 -0.6212 -0.0250 -0.3916
18800TIP3    H177815   6.621   3.389   5.082  0.4253  0.1129  0.1441
18800TIP3    H277816   6.559   3.256   5.046 -1.1759  0.7567  0.4709
18801TIP3   OH277817   4.188   2.560   2.185 -0.1925 -0.3894  0.0202
18801TIP3    H177818   4.282   2.548   2.196  0.2429 -0.7398 -3.1423
18801TIP3    H277819   4.149   2.479   2.219  0.6239 -0.3260  1.1568
18802TIP3   OH277820   2.634   2.797   5.255 -0.0741  0.2199 -0.2236
18802TIP3    H177821   2.628   2.708   5.289  1.1648 -0.4889 -1.7239
18802TIP3    H277822   2.728   2.810   5.240 -0.4884  0.4904 -3.1833
18803TIP3   OH277823   2.243   6.275  13.209  0.8937  0.6223 -0.2432
18803TIP3    H177824   2.248   6.316  13.123  1.4545  0.7113 -0.1679
18803TIP3    H277825   2.267   6.184  13.194  0.9798  0.6350 -0.1774
18804TIP3   OH277826   6.738   0.228  11.600 -0.3693  0.8490  0.0398
18804TIP3    H177827   6.717   0.138  11.576  3.3954  0.1064 -1.3332
18804TIP3    H277828   6.679   0.249  11.672 -3.5892 -1.4993 -1.6525
18805TIP3   OH277829   6.504   3.598  16.761 -0.4991  0.1097 -0.1856
18805TIP3    H177830   6.525   3.684  16.724 -0.8374 -0.2960 -1.3755
18805TIP3    H277831   6.589   3.555  16.772 -0.3865  0.2545 -0.4723
18806TIP3   OH277832   1.406   6.227   2.994  0.0920 -0.1824  0.5327
18806TIP3    H177833   1.432   6.175   3.070 -0.2334 -1.0990  0.0429
18806TIP3    H277834   1.445   6.180   2.920 -0.3431  0.1877  0.0656
18807TIP3   OH277835   2.152   5.802   1.230 -0.5095 -0.0190 -0.3748
18807TIP3    H177836   2.248   5.807   1.232 -0.5641  1.4036 -0.3192
18807TIP3    H277837   2.123   5.893   1.234 -1.9016 -0.4841  0.9342
18808TIP3   OH277838   3.624   2.094  13.116 -0.0484 -0.2412  0.3553
18808TIP3    H177839   3.622   2.189  13.129 -1.4218 -0.4857  2.3739
18808TIP3    H277840   3.640   2.083  13.022 -0.1307  1.9817  0.0234
18809TIP3   OH277841   2.625   6.552   6.177 -0.5562  0.1943 -0.2699
18809TIP3    H177842   2.568   6.528   6.104  0.5015  0.4212 -1.2057
18809TIP3    H277843   2.612   6.646   6.188 -0.9050  0.1158  0.0122
18810TIP3   OH277844   6.124   5.924   2.277 -0.5810 -0.0194 -0.3070
18810TIP3    H177845   6.136   5.926   2.182  0.3019 -2.5453 -0.3284
18810TIP3    H277846   6.210   5.902   2.312 -1.1763 -0.3962  0.9788
18811TIP3   OH277847   2.671   5.072  15.909  0.3585 -0.0793 -0.1463
18811TIP3    H177848   2.641   5.044  15.995  0.1672  1.1330  0.1971
18811TIP3    H277849   2.766   5.067  15.913  0.3704  0.5048  0.3259
18812TIP3   OH277850   0.534   0.413   4.035  0.7009  0.3268 -0.2680
18812TIP3    H177851   0.614   0.361   4.031 -0.1762 -1.0381 -0.9050
18812TIP3    H277852   0.490   0.394   3.952 -0.8564  0.0947  0.5934
18813TIP3   OH277853   2.493   3.754   1.696  0.2026 -0.3927  0.4056
18813TIP3    H177854   2.533   3.814   1.634 -0.0938  0.5997  1.1491
18813TIP3    H277855   2.544   3.673   1.687 -0.5864 -0.7063 -1.9752
18814TIP3   OH277856   2.261   2.468   0.631  0.0066 -0.0836  0.1444
18814TIP3    H177857   2.270   2.545   0.574 -1.8846 -1.1718 -1.7471
18814TIP3    H277858   2.168   2.465   0.652  0.4636 -0.4343  2.3757
18815TIP3   OH277859   4.404   0.334  11.843 -0.0504  0.1078  0.0577
18815TIP3    H177860   4.479   0.275  11.836 -2.3186 -2.8851 -0.9081
18815TIP3    H277861   4.380   0.331  11.935 -0.2489 -0.6428 -0.0129
18816TIP3   OH277862   4.200   4.004  14.524 -0.1125  0.1836  0.4004
18816TIP3    H177863   4.205   3.912  14.500 -1.7167  0.6287 -2.0455
18816TIP3    H277864   4.290   4.036  14.520  0.4034 -1.1687  0.8933
18817TIP3   OH277865   4.122   1.722   0.599 -0.0134  0.0602 -0.5550
18817TIP3    H177866   4.150   1.672   0.676  1.0286  1.6005  0.1170
18817TIP3    H277867   4.052   1.778   0.631  0.5090  0.7993 -0.6665
18818TIP3   OH277868   5.867   0.588   2.736 -0.1085 -0.0818 -0.1740
18818TIP3    H177869   5.873   0.681   2.716  3.2840 -0.1485  0.0314
18818TIP3    H277870   5.912   0.578   2.820 -1.0041 -1.8476  0.1552
18819TIP3   OH277871   6.522   6.484  10.875  0.2530  0.3400 -0.0570
18819TIP3    H177872   6.439   6.437  10.865 -0.7681  1.9210  0.6299
18819TIP3    H277873   6.499   6.576  10.864  1.4772  1.0359  2.4312
18820TIP3   OH277874   1.130   3.903   3.143 -0.6335  0.0108 -0.2594
18820TIP3    H177875   1.079   3.881   3.221 -3.5618  1.7467 -1.5215
18820TIP3    H277876   1.175   3.985   3.165 -1.8975  0.7945 -0.5284
18821TIP3   OH277877   5.781   2.281   3.155  0.1155 -0.4244 -0.2925
18821TIP3    H177878   5.797   2.315   3.067 -2.1655 -0.9522 -0.9719
18821TIP3    H277879   5.832   2.339   3.213  1.1870  0.2894 -1.8966
18822TIP3   OH277880   0.757   3.024  15.910 -0.0593 -0.2337  0.2078
18822TIP3    H177881   0.848   3.006  15.936  0.2851 -0.4389 -1.1027
18822TIP3    H277882   0.708   2.947  15.939  0.4381 -0.7708 -0.3658
18823TIP3   OH277883   0.584   0.501   0.738  0.0153 -0.2702  0.2831
18823TIP3    H177884   0.614   0.577   0.688  0.6120 -0.8958 -0.3153
18823TIP3    H277885   0.569   0.433   0.672  0.1791 -0.9014  0.8871
18824TIP3   OH277886   5.889   2.798   0.807 -0.1903  0.4525 -0.3331
18824TIP3    H177887   5.814   2.816   0.864 -0.0318 -0.9450  0.3776
18824TIP3    H277888   5.852   2.744   0.736 -0.2858  1.7508 -1.3090
18825TIP3   OH277889   3.887   4.854   0.275  0.3015 -0.3615  0.2071
18825TIP3    H177890   3.927   4.938   0.254  0.2253 -0.1481  0.8953
18825TIP3    H277891   3.822   4.874   0.342  0.6883 -1.0465  0.8117
18826TIP3   OH277892   2.755   4.051   3.896  0.0257 -0.2646 -0.5955
18826TIP3    H177893   2.720   3.984   3.954 -1.1555 -0.2024 -1.2166
18826TIP3    H277894   2.809   4.003   3.833 -0.0921 -0.5220 -0.4994
18827TIP3   OH277895   1.601   0.409   1.072  0.7841 -1.2637 -0.0473
18827TIP3    H177896   1.582   0.316   1.058  2.6287 -1.6368 -0.3033
18827TIP3    H277897   1.521   0.444   1.110 -0.6608 -2.5222 -1.7486
18828TIP3   OH277898   3.630   5.381   1.277 -0.5780  0.0413 -0.6131
18828TIP3    H177899   3.668   5.459   1.317 -1.0495  0.2807 -0.6353
18828TIP3    H277900   3.667   5.379   1.189  0.1609 -0.2763 -0.3153
18829TIP3   OH277901   2.515   5.685  13.532  0.2334  0.1156  0.4635
18829TIP3    H177902   2.540   5.647  13.616  1.4360  1.3117  0.6831
18829TIP3    H277903   2.567   5.636  13.467  1.5107  1.1053  0.7102
18830TIP3   OH277904   0.249   5.927  10.578 -0.1194  0.0348  0.7006
18830TIP3    H177905   0.225   6.006  10.626 -0.4038 -0.1086  0.7925
18830TIP3    H277906   0.172   5.905  10.526 -0.9512 -1.5641  2.5027
18831TIP3   OH277907   3.667   4.579   1.981 -0.3445  0.2320 -0.3442
18831TIP3    H177908   3.629   4.544   1.900  2.8628 -1.1048 -1.4565
18831TIP3    H277909   3.643   4.672   1.980 -0.5272  0.2393 -2.7910
18832TIP3   OH277910   6.598   1.707   4.630  0.3223  0.1145  0.0381
18832TIP3    H177911   6.672   1.647   4.630 -1.0185 -1.6034 -0.7506
18832TIP3    H277912   6.521   1.652   4.618 -1.1907  1.7581  1.5726
18833TIP3   OH277913   6.730   5.481   3.644 -0.1234 -0.4288  0.7183
18833TIP3    H177914   6.638   5.475   3.669  0.0015 -2.0187  0.8878
18833TIP3    H277915   6.728   5.520   3.556 -1.0857 -1.9676  0.0200
18834TIP3   OH277916   0.995   4.861   0.540  0.1809  0.6063 -0.0036
18834TIP3    H177917   0.994   4.773   0.576  1.4058  0.0091 -1.3506
18834TIP3    H277918   1.032   4.916   0.610  1.8860 -0.4014 -0.0734
18835TIP3   OH277919   6.268   3.336  10.676 -0.0816  0.0663 -0.1396
18835TIP3    H177920   6.205   3.265  10.663  1.1188 -0.8576 -1.1729
18835TIP3    H277921   6.321   3.335  10.596  0.7579  1.3216  0.3762
18836TIP3   OH277922   0.508   6.217   1.780 -0.0554  0.2179  0.6862
18836TIP3    H177923   0.472   6.153   1.842 -1.6323  0.4349  0.0543
18836TIP3    H277924   0.594   6.183   1.757  0.3671 -0.1166  2.6099
18837TIP3   OH277925   0.522   5.810   6.144 -0.2185  0.2508 -0.3090
18837TIP3    H177926   0.580   5.821   6.070 -0.8302  0.3765 -0.7794
18837TIP3    H277927   0.442   5.772   6.107 -0.5825  0.4417  0.2587
18838TIP3   OH277928   6.609   3.455   3.571  0.4291 -0.3569  0.1232
18838TIP3    H177929   6.586   3.542   3.536  0.4994 -1.4357 -2.8725
18838TIP3    H277930   6.525   3.410   3.579  0.6115 -0.9255 -1.0508
18839TIP3   OH277931   5.625   4.054  15.423 -0.0316 -0.5514  0.2409
18839TIP3    H177932   5.691   4.065  15.355 -0.7204  0.3267 -0.3137
18839TIP3    H277933   5.550   4.106  15.393 -0.1838  0.2777  1.9049
18840TIP3   OH277934   0.416   0.638   4.485 -0.1057  0.7268 -0.0038
18840TIP3    H177935   0.371   0.570   4.536  0.4972  0.4423  0.1661
18840TIP3    H277936   0.489   0.591   4.444  1.5486  1.6468  1.7330
18841TIP3   OH277937   2.416   0.013   4.531 -0.2638  0.7208  0.2094
18841TIP3    H177938   2.412   0.100   4.491 -0.4749  1.0014  0.8195
18841TIP3    H277939   2.414   0.030   4.625  1.4806  0.1489  0.3797
18842TIP3   OH277940   2.255   4.665  13.990 -0.0497  0.5474  0.1998
18842TIP3    H177941   2.159   4.667  13.987 -0.0246  0.5270 -1.7654
18842TIP3    H277942   2.282   4.714  13.912  1.4828 -2.3509 -1.2636
18843TIP3   OH277943   6.318   3.901   5.358 -0.4298 -0.0337  0.2321
18843TIP3    H177944   6.298   3.807   5.354  2.1419 -0.6787  0.6418
18843TIP3    H277945   6.324   3.928   5.267  2.2519 -1.1575  0.0039
18844TIP3   OH277946   1.059   2.825  14.873 -0.6448 -0.0354 -0.4450
18844TIP3    H177947   1.015   2.740  14.870 -0.1110 -0.4803  1.8970
18844TIP3    H277948   0.988   2.888  14.885 -0.8618 -0.5039  0.9254
18845TIP3   OH277949   0.265   2.457  15.285 -0.1762 -0.7779 -0.1866
18845TIP3    H177950   0.206   2.443  15.359 -0.3695 -2.0416 -0.5550
18845TIP3    H277951   0.326   2.383  15.289 -0.1407 -0.8219 -1.2244
18846TIP3   OH277952   1.677   0.649   5.130  0.1262 -0.8935  0.1223
18846TIP3    H177953   1.597   0.638   5.079  0.6200 -1.1876 -0.5926
18846TIP3    H277954   1.721   0.564   5.126  0.8523 -0.5170 -0.1467
18847TIP3   OH277955   1.563   2.607  13.145 -0.6963  0.2361 -0.4604
18847TIP3    H177956   1.560   2.676  13.211 -2.4982  0.5819 -0.8475
18847TIP3    H277957   1.544   2.526  13.192  2.0744 -0.1894  0.1161
18848TIP3   OH277958   6.164   0.578  12.751  0.2787  0.7828  0.0863
18848TIP3    H177959   6.158   0.602  12.659 -0.7636  0.3576  0.0221
18848TIP3    H277960   6.159   0.661  12.799  2.7596  1.2000 -0.2519
18849TIP3   OH277961   2.845   3.070   4.966  0.3488  0.1389 -0.2448
18849TIP3    H177962   2.916   3.007   4.977 -0.0770 -0.3576 -0.3037
18849TIP3    H277963   2.831   3.073   4.871  0.4024  0.3579 -0.2453
18850TIP3   OH277964   3.854   3.313  16.157 -0.3237  0.5309 -0.1899
18850TIP3    H177965   3.864   3.373  16.084 -0.3633  1.8805  0.8845
18850TIP3    H277966   3.838   3.369  16.233 -2.7209 -0.9120  0.4716
18851TIP3   OH277967   5.543   3.641  16.654  0.5154 -0.7983 -0.0850
18851TIP3    H177968   5.582   3.729  16.651 -0.9953 -0.0830  0.1332
18851TIP3    H277969   5.580   3.596  16.579 -0.1462  0.6966 -1.3635
18852TIP3   OH277970   5.395   4.391  11.650 -0.2276  0.5498  0.3515
18852TIP3    H177971   5.347   4.341  11.584 -0.3464 -0.2293  1.0300
18852TIP3    H277972   5.405   4.478  11.610 -1.8576  0.6206  0.0394
18853TIP3   OH277973   6.146   0.047   6.031  0.1318  0.5626  0.4244
18853TIP3    H177974   6.098   0.051   5.949  1.1816 -0.6302 -0.2983
18853TIP3    H277975   6.146  -0.046   6.054  0.7329  0.7461  1.2338
18854TIP3   OH277976   1.349   6.113  14.398  0.1616 -0.4173 -0.0538
18854TIP3    H177977   1.363   6.114  14.304 -1.5137  0.5179 -0.3400
18854TIP3    H277978   1.265   6.157  14.410 -0.5585 -2.1335  1.7275
18855TIP3   OH277979   3.255   6.645  12.803 -0.0829  0.4634  0.4139
18855TIP3    H177980   3.273   6.739  12.798 -1.0019  0.5918 -2.4613
18855TIP3    H277981   3.226   6.621  12.715 -0.9246 -2.3230  1.3214
18856TIP3   OH277982   2.741   0.293   3.691 -0.1116 -0.4169 -0.0004
18856TIP3    H177983   2.723   0.220   3.751 -0.9064  0.3435  0.7194
18856TIP3    H277984   2.836   0.299   3.688 -0.0340  0.1874  2.0628
18857TIP3   OH277985   5.631   2.522  13.881 -0.0441  0.0391  0.2164
18857TIP3    H177986   5.691   2.454  13.911  0.0512  0.0384  0.0188
18857TIP3    H277987   5.651   2.534  13.789 -0.6971 -0.3204  0.0221
18858TIP3   OH277988   6.099   4.011   3.251 -0.7096 -0.0903  0.1452
18858TIP3    H177989   6.118   4.037   3.161 -0.1885  0.8702  0.5182
18858TIP3    H277990   6.005   3.993   3.252 -0.5515 -1.0336 -0.8011
18859TIP3   OH277991   2.882   3.645  11.861 -0.3850  0.1923 -0.1167
18859TIP3    H177992   2.953   3.673  11.918 -0.3611 -2.0958  1.1115
18859TIP3    H277993   2.925   3.604  11.786 -0.3832 -0.4752  0.2401
18860TIP3   OH277994   0.502   4.752  12.360  0.6890 -0.1850  0.1527
18860TIP3    H177995   0.427   4.742  12.418  0.1669 -1.6504 -0.7359
18860TIP3    H277996   0.466   4.793  12.282  1.1602  0.6475  0.3554
18861TIP3   OH277997   3.650   2.656  11.496 -0.3740 -0.0290 -0.3603
18861TIP3    H177998   3.559   2.677  11.515 -0.0604  0.8152  0.2744
18861TIP3    H277999   3.684   2.734  11.452 -0.2914 -0.8297 -1.7784
18862TIP3   OH278000   1.480   1.151  12.975  0.1977  0.2511 -0.2210
18862TIP3    H178001   1.543   1.125  12.908  0.4331 -0.3757  0.2286
18862TIP3    H278002   1.519   1.228  13.016 -1.5368  2.8204 -3.0377
18863TIP3   OH278003   2.842   1.375  13.438  0.2432 -0.5274 -0.7262
18863TIP3    H178004   2.850   1.470  13.423 -1.7009 -0.2416 -0.2541
18863TIP3    H278005   2.786   1.344  13.367 -1.6778 -0.7196  0.7726
18864TIP3   OH278006   4.607   5.091   5.782 -0.3035 -0.1931  0.0791
18864TIP3    H178007   4.554   5.108   5.860 -0.5975  0.5911 -0.2838
18864TIP3    H278008   4.677   5.156   5.786  0.1982 -0.7228  0.1444
18865TIP3   OH278009   6.798   1.328   1.713 -0.2442  0.1735  0.2601
18865TIP3    H178010   6.800   1.395   1.782  0.1689  2.9462 -2.2209
18865TIP3    H278011   6.706   1.321   1.690 -0.2020  0.4880 -0.0082
18866TIP3   OH278012   6.631   2.376   2.898  0.2824 -0.1393 -0.4861
18866TIP3    H178013   6.636   2.466   2.869  1.0823 -0.2185 -0.6207
18866TIP3    H278014   6.561   2.375   2.963 -0.5036  0.3367 -1.3189
18867TIP3   OH278015   5.501   4.527  13.455  0.1480 -0.9674  0.4254
18867TIP3    H178016   5.577   4.530  13.513  0.1470  2.6353  0.4819
18867TIP3    H278017   5.453   4.608  13.473 -1.4913 -1.1081 -2.5047
18868TIP3   OH278018   4.916   2.740  13.784  0.7705  0.2338 -0.4407
18868TIP3    H178019   4.882   2.812  13.731 -0.8640  0.7819  1.2520
18868TIP3    H278020   4.839   2.698  13.821  1.7377 -1.8296 -0.5927
18869TIP3   OH278021   4.672   0.261   2.489  1.1755 -0.3642  0.0585
18869TIP3    H178022   4.735   0.305   2.546  0.6245  1.3760 -0.5942
18869TIP3    H278023   4.699   0.286   2.400  0.0893 -0.2733 -0.2638
18870TIP3   OH278024   3.013   2.062   0.108  0.2489 -0.2099  0.2582
18870TIP3    H178025   3.073   2.037   0.178 -0.5857 -0.1540  1.0181
18870TIP3    H278026   3.062   2.124   0.054  1.2918 -1.1354  0.1276
18871TIP3   OH278027   3.257   6.647  12.528  0.1766  0.0849 -0.5882
18871TIP3    H178028   3.290   6.731  12.496  0.2755  0.3272  0.1415
18871TIP3    H278029   3.260   6.590  12.451  0.8344  0.5308 -0.9024
18872TIP3   OH278030   0.341   2.957   2.553  0.3206 -0.3089  0.0108
18872TIP3    H178031   0.339   2.869   2.591 -0.8477 -1.2665 -2.0717
18872TIP3    H278032   0.398   2.947   2.476 -1.2463  0.2658 -1.2649
18873TIP3   OH278033   3.590   3.841  10.461 -0.0660  0.4492  0.7460
18873TIP3    H178034   3.556   3.930  10.451  0.0865  0.3825 -0.4974
18873TIP3    H278035   3.533   3.801  10.527 -0.8913  1.0944  0.4470
18874TIP3   OH278036   4.886   4.431   2.600  0.0455 -0.4216  0.0479
18874TIP3    H178037   4.951   4.396   2.660 -0.3909 -0.6444  0.4016
18874TIP3    H278038   4.804   4.428   2.649 -0.5892 -1.9587 -1.0359
18875TIP3   OH278039   4.203   3.488   6.150  0.2925 -0.8553 -0.0188
18875TIP3    H178040   4.161   3.462   6.232 -3.0180  1.7741 -0.6766
18875TIP3    H278041   4.165   3.430   6.084  0.6099 -0.9391 -0.1312
18876TIP3   OH278042   6.071   4.547   1.962 -0.2020 -0.2347  0.2624
18876TIP3    H178043   6.021   4.617   1.920 -2.3455 -0.1632  2.6401
18876TIP3    H278044   6.156   4.586   1.981 -0.0529  0.4849 -1.7102
18877TIP3   OH278045   4.859   0.083   4.288  0.2237  0.1800 -0.0702
18877TIP3    H178046   4.893   0.154   4.233  0.8437 -0.3641 -0.3985
18877TIP3    H278047   4.870   0.004   4.236 -2.1518  0.0226 -0.4736
18878TIP3   OH278048   6.293   1.144  13.302 -0.5398 -0.1263 -0.3202
18878TIP3    H178049   6.275   1.224  13.352 -0.4556 -0.6856  0.6250
18878TIP3    H278050   6.386   1.151  13.279 -0.7434  0.4541 -1.0042
18879TIP3   OH278051   2.556   1.282  13.970 -0.3018  0.4119  0.5847
18879TIP3    H178052   2.523   1.364  13.933  2.4056  1.1630 -0.4431
18879TIP3    H278053   2.518   1.279  14.058 -3.4633  0.7870 -0.6325
18880TIP3   OH278054   3.296   1.879   6.261 -0.2793 -0.1436  0.3896
18880TIP3    H178055   3.381   1.843   6.284 -0.0880 -0.4512 -0.7491
18880TIP3    H278056   3.295   1.880   6.166 -1.9029 -1.0075  0.3603
18881TIP3   OH278057   4.199   1.802   3.495 -0.1172  0.2867 -0.2053
18881TIP3    H178058   4.275   1.744   3.490 -1.0414 -1.0211  0.5162
18881TIP3    H278059   4.206   1.844   3.581 -0.0600  0.4061 -0.2668
18882TIP3   OH278060   3.153   3.167  12.621  0.3248 -0.0118 -0.0029
18882TIP3    H178061   3.075   3.184  12.569 -0.1434  1.8983  1.2122
18882TIP3    H278062   3.182   3.080  12.594 -1.0824  0.0574 -1.8885
18883TIP3   OH278063   3.565   1.639   5.845 -0.0906  0.1313  0.1897
18883TIP3    H178064   3.535   1.726   5.870  1.3287  0.6786  0.1166
18883TIP3    H278065   3.574   1.591   5.928  2.2055  1.1324  0.5983
18884TIP3   OH278066   1.909   0.597   4.645  0.0492 -0.4268  0.3506
18884TIP3    H178067   1.855   0.518   4.652 -0.3131 -0.1965  0.1742
18884TIP3    H278068   1.893   0.644   4.727  0.3393 -0.5781  0.4981
18885TIP3   OH278069   1.946   0.837   3.030  0.2952  0.1808 -0.2074
18885TIP3    H178070   1.870   0.893   3.045 -0.0615 -0.1600 -0.7651
18885TIP3    H278071   2.020   0.898   3.032 -0.1544  0.8070 -1.5904
18886TIP3   OH278072   0.688   0.390   9.957  0.1531 -0.0350  0.6023
18886TIP3    H178073   0.743   0.337   9.900 -0.7183 -0.6605  0.3027
18886TIP3    H278074   0.728   0.476   9.957 -1.2387  0.8401 -3.1805
18887TIP3   OH278075   0.794   1.655   5.297 -0.6095 -0.1393 -0.6838
18887TIP3    H178076   0.726   1.631   5.361 -0.6160  1.3897 -0.0702
18887TIP3    H278077   0.862   1.589   5.308 -0.1504  0.6314  1.6514
18888TIP3   OH278078   2.577   1.683  11.626 -0.5823 -0.3502 -0.2243
18888TIP3    H178079   2.602   1.596  11.595 -0.7171 -0.3160 -0.4300
18888TIP3    H278080   2.532   1.723  11.551 -1.4055 -0.4738  0.1978
18889TIP3   OH278081   0.476   3.578   2.902  0.2169 -0.3890  0.1931
18889TIP3    H178082   0.522   3.541   2.978 -1.2874 -1.6439  0.5361
18889TIP3    H278083   0.387   3.593   2.933 -0.8027 -2.1433 -1.6266
18890TIP3   OH278084   5.932   0.943   4.305 -0.9075 -0.1231 -0.7753
18890TIP3    H178085   5.908   1.025   4.347 -2.1491 -1.0840  0.5187
18890TIP3    H278086   5.870   0.933   4.233 -3.5628 -1.7198  1.4605
18891TIP3   OH278087   0.059   5.069   1.121 -0.4156  0.2689  0.1618
18891TIP3    H178088   0.133   5.097   1.174 -0.1028  0.3443 -0.3085
18891TIP3    H278089   0.062   5.126   1.043  0.0088 -0.8119 -0.6305
18892TIP3   OH278090   2.245   6.654   5.963  1.1367 -0.2326  0.6287
18892TIP3    H178091   2.171   6.595   5.972  0.8508  0.1539  0.8208
18892TIP3    H278092   2.322   6.597   5.968  0.8576 -0.6208  0.5195
18893TIP3   OH278093   2.464   0.943  16.761  0.1751 -0.2386 -0.7412
18893TIP3    H178094   2.544   0.984  16.794  0.6095 -1.2782 -0.4924
18893TIP3    H278095   2.427   0.898  16.837 -0.7128  0.3075 -0.8305
18894TIP3   OH278096   6.529   0.523   2.298 -0.4875 -0.2295  0.6325
18894TIP3    H178097   6.562   0.563   2.378  0.9731 -0.0161 -0.0487
18894TIP3    H278098   6.545   0.430   2.308 -2.8480 -0.6066  1.7263
18895TIP3   OH278099   0.795   3.960  15.986 -0.2807 -0.2326 -0.0196
18895TIP3    H178100   0.865   3.900  15.961 -2.1272 -2.1147 -0.9785
18895TIP3    H278101   0.779   3.941  16.078 -0.7648 -1.1693 -0.2842
18896TIP3   OH278102   5.763   4.950   2.394 -0.1196 -0.0723 -0.4852
18896TIP3    H178103   5.721   4.979   2.475 -0.1608 -0.0259 -0.5226
18896TIP3    H278104   5.790   4.860   2.411 -1.7739 -0.7119 -1.0444
18897TIP3   OH278105   2.124   1.179   0.063  1.0427  0.0705  0.2762
18897TIP3    H178106   2.063   1.234   0.014  0.3223 -0.3629  0.6544
18897TIP3    H278107   2.089   1.090   0.052  3.3965 -0.6559 -2.1641
18898TIP3   OH278108   3.927   0.833   3.790  0.1133 -0.4812  0.3809
18898TIP3    H178109   3.895   0.853   3.879  1.4475  0.1762  0.7429
18898TIP3    H278110   3.864   0.874   3.732  0.7327  1.5820  1.0890
18899TIP3   OH278111   5.819   6.616  13.841  0.2739  0.2672 -0.3681
18899TIP3    H178112   5.806   6.532  13.885  1.0912  1.2979  1.9986
18899TIP3    H278113   5.731   6.653  13.833 -0.0381 -0.5782 -0.9765
18900TIP3   OH278114   3.780   1.444   1.495 -0.2864 -0.2562  0.3553
18900TIP3    H178115   3.830   1.526   1.499 -2.6120  1.3046 -0.3411
18900TIP3    H278116   3.776   1.414   1.585 -1.5974  1.9164  1.1165
18901TIP3   OH278117   0.826   6.088   4.621 -0.2133  0.2929  0.2828
18901TIP3    H178118   0.919   6.070   4.629 -0.2177  0.2512  0.2445
18901TIP3    H278119   0.800   6.047   4.538 -0.3435 -0.0356  0.4813
18902TIP3   OH278120   1.673   1.361   5.505  0.3410 -0.5918 -0.1419
18902TIP3    H178121   1.608   1.411   5.556  2.3776  1.5330  0.5285
18902TIP3    H278122   1.635   1.273   5.499 -1.6498  0.0074  1.9543
18903TIP3   OH278123   3.172   2.577  16.877  0.3679 -0.8807 -0.0556
18903TIP3    H178124   3.257   2.569  16.833  0.2767 -0.6920 -0.2667
18903TIP3    H278125   3.153   2.671  16.875  0.2662 -0.8944  0.2069
18904TIP3   OH278126   6.369   1.779  10.136  0.0411  0.0635  0.1092
18904TIP3    H178127   6.307   1.767  10.208  0.9563  0.4298  0.9815
18904TIP3    H278128   6.315   1.776  10.057 -1.2987  1.7312  0.8904
18905TIP3   OH278129   2.838   5.790   4.443 -0.0373  0.1634  0.1145
18905TIP3    H178130   2.863   5.801   4.534  0.3972  0.8492 -0.0722
18905TIP3    H278131   2.774   5.860   4.427  0.7056  0.7514 -0.3826
18906TIP3   OH278132   2.987   6.543  11.293  0.5653 -0.4375 -0.0313
18906TIP3    H178133   3.024   6.502  11.372  0.0224 -0.9300 -0.0229
18906TIP3    H278134   2.897   6.563  11.317  0.6353  0.1690 -0.2593
18907TIP3   OH278135   3.933   3.293  14.535  0.0210  0.2049 -0.2258
18907TIP3    H178136   3.883   3.211  14.531  1.4445 -0.6693 -0.7783
18907TIP3    H278137   4.008   3.272  14.590 -0.2242  1.5229  0.6574
18908TIP3   OH278138   6.550   1.099   0.978  0.5047  0.3015 -0.1596
18908TIP3    H178139   6.492   1.155   0.927 -0.9608 -0.6590  0.3770
18908TIP3    H278140   6.637   1.116   0.943 -0.2395  0.8810 -1.8416
18909TIP3   OH278141   6.567   0.529   4.755  0.1112 -0.5219 -0.2550
18909TIP3    H178142   6.514   0.562   4.683 -0.4756 -1.4941 -0.2867
18909TIP3    H278143   6.646   0.495   4.713 -0.1598 -0.9416 -0.4299
18910TIP3   OH278144   1.862   4.700   3.684  0.6342 -0.2677  0.2395
18910TIP3    H178145   1.831   4.610   3.681 -0.6387  0.0607  1.8588
18910TIP3    H278146   1.933   4.699   3.748  0.9033 -0.2035 -0.0582
18911TIP3   OH278147   1.107   5.246   3.039 -0.0080 -0.0818  0.4119
18911TIP3    H178148   1.036   5.288   3.086  0.9715  3.1323 -0.7473
18911TIP3    H278149   1.180   5.307   3.044  1.7331 -1.8970 -0.9844
18912TIP3   OH278150   3.564   6.030   2.459  0.6879 -0.4685 -0.4386
18912TIP3    H178151   3.481   6.003   2.420  0.9123 -0.8491 -0.6574
18912TIP3    H278152   3.541   6.105   2.514  0.3540  0.0199 -1.2376
18913TIP3   OH278153   0.617   3.402  14.800 -0.0535 -0.3334 -0.0021
18913TIP3    H178154   0.597   3.463  14.729  0.1125  0.2443  0.4329
18913TIP3    H278155   0.548   3.337  14.797 -1.4636  1.0626  0.8533
18914TIP3   OH278156   4.297   3.396   4.633 -0.1695  0.2125 -0.3901
18914TIP3    H178157   4.296   3.485   4.668  1.7138 -0.3769  1.3521
18914TIP3    H278158   4.261   3.342   4.704 -1.9294 -0.4010 -1.6734
18915TIP3   OH278159   4.258   3.069  12.468  0.4559 -0.2488 -0.5173
18915TIP3    H178160   4.234   2.978  12.484  1.0119 -0.1445  1.0274
18915TIP3    H278161   4.190   3.101  12.408  1.1202 -2.0900 -2.3510
18916TIP3   OH278162   6.573   1.076   0.303  0.3863 -0.0440  0.1490
18916TIP3    H178163   6.568   1.096   0.210  2.8984  1.4470  0.2627
18916TIP3    H278164   6.580   0.981   0.307 -0.2518 -0.1676 -1.1239
18917TIP3   OH278165   4.181   5.682  11.554  0.6896  0.2028 -0.0444
18917TIP3    H178166   4.168   5.765  11.600 -1.7579  0.5322 -1.1840
18917TIP3    H278167   4.096   5.638  11.559  1.8957 -2.2612  0.4647
18918TIP3   OH278168   5.399   1.303   2.421 -0.3385  0.4346 -0.3231
18918TIP3    H178169   5.439   1.219   2.443  0.4059  0.8066 -0.2265
18918TIP3    H278170   5.457   1.341   2.356 -1.5962  0.1220 -1.6839
18919TIP3   OH278171   3.557   0.599   2.936  0.1481  0.3342  0.4511
18919TIP3    H178172   3.494   0.646   2.990 -1.0661  1.3079 -1.6877
18919TIP3    H278173   3.561   0.648   2.854  2.2986 -0.7718 -0.1991
18920TIP3   OH278174   6.686   3.979   0.581 -0.1587 -0.4256 -0.5377
18920TIP3    H178175   6.629   3.946   0.512 -1.4054 -1.0371  0.7241
18920TIP3    H278176   6.747   3.907   0.598  0.3661 -0.1463 -1.2171
18921TIP3   OH278177   2.641   5.585  16.989 -0.0917 -0.0733 -0.3884
18921TIP3    H178178   2.552   5.615  17.011  0.6962  1.3730  1.0636
18921TIP3    H278179   2.676   5.652  16.931  0.3428 -0.1924 -0.2692
18922TIP3   OH278180   0.492   4.877  15.853  0.0800 -0.2530 -0.1504
18922TIP3    H178181   0.415   4.827  15.825 -0.1746 -1.1604  1.9868
18922TIP3    H278182   0.469   4.968  15.834 -1.7619 -0.4570  0.8478
18923TIP3   OH278183   0.331   6.364  12.090  0.3831 -0.3191  0.3819
18923TIP3    H178184   0.415   6.318  12.080 -0.8955 -2.6999 -0.2144
18923TIP3    H278185   0.331   6.429  12.020  1.4418 -0.7748 -0.0625
18924TIP3   OH278186   5.163   4.405   3.248 -0.0286 -0.1942 -0.0554
18924TIP3    H178187   5.189   4.362   3.329  2.5215 -1.5126 -1.4603
18924TIP3    H278188   5.225   4.373   3.182 -1.2029  1.7734 -2.2820
18925TIP3   OH278189   5.347   4.456  15.275 -0.4770  0.1668  0.1857
18925TIP3    H178190   5.415   4.462  15.342 -1.7858  0.0337  1.6194
18925TIP3    H278191   5.348   4.540  15.231 -0.6998  0.9354  1.5788
18926TIP3   OH278192   1.216   3.702   4.633 -0.3616  0.2433  0.1103
18926TIP3    H178193   1.193   3.616   4.599  1.8747 -0.2638 -0.2156
18926TIP3    H278194   1.205   3.761   4.559  0.7497 -0.2225 -0.4333
18927TIP3   OH278195   3.514   2.237   2.901 -0.1020 -0.2677  0.1869
18927TIP3    H178196   3.540   2.303   2.965 -0.4272 -0.0908  0.1351
18927TIP3    H278197   3.424   2.214   2.924 -0.0733 -0.5156  0.0568
18928TIP3   OH278198   1.337   3.265  15.917  0.2695 -0.7441  0.0447
18928TIP3    H178199   1.266   3.245  15.856  2.0589 -2.0011 -1.7719
18928TIP3    H278200   1.372   3.349  15.886  0.9458 -1.2024 -0.4512
18929TIP3   OH278201   4.828   4.534   0.474  0.7047 -0.2251 -0.3225
18929TIP3    H178202   4.902   4.576   0.518 -0.0316 -1.0452  1.7799
18929TIP3    H278203   4.801   4.464   0.533 -1.6412 -0.0822 -1.1376
18930TIP3   OH278204   6.830   4.719  15.180 -0.0184  0.0053  0.0971
18930TIP3    H178205   6.838   4.663  15.103  0.3448  0.1483  0.0295
18930TIP3    H278206   6.804   4.805  15.145  0.1526  0.0719  0.1329
18931TIP3   OH278207   6.199   1.606  13.559  0.4046 -0.3357 -0.1143
18931TIP3    H178208   6.129   1.657  13.518 -0.4293  0.0270  1.6648
18931TIP3    H278209   6.241   1.667  13.620  0.9709 -1.1001  0.2817
18932TIP3   OH278210   2.187   2.064  13.877  0.1149  0.0757 -0.2576
18932TIP3    H178211   2.134   2.003  13.927  1.3920 -1.2534 -0.4310
18932TIP3    H278212   2.169   2.042  13.786  0.1940  0.3137 -0.3318
18933TIP3   OH278213   1.429   1.702   0.658 -0.1178 -0.2139  0.1588
18933TIP3    H178214   1.482   1.741   0.589  0.9180 -0.8663  0.5698
18933TIP3    H278215   1.341   1.694   0.619 -0.4039  2.4717  0.0517
18934TIP3   OH278216   1.014   4.863  11.293 -0.0134 -0.6022 -0.3300
18934TIP3    H178217   1.069   4.934  11.327  0.7062 -0.5979 -1.4399
18934TIP3    H278218   0.947   4.908  11.241  0.0009 -0.6958 -0.4297
18935TIP3   OH278219   4.170   5.649  14.326 -0.1041 -0.2345 -0.7286
18935TIP3    H178220   4.080   5.647  14.293 -0.7433  1.8489  0.6905
18935TIP3    H278221   4.221   5.687  14.255 -0.0654 -2.4097 -1.9580
18936TIP3   OH278222   6.700   1.396   3.802 -0.0571  0.8179 -0.1558
18936TIP3    H178223   6.699   1.454   3.877 -0.4740  0.6796 -0.0524
18936TIP3    H278224   6.792   1.371   3.792 -0.2093 -0.5092  1.3472
18937TIP3   OH278225   0.229   6.237  13.278 -0.0999  0.4042 -0.4372
18937TIP3    H178226   0.171   6.199  13.212 -0.2266  0.3522 -0.2951
18937TIP3    H278227   0.294   6.285  13.227  0.7674 -0.9735 -0.6898
18938TIP3   OH278228   4.814   0.086  15.211 -0.0261 -0.0248  0.3952
18938TIP3    H178229   4.805   0.173  15.172  1.0255  0.4241  1.1196
18938TIP3    H278230   4.790   0.026  15.140  2.9033  0.7073 -1.3896
18939TIP3   OH278231   6.478   4.503  11.431 -0.4050  0.1985  0.0207
18939TIP3    H178232   6.429   4.583  11.453 -1.2869  0.3232 -2.1898
18939TIP3    H278233   6.417   4.432  11.451 -0.0157  0.1112  0.9573
18940TIP3   OH278234   2.161   5.262  12.413  0.3529 -0.1253 -0.4386
18940TIP3    H178235   2.169   5.219  12.498  0.0803 -0.0194 -0.3563
18940TIP3    H278236   2.069   5.288  12.409 -0.0230 -1.4725 -1.3968
18941TIP3   OH278237   5.812   4.911  11.585  0.0106 -0.3944 -1.1805
18941TIP3    H178238   5.773   4.823  11.582 -2.6833  0.6923 -1.1574
18941TIP3    H278239   5.777   4.956  11.508 -1.1227  1.5304  0.3428
18942TIP3   OH278240   4.704   0.420   1.189 -0.0735 -0.1164 -0.8287
18942TIP3    H178241   4.687   0.331   1.220  0.4624 -0.4628 -1.4909
18942TIP3    H278242   4.633   0.438   1.128 -1.5383  0.8399  1.0682
18943TIP3   OH278243   5.199   4.562  11.261 -0.0434 -0.1792 -0.0827
18943TIP3    H178244   5.220   4.562  11.167 -0.8813 -1.0483 -0.2911
18943TIP3    H278245   5.133   4.493  11.270 -1.4783  1.2513  0.8122
18944TIP3   OH278246   0.104   1.111   4.729  0.6476  0.1488  0.4601
18944TIP3    H178247   0.096   1.073   4.642  2.4998  0.4511  0.1226
18944TIP3    H278248   0.018   1.098   4.769 -0.1827 -0.1511 -1.3321
18945TIP3   OH278249   2.301   5.060  13.061  0.4743  0.2142  0.2499
18945TIP3    H178250   2.364   5.132  13.057  0.6881  0.1112  1.2946
18945TIP3    H278251   2.221   5.095  13.022  0.9875  0.5511 -0.5212
18946TIP3   OH278252   6.563   6.363   4.074  0.2569 -0.4012  1.0935
18946TIP3    H178253   6.658   6.367   4.087  0.1588  1.7377  1.5359
18946TIP3    H278254   6.529   6.433   4.129 -1.7597 -2.1388  2.1883
18947TIP3   OH278255   3.785   5.541   2.232  0.1398  0.6167  0.6501
18947TIP3    H178256   3.804   5.529   2.139 -2.3686  0.2310  0.1059
18947TIP3    H278257   3.859   5.501   2.277  1.4863  0.9572 -1.1655
18948TIP3   OH278258   3.587   1.510   6.088 -0.3811  0.0246  0.1451
18948TIP3    H178259   3.517   1.460   6.131 -2.7836  1.4666 -1.7945
18948TIP3    H278260   3.625   1.562   6.158  0.3946 -2.4371  1.6947
18949TIP3   OH278261   2.617   6.667   1.888  0.3797 -0.0176 -0.0230
18949TIP3    H178262   2.674   6.594   1.863  0.7601  0.3060 -0.1178
18949TIP3    H278263   2.529   6.637   1.866  0.3434 -1.1074  1.4445
18950TIP3   OH278264   5.842   2.317   1.671 -0.1230 -0.3954 -0.7523
18950TIP3    H178265   5.823   2.319   1.765  1.1246 -0.7988 -0.4652
18950TIP3    H278266   5.837   2.224   1.648  1.5769 -0.5479 -0.6161
18951TIP3   OH278267   3.954   4.259   6.397  0.0267 -0.2839  0.0273
18951TIP3    H178268   3.986   4.223   6.313  0.7106  0.2354  0.0548
18951TIP3    H278269   3.992   4.201   6.463 -1.0688 -1.1069 -0.0320
18952TIP3   OH278270   3.261   4.535  11.019  0.2855 -0.0793 -0.3324
18952TIP3    H178271   3.267   4.442  11.041  1.0321  0.1666  0.5872
18952TIP3    H278272   3.352   4.564  11.015  0.0572  0.6088 -0.6411
18953TIP3   OH278273   5.952   5.147  13.279 -0.1326 -0.1375  0.9278
18953TIP3    H178274   5.973   5.228  13.232 -3.0296  0.4189  0.3945
18953TIP3    H278275   6.013   5.082  13.244  0.3678  1.1689 -0.7341
18954TIP3   OH278276   2.803   2.629  14.213  0.7208  1.0919 -0.5552
18954TIP3    H178277   2.896   2.651  14.222  0.6198  1.6457 -0.8371
18954TIP3    H278278   2.757   2.697  14.261  0.5352 -0.4893  1.6878
18955TIP3   OH278279   1.124   1.268  11.468  0.1440  0.0770 -0.3924
18955TIP3    H178280   1.047   1.221  11.439 -0.0931  0.9630 -1.2630
18955TIP3    H278281   1.122   1.263  11.563  0.4546 -2.1449 -0.4564
18956TIP3   OH278282   0.565   4.906   5.626 -0.2180  0.1313 -0.1708
18956TIP3    H178283   0.502   4.842   5.595 -0.4235  0.6037 -0.7583
18956TIP3    H278284   0.636   4.854   5.664  0.2154 -0.5026 -1.7747
18957TIP3   OH278285   6.285   4.228  12.596  0.5103  0.0866 -0.2450
18957TIP3    H178286   6.256   4.137  12.602 -0.5789  0.5079  1.2980
18957TIP3    H278287   6.251   4.258  12.512 -1.2249 -0.2420  0.2979
18958TIP3   OH278288   0.983   0.670   5.166  0.0516 -0.1972  0.0392
18958TIP3    H178289   0.965   0.631   5.252  0.7257  0.0917  0.3234
18958TIP3    H278290   1.072   0.706   5.175 -0.3851  1.0215 -0.3518
18959TIP3   OH278291   2.620   6.073   0.015 -0.9306 -0.1194  0.4892
18959TIP3    H178292   2.655   6.154  -0.023 -0.1536 -1.2250 -1.2738
18959TIP3    H278293   2.697   6.016   0.024 -1.6772 -1.1783  0.3177
18960TIP3   OH278294   4.380   3.801   2.626  0.5430 -0.0620 -0.1267
18960TIP3    H178295   4.322   3.765   2.693 -0.7493  0.5398 -0.8971
18960TIP3    H278296   4.454   3.739   2.623 -0.0668 -0.8683  0.8358
18961TIP3   OH278297   2.756   5.850   0.239 -0.2367 -0.5331  0.3499
18961TIP3    H178298   2.669   5.811   0.231 -0.2537 -0.2384 -1.1592
18961TIP3    H278299   2.778   5.878   0.151  0.2085  1.9438  1.1602
18962TIP3   OH278300   5.556   3.845   1.230 -0.2450 -0.5961  0.0302
18962TIP3    H178301   5.466   3.823   1.205  0.1791 -2.3026 -0.1380
18962TIP3    H278302   5.550   3.932   1.269 -1.2934  1.3963 -4.0473
18963TIP3   OH278303   2.082   2.051  13.104  0.3122 -0.3056  0.0894
18963TIP3    H178304   2.136   1.972  13.109 -0.6954 -1.0199 -0.0380
18963TIP3    H278305   2.117   2.108  13.173  0.7188 -1.0747  0.5367
18964TIP3   OH278306   0.279   4.782  12.514 -0.3280  0.1731 -0.3771
18964TIP3    H178307   0.186   4.766  12.497  0.0723 -1.2214 -1.3769
18964TIP3    H278308   0.301   4.724  12.586 -0.5495  1.5628  0.8449
18965TIP3   OH278309   1.349   0.688   1.630  0.0500 -0.0388 -0.6930
18965TIP3    H178310   1.258   0.660   1.616  0.2092 -0.6065 -0.6335
18965TIP3    H278311   1.351   0.780   1.604 -0.3728 -0.2303 -1.4115
18966TIP3   OH278312   5.088   4.993   1.457  0.0199  0.0782  0.0435
18966TIP3    H178313   5.019   5.056   1.473  2.0561  2.2073  0.9710
18966TIP3    H278314   5.062   4.948   1.377 -2.4209  0.7371  0.4120
18967TIP3   OH278315   5.097   1.098   4.287  0.4310 -0.0399  0.1985
18967TIP3    H178316   5.188   1.067   4.288  0.9103  1.2764  0.5414
18967TIP3    H278317   5.104   1.191   4.309 -0.9995  0.1118  0.0951
18968TIP3   OH278318   2.813   6.113  14.395 -0.4650  0.0657 -1.0527
18968TIP3    H178319   2.755   6.189  14.400  0.0849  0.4429 -0.0258
18968TIP3    H278320   2.766   6.044  14.441 -1.0898 -0.3182 -2.2329
18969TIP3   OH278321   4.811   3.870  12.478  0.5653  0.3665  0.0430
18969TIP3    H178322   4.790   3.956  12.439  1.4359  0.3933 -0.3894
18969TIP3    H278323   4.729   3.842  12.519 -0.3857  0.3768 -1.7500
18970TIP3   OH278324   4.116   2.974  16.700 -0.3988  0.3629  0.1721
18970TIP3    H178325   4.157   2.970  16.614 -0.1934  0.4977  0.2627
18970TIP3    H278326   4.102   2.882  16.724  0.8077  0.2597  0.5896
18971TIP3   OH278327   3.272   6.378  12.909 -0.1454 -0.4173  0.5411
18971TIP3    H178328   3.278   6.466  12.872 -0.6837 -0.4791  0.2902
18971TIP3    H278329   3.236   6.325  12.837  0.0055 -0.8057  0.7481
18972TIP3   OH278330   2.185   6.778  10.472  0.3496  0.3585  0.1324
18972TIP3    H178331   2.219   6.857  10.430  1.0968  0.3579  0.6951
18972TIP3    H278332   2.264   6.733  10.504  0.0056 -1.0675 -0.9481
18973TIP3   OH278333   5.212   2.599  16.988  0.3497 -1.2857 -0.7714
18973TIP3    H178334   5.303   2.625  17.002 -0.2330  0.4490  0.0691
18973TIP3    H278335   5.204   2.514  17.031  1.6289 -1.6100 -1.1316
18974TIP3   OH278336   0.047   5.481   3.127 -0.5504 -0.0530 -0.1103
18974TIP3    H178337   0.003   5.451   3.207 -0.8262  0.7638  0.0494
18974TIP3    H278338  -0.014   5.543   3.087  0.1888  0.6324 -0.2026
18975TIP3   OH278339   3.275   1.748   3.863  0.3628  0.4542  0.1685
18975TIP3    H178340   3.236   1.806   3.928  0.1090  0.4202  0.0459
18975TIP3    H278341   3.367   1.774   3.861  0.5153  0.0392  0.9951
18976TIP3   OH278342   4.402   1.417   3.183 -0.2361  0.0462  0.4647
18976TIP3    H178343   4.378   1.379   3.267  2.6130 -0.0032  1.3628
18976TIP3    H278344   4.437   1.503   3.204  0.4012  0.0856 -0.6766
18977TIP3   OH278345   2.609   3.776  12.136 -0.1076  0.0386 -0.1046
18977TIP3    H178346   2.514   3.761  12.128 -0.3170  1.0205  0.3211
18977TIP3    H278347   2.642   3.765  12.047 -0.7943  0.6994 -0.4576
18978TIP3   OH278348   0.911   3.584   3.090 -0.5156 -0.1490 -0.4959
18978TIP3    H178349   0.958   3.635   3.024  0.7923 -1.7548 -0.8809
18978TIP3    H278350   0.819   3.610   3.080 -0.1970  0.4649 -2.1857
18979TIP3   OH278351   3.228   4.355  15.915 -0.6729 -0.2602 -0.2360
18979TIP3    H178352   3.202   4.402  15.994 -1.8037  0.8045 -1.2100
18979TIP3    H278353   3.148   4.313  15.884 -0.2268 -0.7185 -0.7901
18980TIP3   OH278354   3.015   4.403  11.214 -0.1874  0.0270  0.0510
18980TIP3    H178355   3.102   4.365  11.202 -0.5054 -0.7944  0.3253
18980TIP3    H278356   2.957   4.350  11.159 -0.2019  1.9408 -1.9589
18981TIP3   OH278357   3.575   6.017  15.161 -0.0610  0.2031 -0.2938
18981TIP3    H178358   3.557   5.937  15.112  0.8128  0.0833 -0.4317
18981TIP3    H278359   3.546   5.997  15.250 -0.6493  0.0428 -0.5138
18982TIP3   OH278360   5.800   4.220   1.761 -0.4397 -0.5458  0.0855
18982TIP3    H178361   5.728   4.157   1.761  0.1987 -1.2887  0.7061
18982TIP3    H278362   5.861   4.187   1.696  0.6187 -1.4447  1.4770
18983TIP3   OH278363   1.824   5.442   1.228 -0.3891 -0.5033  0.7241
18983TIP3    H178364   1.830   5.499   1.151 -0.1847 -0.7211  0.5763
18983TIP3    H278365   1.862   5.360   1.199 -1.0051 -0.8288  0.8309
18984TIP3   OH278366   0.735   3.734   2.848  0.0528  0.2000 -0.1296
18984TIP3    H178367   0.716   3.819   2.889 -0.4258  0.6220 -1.1880
18984TIP3    H278368   0.660   3.680   2.870  1.1700 -0.5537  2.0616
18985TIP3   OH278369   4.601   5.206  15.062  0.3643 -0.4371 -0.2363
18985TIP3    H178370   4.552   5.137  15.108 -0.8995  0.3576 -0.3472
18985TIP3    H278371   4.659   5.241  15.129  1.2279 -1.7714 -0.2440
18986TIP3   OH278372   4.331   3.838  15.485  0.8015 -0.0461  0.0798
18986TIP3    H178373   4.325   3.758  15.434  0.3547 -0.3706  0.6276
18986TIP3    H278374   4.418   3.835  15.526  0.9838 -0.0021 -0.3033
18987TIP3   OH278375   1.271   3.151  15.107 -0.2604 -0.3549 -0.0785
18987TIP3    H178376   1.236   3.062  15.116 -0.0471 -0.5738 -1.1978
18987TIP3    H278377   1.194   3.205  15.087 -0.1084 -0.7371 -1.9397
18988TIP3   OH278378   1.958   4.950   2.848  0.3831 -0.1017 -0.2944
18988TIP3    H178379   2.048   4.939   2.816  0.7571  1.2332  0.2271
18988TIP3    H278380   1.925   5.025   2.800  1.2964  2.6277  2.9495
18989TIP3   OH278381   5.317   2.193  11.461  0.1682  0.6141 -0.5367
18989TIP3    H178382   5.303   2.184  11.367  1.3241  0.2736 -0.6879
18989TIP3    H278383   5.269   2.120  11.500 -0.5922  0.9490 -0.8216
18990TIP3   OH278384   4.471   6.135  13.957  0.1965  0.1166  0.5150
18990TIP3    H178385   4.493   6.105  13.869 -1.9891  2.1077 -0.8497
18990TIP3    H278386   4.509   6.222  13.964 -1.3327  0.8075  0.7076
18991TIP3   OH278387   6.204   3.362   1.668 -0.3189 -0.0777 -0.1358
18991TIP3    H178388   6.148   3.318   1.734 -0.0197  0.1929  0.3029
18991TIP3    H278389   6.200   3.304   1.592 -0.9212 -0.2408  0.0129
18992TIP3   OH278390   2.263   2.606   2.372 -0.3396  0.3760  0.3228
18992TIP3    H178391   2.290   2.651   2.292 -0.6369  0.1259  0.0760
18992TIP3    H278392   2.317   2.527   2.373 -0.9450 -0.0530 -0.0958
18993TIP3   OH278393   4.931   0.115   2.015 -0.2682  0.0070 -0.0498
18993TIP3    H178394   4.981   0.111   1.934  0.3826 -0.8640  0.3896
18993TIP3    H278395   4.950   0.202   2.051 -2.6880  1.5548 -2.1323
18994TIP3   OH278396   1.755   4.833  16.755  0.0893 -0.0346  0.1394
18994TIP3    H178397   1.685   4.768  16.762 -0.7672  0.9681  1.3120
18994TIP3    H278398   1.710   4.915  16.737  1.1491  0.2845 -1.2026
18995TIP3   OH278399   6.249   3.240   3.046 -0.3458  0.1642 -0.0119
18995TIP3    H178400   6.216   3.230   2.957  0.6613  1.3193 -0.5541
18995TIP3    H278401   6.330   3.291   3.035  1.4178 -2.1882  1.2754
18996TIP3   OH278402   6.343   3.692  16.444 -0.1850  0.4115  0.0943
18996TIP3    H178403   6.295   3.627  16.392  0.1698 -1.2557  1.7239
18996TIP3    H278404   6.367   3.645  16.524  0.0684  2.6011  1.3794
18997TIP3   OH278405   4.895   4.147   5.407  0.0351  0.3170  0.0811
18997TIP3    H178406   4.924   4.224   5.456  0.4061  0.3014 -0.1150
18997TIP3    H278407   4.975   4.102   5.383 -0.0918  0.7821 -1.3008
18998TIP3   OH278408   4.224   2.511  15.752 -0.0919  0.3759  0.0066
18998TIP3    H178409   4.219   2.607  15.753  1.9875  0.6045 -2.1933
18998TIP3    H278410   4.276   2.491  15.675  1.7160 -2.4462  1.7898
18999TIP3   OH278411   3.499   1.540  12.841  0.3116 -0.3842  0.1345
18999TIP3    H178412   3.481   1.522  12.749 -0.1172  2.0986 -0.3425
18999TIP3    H278413   3.416   1.522  12.886  0.3065 -0.9100 -0.0880
19000TIP3   OH278414   5.434   4.955  14.747 -0.1939  0.0127  0.6895
19000TIP3    H178415   5.474   5.038  14.774  0.2390  0.3435 -0.8740
19000TIP3    H278416   5.399   4.918  14.828  1.0404  0.9377  1.6811
19001TIP3   OH278417   3.348   5.154  11.191  0.1393 -0.3994  0.2047
19001TIP3    H178418   3.314   5.153  11.280 -1.7238 -2.0611 -0.4430
19001TIP3    H278419   3.326   5.241  11.158 -1.9217 -0.7979  0.4245
19002TIP3   OH278420   5.493   3.632   1.812 -0.1728  0.2688 -0.8719
19002TIP3    H178421   5.587   3.616   1.819 -0.3332 -0.2102  0.3110
19002TIP3    H278422   5.460   3.560   1.759 -0.2218 -0.9351  0.7361
19003TIP3   OH278423   6.257   1.941  15.971  0.7482  0.2435  0.1413
19003TIP3    H178424   6.251   1.864  16.028  0.6738 -0.0446 -0.2547
19003TIP3    H278425   6.348   1.971  15.980  0.6482  0.4007  0.6693
19004TIP3   OH278426   3.825   2.389   0.975  0.6410  0.1015 -0.4470
19004TIP3    H178427   3.834   2.420   0.885  0.8099  1.3924 -0.0037
19004TIP3    H278428   3.825   2.469   1.028 -1.0116 -0.5222  0.5747
19005TIP3   OH278429   0.162   2.401  11.709 -0.6294  0.4358  0.4688
19005TIP3    H178430   0.082   2.353  11.688  0.8668 -1.5115 -1.1388
19005TIP3    H278431   0.142   2.492  11.685 -1.8982 -0.2644 -1.3510
19006TIP3   OH278432   2.483   5.002  13.914  0.1469  0.2144  0.0626
19006TIP3    H178433   2.528   4.983  13.832  0.1453 -3.7198  0.8100
19006TIP3    H278434   2.463   5.096  13.909  0.1945  0.1755 -4.3452
19007TIP3   OH278435   1.745   4.217   3.419 -0.3757  0.4550  0.2424
19007TIP3    H178436   1.825   4.241   3.466 -0.6296 -1.5082  1.8206
19007TIP3    H278437   1.766   4.231   3.327  1.2727  1.3621  0.7199
19008TIP3   OH278438   1.648   6.350  16.336  0.5727  0.2178 -0.2759
19008TIP3    H178439   1.688   6.313  16.257 -0.3446  0.7109 -0.9877
19008TIP3    H278440   1.705   6.424  16.359 -0.0184  1.0394 -1.3998
19009TIP3   OH278441   6.277   2.508  14.939  0.1471 -0.6793  0.1992
19009TIP3    H178442   6.195   2.552  14.959  0.8134  0.0647  1.3998
19009TIP3    H278443   6.252   2.439  14.877 -0.7057  2.3407 -3.1850
19010TIP3   OH278444   0.227   6.362  13.810  0.7642 -0.1876  0.5443
19010TIP3    H178445   0.250   6.350  13.717 -1.4377 -0.9332  0.0330
19010TIP3    H278446   0.249   6.453  13.828  2.6724 -0.4460 -0.2423
19011TIP3   OH278447   0.070   1.790  13.174  0.2957 -0.0100 -0.3099
19011TIP3    H178448   0.097   1.764  13.085  0.7438  0.2638 -0.2528
19011TIP3    H278449   0.017   1.716  13.205  0.6658 -0.3839 -0.5648
19012TIP3   OH278450   2.273   5.572  15.906  0.2276  0.0700 -0.2101
19012TIP3    H178451   2.196   5.534  15.948  0.5964  0.4776  0.8823
19012TIP3    H278452   2.268   5.545  15.815 -1.6818  0.8220 -0.3626
19013TIP3   OH278453   0.004   5.245  11.811  0.4060 -0.0727  0.3178
19013TIP3    H178454   0.061   5.180  11.770  1.3150  0.2520  1.0277
19013TIP3    H278455  -0.080   5.234  11.767  0.1531 -2.5880  1.2611
19014TIP3   OH278456   5.302   3.996  16.433 -0.2934  0.0439 -0.3236
19014TIP3    H178457   5.314   3.907  16.466 -0.2784  0.1545 -0.0253
19014TIP3    H278458   5.383   4.041  16.457 -0.4350  0.2255 -0.1798
19015TIP3   OH278459   4.656   6.732  16.508 -0.1240 -0.0894  0.2128
19015TIP3    H178460   4.601   6.714  16.585 -0.1308 -0.6760  0.0686
19015TIP3    H278461   4.730   6.672  16.516  0.4526  0.6279  0.3520
19016TIP3   OH278462   4.384   3.723  10.831  0.0949 -0.3340  0.7679
19016TIP3    H178463   4.408   3.692  10.918  0.7161 -1.6719  0.1461
19016TIP3    H278464   4.305   3.674  10.808  0.3554 -0.5397  0.2881
19017TIP3   OH278465   6.629   3.478   2.271  0.2593 -0.1723  0.0125
19017TIP3    H178466   6.695   3.545   2.252  1.5784 -0.3205  3.4807
19017TIP3    H278467   6.545   3.521   2.254  1.1015  2.0474  1.1613
19018TIP3   OH278468   4.024   6.802   1.511 -0.5207 -0.3443 -0.4932
19018TIP3    H178469   4.098   6.742   1.505 -0.1167  0.1209 -0.2807
19018TIP3    H278470   4.026   6.832   1.602  0.7045  1.7434 -1.1430
19019TIP3   OH278471   0.023   1.580  15.145  0.1584  0.5498 -0.4681
19019TIP3    H178472   0.117   1.565  15.149 -0.1155 -1.5806 -0.9603
19019TIP3    H278473  -0.014   1.529  15.216 -0.6745  1.0490 -0.5188
19020TIP3   OH278474   3.829   6.795  15.669  0.0164 -0.0047 -0.0614
19020TIP3    H178475   3.761   6.862  15.665 -0.1735 -0.1815  0.1409
19020TIP3    H278476   3.800   6.727  15.608  0.4915  0.3508 -0.6898
19021TIP3   OH278477   0.653   2.303  14.084  0.3626  0.2091  0.2595
19021TIP3    H178478   0.613   2.270  14.003 -0.8054  1.0319  0.4666
19021TIP3    H278479   0.579   2.319  14.142  1.1663 -0.1097  1.4096
19022TIP3   OH278480   3.593   0.021  11.294 -0.1019  0.1515 -0.3771
19022TIP3    H178481   3.635  -0.044  11.350  1.2813  2.4425  1.4187
19022TIP3    H278482   3.605  -0.013  11.205 -0.5826 -2.6136  0.5072
19023TIP3   OH278483   5.945   1.278  11.861 -0.3938  0.2208 -0.7839
19023TIP3    H178484   5.999   1.293  11.939 -0.8406  2.3368 -0.8041
19023TIP3    H278485   5.858   1.308  11.886 -0.3506  1.8204 -2.3250
19024TIP3   OH278486   6.045   6.785  11.605 -0.4173  0.2437  0.0121
19024TIP3    H178487   6.038   6.837  11.525 -1.5613  1.4931  0.8808
19024TIP3    H278488   6.029   6.848  11.676 -0.7731 -1.0901  1.1645
19025TIP3   OH278489   5.509   6.648  11.606  0.8019 -0.4629  0.7769
19025TIP3    H178490   5.603   6.652  11.591  0.7453 -1.3698  0.0819
19025TIP3    H278491   5.474   6.724  11.561  1.1575 -0.3609  0.6679
19026TIP3   OH278492   1.511   4.888  16.983  0.2011  0.0266 -0.4066
19026TIP3    H178493   1.605   4.901  16.997 -0.0724 -0.7830  3.1385
19026TIP3    H278494   1.482   4.968  16.940  2.2493  0.9696 -0.1711
19027TIP3   OH278495   5.098   2.151   3.900 -0.0888 -0.1329  0.2059
19027TIP3    H178496   5.148   2.075   3.873 -0.1237 -0.3655  0.7702
19027TIP3    H278497   5.162   2.222   3.904 -0.3781  0.3463 -2.1384
19028TIP3   OH278498   6.416   0.580  16.778  0.1951  0.0650 -0.6771
19028TIP3    H178499   6.336   0.535  16.806 -1.1740  0.0751 -4.0359
19028TIP3    H278500   6.486   0.518  16.794 -0.8627 -0.9953 -0.0162
19029TIP3   OH278501   3.000   3.265   2.914 -0.5794  0.5497  0.5550
19029TIP3    H178502   2.956   3.336   2.960  0.7077  0.5423  1.8709
19029TIP3    H278503   2.936   3.194   2.912 -0.8068  0.6750  2.0757
19030TIP3   OH278504   3.818   0.371   1.143 -0.7729  0.1799 -0.4691
19030TIP3    H178505   3.736   0.321   1.137 -1.3138  1.0519 -0.5250
19030TIP3    H278506   3.823   0.396   1.235 -0.9081  0.6828 -0.5981
19031TIP3   OH278507   1.621   4.230   1.181  0.4276 -0.0796  0.1864
19031TIP3    H178508   1.650   4.153   1.230 -2.1272 -0.4262  1.3410
19031TIP3    H278509   1.589   4.195   1.098 -1.0685 -0.3857  0.8532
19032TIP3   OH278510   0.681   1.484  12.592 -0.2443 -0.2166 -0.1407
19032TIP3    H178511   0.666   1.556  12.531 -0.2118  0.5656  0.7531
19032TIP3    H278512   0.756   1.512  12.644 -1.4632 -0.0124  1.5423
19033TIP3   OH278513   2.799   5.677   3.158  0.1805  0.0996 -0.6064
19033TIP3    H178514   2.809   5.754   3.214  1.3939  0.0852 -0.7824
19033TIP3    H278515   2.827   5.706   3.071  0.8475 -0.5782 -0.6325
19034TIP3   OH278516   3.764   3.465   6.470 -0.2385  0.5340  0.4230
19034TIP3    H178517   3.716   3.529   6.417  0.7198  0.2056 -0.9119
19034TIP3    H278518   3.807   3.408   6.405 -0.2763 -0.8576  1.5685
19035TIP3   OH278519   0.753   2.189   2.767 -0.0180  0.2864 -0.7729
19035TIP3    H178520   0.696   2.165   2.840 -0.4911  1.1292 -0.8528
19035TIP3    H278521   0.779   2.280   2.785  0.0558  0.4240 -1.5177
19036TIP3   OH278522   3.877   5.648  11.492 -0.1641 -0.5135  0.4723
19036TIP3    H178523   3.901   5.698  11.570  1.0823 -1.8749  0.9987
19036TIP3    H278524   3.834   5.569  11.527 -1.3457 -0.2452 -0.3089
19037TIP3   OH278525   2.613   0.217  11.355  0.4180 -0.6287 -0.0078
19037TIP3    H178526   2.681   0.153  11.335  0.3748 -0.7241  0.1479
19037TIP3    H278527   2.534   0.184  11.311  0.0621 -1.3861  1.1586
19038TIP3   OH278528   0.138   6.579   1.395 -0.0974 -0.2347 -0.2322
19038TIP3    H178529   0.213   6.602   1.449 -0.3914 -1.1946  0.6034
19038TIP3    H278530   0.174   6.524   1.325 -0.0550 -0.8399  0.2686
19039TIP3   OH278531   3.376   0.432   5.129 -0.3747  0.3102 -0.0903
19039TIP3    H178532   3.458   0.453   5.085  0.9108 -1.8772  1.0561
19039TIP3    H278533   3.340   0.359   5.079  2.1352 -3.6446  3.1598
19040TIP3   OH278534   2.963   3.460   4.574  0.2428  0.0929 -0.2423
19040TIP3    H178535   2.941   3.514   4.650  1.0517  0.9535 -0.6003
19040TIP3    H278536   3.057   3.442   4.584  0.8852  2.0376 -2.1153
19041TIP3   OH278537   0.618   0.526   4.340 -0.2051  0.1663 -0.0721
19041TIP3    H178538   0.674   0.454   4.312 -2.0030 -1.3822  0.1070
19041TIP3    H278539   0.615   0.584   4.264  0.9471 -0.1349 -0.3672
19042TIP3   OH278540   6.447   6.335  13.095  0.0778 -0.1377 -0.1328
19042TIP3    H178541   6.512   6.406  13.087  0.1319 -0.1865 -0.1258
19042TIP3    H278542   6.430   6.308  13.005  0.2896 -0.3267 -0.1159
19043TIP3   OH278543   5.286   6.469   3.630 -0.3601  0.1123  0.8806
19043TIP3    H178544   5.200   6.447   3.595 -0.5816 -0.2085  1.6169
19043TIP3    H278545   5.333   6.386   3.633  0.1330  0.3508  0.0781
19044TIP3   OH278546   4.598   3.783  13.516 -0.4565 -0.6226 -0.1076
19044TIP3    H178547   4.653   3.854  13.549  0.3139 -1.5612  0.6684
19044TIP3    H278548   4.620   3.777  13.423 -0.4851  0.0954 -0.1696
19045TIP3   OH278549   4.869   6.424  13.818  0.0011 -0.0216 -0.1594
19045TIP3    H178550   4.891   6.408  13.910 -0.3775 -0.8117 -0.1987
19045TIP3    H278551   4.954   6.435  13.775  0.2385 -1.0310  0.0414
19046TIP3   OH278552   2.885   6.199  11.372 -0.0462  0.4597  0.2164
19046TIP3    H178553   2.872   6.109  11.404  0.7361 -0.0376 -0.7806
19046TIP3    H278554   2.868   6.194  11.278  1.6257  0.9623 -0.1539
19047TIP3   OH278555   1.532   0.953   2.726 -0.1793  0.2488  0.0506
19047TIP3    H178556   1.591   0.933   2.799 -0.5990 -1.5172 -0.0684
19047TIP3    H278557   1.516   1.047   2.735 -0.6680  0.0118  2.6002
19048TIP3   OH278558   1.061   4.269   1.316  0.1595 -0.0899  0.3711
19048TIP3    H178559   1.017   4.188   1.287 -1.6702  0.9741 -0.0139
19048TIP3    H278560   1.153   4.245   1.324 -0.6177 -2.8246  2.4861
19049TIP3   OH278561   5.595   5.358  12.095 -0.0728  0.1670 -0.2791
19049TIP3    H178562   5.629   5.273  12.069 -0.1906 -0.3223  1.0763
19049TIP3    H278563   5.504   5.358  12.067  0.0002 -0.0539 -0.5086
19050TIP3   OH278564   3.256   3.318  17.003  0.3774  0.3982 -0.4544
19050TIP3    H178565   3.351   3.323  16.988  0.5083  0.6631  0.3772
19050TIP3    H278566   3.222   3.401  16.971  0.5749  0.7306  0.1787
19051TIP3   OH278567   1.212   3.599  11.734  0.2747  0.2925 -0.2266
19051TIP3    H178568   1.258   3.527  11.777  1.7732  1.3264 -0.0491
19051TIP3    H278569   1.263   3.616  11.655 -0.5555  0.6166 -0.7041
19052TIP3   OH278570   5.977   1.981  14.488 -0.0246 -0.0723 -0.1028
19052TIP3    H178571   5.938   1.901  14.524 -1.2726  0.5904  0.0676
19052TIP3    H278572   5.941   1.986  14.399  0.1836  0.2048 -0.1692
19053TIP3   OH278573   2.186   2.495   4.338  0.2523 -0.3204 -0.5293
19053TIP3    H178574   2.172   2.580   4.296 -0.1024  1.5233  2.9541
19053TIP3    H278575   2.099   2.467   4.365  0.5518 -1.0595 -0.3116
19054TIP3   OH278576   3.294   4.208   0.318  0.4221  0.2758 -0.2222
19054TIP3    H178577   3.354   4.139   0.347  0.2853 -0.6711 -2.0273
19054TIP3    H278578   3.233   4.162   0.260 -0.7590  1.6172 -0.0797
19055TIP3   OH278579   6.544   1.684  16.947  0.1045 -0.4969 -0.2497
19055TIP3    H178580   6.458   1.643  16.950  0.5148 -1.3609  1.3169
19055TIP3    H278581   6.527   1.777  16.962 -0.5321 -0.7538  0.7349
19056TIP3   OH278582   1.780   0.664  11.860 -0.0986  0.6575 -0.6599
19056TIP3    H178583   1.712   0.656  11.792 -0.1388  1.4217 -0.7230
19056TIP3    H278584   1.787   0.758  11.875 -0.2543  0.4850  0.5686
19057TIP3   OH278585   5.848   3.689  15.997 -0.1925 -0.1203 -0.3462
19057TIP3    H178586   5.791   3.725  16.065 -1.0879 -2.7373  0.4207
19057TIP3    H278587   5.861   3.762  15.935 -1.0809  1.7124  1.5002
19058TIP3   OH278588   5.932   5.911   5.682  0.5399  0.1926  0.5616
19058TIP3    H178589   5.923   6.002   5.655 -1.0640 -0.3384 -0.9059
19058TIP3    H278590   5.850   5.870   5.656  0.2772 -1.2169  3.2330
19059TIP3   OH278591   2.200   5.568  16.453  0.0622 -0.1133 -0.0557
19059TIP3    H178592   2.107   5.557  16.470  0.3760 -1.9210  0.7257
19059TIP3    H278593   2.240   5.566  16.540  0.8523  0.4088 -0.3976
19060TIP3   OH278594   1.236   0.157   1.646  0.5323 -0.4664  0.1114
19060TIP3    H178595   1.234   0.119   1.558  0.8623 -0.7750  0.2360
19060TIP3    H278596   1.216   0.250   1.632  0.4555 -0.5382 -0.2751
19061TIP3   OH278597   2.746   2.428  12.018  0.4120  0.4625 -0.1169
19061TIP3    H178598   2.816   2.493  12.021  0.0403  0.9817 -1.8597
19061TIP3    H278599   2.791   2.344  12.026  1.2616  0.7871 -1.2456
19062TIP3   OH278600   6.415   3.020   5.397  0.6121  0.3367 -0.1190
19062TIP3    H178601   6.353   3.024   5.325 -1.6915  1.0400  1.7806
19062TIP3    H278602   6.397   2.937   5.440 -0.0427  1.1491  1.2513
19063TIP3   OH278603   0.207   6.280   1.253 -0.0911  0.2939 -0.3450
19063TIP3    H178604   0.221   6.236   1.337 -0.3090 -1.7141 -1.2871
19063TIP3    H278605   0.120   6.249   1.225  0.6527 -0.4006 -2.0305
19064TIP3   OH278606   2.746   2.057  16.654  0.9192 -0.3061  0.0457
19064TIP3    H178607   2.831   2.014  16.665  2.4991  2.9122  1.3945
19064TIP3    H278608   2.767   2.143  16.618 -1.8147  0.4886  0.1657
19065TIP3   OH278609   1.151   3.442  12.835  0.3761  0.2660  0.6501
19065TIP3    H178610   1.196   3.525  12.851  0.5065  0.0963  1.1786
19065TIP3    H278611   1.199   3.402  12.763  0.2537  0.6925  0.3258
19066TIP3   OH278612   2.870   2.974  15.214 -0.3218 -0.2421  0.0028
19066TIP3    H178613   2.797   2.916  15.232  1.2740 -1.6974  2.3150
19066TIP3    H278614   2.864   2.992  15.120 -2.9954 -1.1210 -0.0740
19067TIP3   OH278615   5.983   2.322   2.075 -0.6142  0.2431  0.2513
19067TIP3    H178616   5.913   2.353   2.017 -1.8107 -2.7904 -0.0907
19067TIP3    H278617   6.042   2.397   2.083 -3.0310  2.4084 -0.7626
19068TIP3   OH278618   5.190   1.988  12.613 -0.0092  0.0841 -0.4609
19068TIP3    H178619   5.148   2.070  12.589 -0.6234 -0.3564 -0.9167
19068TIP3    H278620   5.119   1.933  12.646  0.0010 -1.0225 -2.1570
19069TIP3   OH278621   6.696   0.378  15.233 -0.0211  0.5110  0.3519
19069TIP3    H178622   6.648   0.309  15.278 -0.4190  0.0437 -0.7654
19069TIP3    H278623   6.749   0.419  15.302  1.2037 -1.7095  0.8144
19070TIP3   OH278624   5.535   5.263   0.631  0.3351  0.0308  0.4785
19070TIP3    H178625   5.509   5.172   0.648  0.2156 -0.1334 -0.5459
19070TIP3    H278626   5.477   5.292   0.561  0.3663  0.9111  0.7976
19071TIP3   OH278627   6.488   0.163  14.257 -0.4112 -0.7066 -0.4159
19071TIP3    H178628   6.406   0.186  14.302  0.0340 -0.9247  0.5152
19071TIP3    H278629   6.515   0.081  14.297  1.2831  0.3300  0.6754
19072TIP3   OH278630   5.514   4.918   3.283 -0.6368  0.3100  0.0723
19072TIP3    H178631   5.587   4.918   3.221  0.0324 -2.5867  0.7109
19072TIP3    H278632   5.492   5.010   3.294  2.1198  1.2223 -1.0968
19073TIP3   OH278633   5.839   1.998   3.156  0.2777  0.4685  0.1300
19073TIP3    H178634   5.818   2.091   3.149  0.9957  0.5366 -1.6889
19073TIP3    H278635   5.858   1.971   3.066  0.7433 -1.2840  0.7151
19074TIP3   OH278636   4.775   3.583  15.705 -0.1397  0.3169 -0.7676
19074TIP3    H178637   4.854   3.569  15.653  0.5581 -0.5043  0.4669
19074TIP3    H278638   4.704   3.558  15.647  0.4700  1.3139 -1.9899
19075TIP3   OH278639   3.132   2.446  15.942  0.5652 -0.1263 -0.0210
19075TIP3    H178640   3.121   2.523  15.886  3.2874 -0.3744 -1.0433
19075TIP3    H278641   3.100   2.475  16.028  1.1791  2.0708 -0.4578
19076TIP3   OH278642   4.321   2.255   4.915 -0.1894  0.3597 -0.4745
19076TIP3    H178643   4.238   2.302   4.919 -0.1616  0.3366  0.9259
19076TIP3    H278644   4.309   2.190   4.845 -0.9375  1.0915 -1.0454
19077TIP3   OH278645   5.761   4.700  10.648 -0.0128  0.1013  0.3603
19077TIP3    H178646   5.775   4.690  10.742  1.7913  1.5208  0.2931
19077TIP3    H278647   5.666   4.692  10.638 -0.2026 -0.5891  2.2194
19078TIP3   OH278648   1.315   1.032  12.357  1.0189  0.2955  0.5809
19078TIP3    H178649   1.296   0.979  12.279 -0.4664  0.6483  0.6729
19078TIP3    H278650   1.376   1.099  12.326  0.4755  0.4066 -0.2855
19079TIP3   OH278651   6.422   3.595   2.779 -0.1962  0.0655 -0.3198
19079TIP3    H178652   6.432   3.685   2.810  1.1140  0.1386 -0.8782
19079TIP3    H278653   6.387   3.603   2.690  1.7976  0.1537 -1.1478
19080TIP3   OH278654   5.561   6.188  16.687  0.5714  0.1374 -0.2314
19080TIP3    H178655   5.502   6.204  16.613 -0.8149 -0.8195  0.5972
19080TIP3    H278656   5.544   6.261  16.747  0.1872 -0.1496  0.0163
19081TIP3   OH278657   5.867   5.881  12.676  0.4440 -0.0263 -0.3719
19081TIP3    H178658   5.815   5.806  12.706 -0.3040  0.8786  0.6704
19081TIP3    H278659   5.930   5.896  12.746  0.5045  0.3910 -0.5128
19082TIP3   OH278660   0.523   2.178   4.298 -0.0571 -0.3099  0.3110
19082TIP3    H178661   0.559   2.166   4.385  1.1490 -2.8992 -0.4767
19082TIP3    H278662   0.586   2.137   4.239 -0.1186  2.5501 -2.0040
19083TIP3   OH278663   4.062   2.468   1.295  0.2551 -0.3236 -0.3214
19083TIP3    H178664   4.028   2.382   1.320  2.5756 -1.2248  0.0332
19083TIP3    H278665   3.996   2.504   1.235 -1.3055 -1.8422  0.4001
19084TIP3   OH278666   0.955   1.938  12.965  0.6135  0.1222 -0.3720
19084TIP3    H178667   1.039   1.902  12.995 -1.0642 -2.3555  1.7892
19084TIP3    H278668   0.959   1.934  12.870  3.0876  0.5391 -0.3470
19085TIP3   OH278669   6.308   4.513  14.259  0.3541 -0.1691  0.0935
19085TIP3    H178670   6.281   4.421  14.250 -1.1625  0.2768 -0.1629
19085TIP3    H278671   6.377   4.512  14.325 -1.5230 -1.1630  2.1204
19086TIP3   OH278672   3.574   4.196  12.298  0.1968 -0.1844  0.4759
19086TIP3    H178673   3.565   4.283  12.337 -1.8386 -0.7949  1.5295
19086TIP3    H278674   3.515   4.199  12.222 -0.0840 -0.7066  0.6720
19087TIP3   OH278675   0.789   3.064   2.015 -0.1872  0.1705  0.8569
19087TIP3    H178676   0.844   2.990   2.037  1.4078  1.4888  1.4648
19087TIP3    H278677   0.742   3.036   1.936  2.3957 -0.5328 -0.5460
19088TIP3   OH278678   0.642   0.174  16.090 -0.1973  0.3019  0.1887
19088TIP3    H178679   0.657   0.181  16.185 -1.2071  0.4927  0.3518
19088TIP3    H278680   0.643   0.265  16.059 -0.3219  0.2719  0.0961
19089TIP3   OH278681   4.738   6.706   1.078  0.4300 -0.4544 -0.2642
19089TIP3    H178682   4.801   6.775   1.100  2.3963 -2.2991  0.2405
19089TIP3    H278683   4.741   6.701   0.982  0.9617 -0.4345 -0.2531
19090TIP3   OH278684   0.623   5.320   3.643 -0.5283 -0.6573  0.1108
19090TIP3    H178685   0.541   5.270   3.636 -0.3188 -0.8036 -1.6650
19090TIP3    H278686   0.595   5.408   3.668 -1.2657 -0.6702 -0.6041
19091TIP3   OH278687   2.114   3.162   2.681  0.3369  0.2254  0.0667
19091TIP3    H178688   2.205   3.161   2.711  0.3812  0.6466 -0.0488
19091TIP3    H278689   2.068   3.103   2.742  0.6608  0.1122  0.2025
19092TIP3   OH278690   4.534   4.445  11.793  0.2077 -0.0498  0.5144
19092TIP3    H178691   4.481   4.524  11.786 -0.8118 -0.6143  1.5490
19092TIP3    H278692   4.597   4.464  11.863  0.3226  0.0433  0.3860
19093TIP3   OH278693   0.637   2.642  12.378 -0.5419  0.2930  0.1384
19093TIP3    H178694   0.571   2.606  12.319 -0.3195 -0.2931  0.2374
19093TIP3    H278695   0.598   2.723  12.412 -1.0661  0.1305 -0.0677
19094TIP3   OH278696   3.284   4.457  15.332 -0.2041 -0.9393  0.2350
19094TIP3    H178697   3.292   4.414  15.418 -0.6411  0.0686  0.7993
19094TIP3    H278698   3.220   4.405  15.285 -0.9400 -0.7576  1.0134
19095TIP3   OH278699   1.223   5.536   2.333  0.0286 -0.3459  0.0137
19095TIP3    H178700   1.141   5.487   2.320 -0.1317 -0.7315  2.1825
19095TIP3    H278701   1.292   5.472   2.318 -0.1631 -0.9923  1.7255
19096TIP3   OH278702   1.081   4.847   4.796  0.0582 -0.4242  0.4439
19096TIP3    H178703   1.146   4.854   4.725 -0.8547  1.1506 -0.2963
19096TIP3    H278704   1.042   4.935   4.801 -0.4581 -0.7226  2.3936
19097TIP3   OH278705   1.778   5.523   0.102  0.1848 -0.1149  0.1014
19097TIP3    H178706   1.711   5.590   0.091  1.3641  0.8023 -2.4189
19097TIP3    H278707   1.835   5.556   0.172 -1.1269 -0.2112  1.2489
19098TIP3   OH278708   5.827   6.698  15.775  0.0026  0.4049  0.0523
19098TIP3    H178709   5.868   6.628  15.724  0.0547  1.9172 -2.1398
19098TIP3    H278710   5.758   6.655  15.825  0.8837 -1.3878 -0.2155
19099TIP3   OH278711   0.551   4.173  14.631 -0.2317  0.2746 -0.2036
19099TIP3    H178712   0.519   4.083  14.632  0.2530 -0.0605  3.7570
19099TIP3    H278713   0.488   4.221  14.684 -0.2960  2.2496 -1.9591
19100TIP3   OH278714   3.101   2.822   5.642 -0.8333 -0.1476 -0.1276
19100TIP3    H178715   3.046   2.767   5.698  1.4719 -2.8007 -0.2629
19100TIP3    H278716   3.174   2.848   5.698 -0.1475 -0.1153 -1.0186
19101TIP3   OH278717   3.026   6.188   2.369 -0.2957 -0.4779 -0.0720
19101TIP3    H178718   2.944   6.142   2.352 -0.7293  0.6718 -1.3087
19101TIP3    H278719   3.046   6.232   2.286  1.2968 -0.3066  0.3718
19102TIP3   OH278720   0.003   6.136   2.227 -0.6908 -0.3832 -0.2266
19102TIP3    H178721  -0.048   6.115   2.306 -0.3759  0.0390  0.0939
19102TIP3    H278722  -0.039   6.214   2.191 -0.1040  0.1481  0.2081
19103TIP3   OH278723   0.127   0.884   9.818 -0.6237  0.5330  0.1943
19103TIP3    H178724   0.137   0.810   9.758  0.6784 -1.0751  2.2789
19103TIP3    H278725   0.088   0.953   9.764  0.1920 -0.9058 -2.4033
19104TIP3   OH278726   5.980   4.138  13.014 -0.2323 -0.1001 -0.7277
19104TIP3    H178727   6.065   4.181  13.007 -0.2536  0.2090  0.5668
19104TIP3    H278728   5.999   4.055  13.060 -0.5502 -0.2659 -0.8926
19105TIP3   OH278729   3.836   6.012  10.608  0.0896  0.2384  0.2945
19105TIP3    H178730   3.791   5.928  10.612  2.0114 -0.8973 -0.2835
19105TIP3    H278731   3.791   6.062  10.540  1.3584 -1.9572 -2.3286
19106TIP3   OH278732   4.990   0.424  14.222 -0.5276  0.2768  0.3510
19106TIP3    H178733   5.051   0.353  14.203 -1.3932 -0.1094 -1.2057
19106TIP3    H278734   5.043   0.503  14.219 -0.3041  0.1311 -2.6868
19107TIP3   OH278735   5.521   2.817  15.322 -0.2248 -0.4772 -0.3636
19107TIP3    H178736   5.483   2.738  15.284 -1.0261 -0.0533 -0.4534
19107TIP3    H278737   5.458   2.886  15.303 -0.7330 -0.2649  1.8718
19108TIP3   OH278738   3.454   0.523   4.721 -0.5822  0.1582 -0.0654
19108TIP3    H178739   3.485   0.551   4.807 -0.9090 -1.1627  0.5148
19108TIP3    H278740   3.358   0.525   4.728 -0.6144 -0.8371 -0.0799
19109TIP3   OH278741   3.592   2.120  14.416 -0.2495 -0.4880 -0.1475
19109TIP3    H178742   3.678   2.138  14.376  0.5978  0.6549  1.9819
19109TIP3    H278743   3.551   2.206  14.423 -0.1121 -0.5279  1.8336
19110TIP3   OH278744   2.209   2.652  14.723  0.1629 -0.0315  0.5846
19110TIP3    H178745   2.216   2.738  14.681 -2.9028  0.6052  1.2038
19110TIP3    H278746   2.217   2.590  14.650  0.0182  0.8562 -0.2114
19111TIP3   OH278747   4.772   2.231   0.559 -0.0527 -0.0308  0.2263
19111TIP3    H178748   4.745   2.306   0.612  1.4816  0.5149  0.3080
19111TIP3    H278749   4.859   2.255   0.527 -0.8890 -0.3497 -2.5589
19112TIP3   OH278750   1.352   2.703  12.542 -0.5591 -0.3613  0.0652
19112TIP3    H178751   1.403   2.626  12.570 -1.5665 -0.9314  0.3817
19112TIP3    H278752   1.409   2.747  12.479  0.6430 -0.5513  0.9750
19113TIP3   OH278753   5.614   1.849   5.872 -0.0848 -0.0387  0.8347
19113TIP3    H178754   5.583   1.939   5.885 -1.2238 -0.6660  2.8195
19113TIP3    H278755   5.542   1.805   5.828  0.8346  0.1810 -1.0146
19114TIP3   OH278756   5.419   1.416  14.383  0.0213 -0.3296  0.2597
19114TIP3    H178757   5.414   1.399  14.288 -0.0460  0.6901  0.0731
19114TIP3    H278758   5.487   1.356  14.414  0.9687  0.2372 -0.6578
19115TIP3   OH278759   6.467   2.542  14.009 -0.2906  0.1409 -0.6799
19115TIP3    H178760   6.427   2.612  13.957  0.1917 -0.0278 -1.2886
19115TIP3    H278761   6.525   2.497  13.948  0.6114  0.2033  0.1097
19116TIP3   OH278762   6.081   1.539  12.473  0.2343 -0.3159 -0.1533
19116TIP3    H178763   6.107   1.448  12.458  1.6720  0.1379 -0.6427
19116TIP3    H278764   6.067   1.545  12.568 -1.9498 -1.5146 -0.3348
19117TIP3   OH278765   4.427   3.387  16.973 -0.0926 -0.4668  0.2238
19117TIP3    H178766   4.423   3.306  17.023  1.2901 -1.0589 -0.5675
19117TIP3    H278767   4.488   3.368  16.902 -1.8498  0.3744 -1.6225
19118TIP3   OH278768   0.026   0.993  16.639  0.0266  0.0683 -0.3112
19118TIP3    H178769   0.095   0.952  16.691  0.0036  0.2479 -0.1336
19118TIP3    H278770   0.037   0.959  16.551 -0.7843 -1.3108  0.0868
19119TIP3   OH278771   2.948   0.485  15.933 -0.0902  0.9568  0.5014
19119TIP3    H178772   3.023   0.475  15.991 -0.6224  2.1039  1.4427
19119TIP3    H278773   2.967   0.565  15.882  0.9241 -0.6586 -1.8451
19120TIP3   OH278774   2.096   3.794  13.686 -0.3044 -0.2627  0.0172
19120TIP3    H178775   2.011   3.788  13.642  0.3974 -0.4280 -1.3602
19120TIP3    H278776   2.113   3.888  13.692 -0.3415 -0.2425 -0.1922
19121TIP3   OH278777   3.390   3.654   2.513  0.5073  0.4021  0.7789
19121TIP3    H178778   3.472   3.616   2.544  0.7285 -0.7523 -1.0409
19121TIP3    H278779   3.334   3.579   2.495 -0.4927  1.1247  0.7859
19122TIP3   OH278780   0.082   2.429  16.155 -0.1243  0.0949  0.5562
19122TIP3    H178781   0.131   2.403  16.077  0.6330  0.7185  0.8090
19122TIP3    H278782   0.001   2.467  16.121  1.2806  2.7662 -0.1115
19123TIP3   OH278783   5.426   3.070  15.257  0.5121  0.7733  0.2567
19123TIP3    H178784   5.384   3.068  15.171  1.2309  0.8196 -0.0942
19123TIP3    H278785   5.394   3.150  15.298 -0.8440  0.1311  0.5577
19124TIP3   OH278786   4.157   0.265   4.852 -0.1847  0.7094  0.3709
19124TIP3    H178787   4.162   0.216   4.934  0.2097 -0.5575 -0.3804
19124TIP3    H278788   4.084   0.225   4.804  0.7499  0.1685 -0.6575
19125TIP3   OH278789   0.408   2.264   3.787 -0.1248 -0.2136 -0.4842
19125TIP3    H178790   0.317   2.244   3.766 -0.0524  0.6175 -1.7306
19125TIP3    H278791   0.410   2.272   3.882 -1.5963  0.8220 -0.5009
19126TIP3   OH278792   0.327   5.228   6.177  0.1206  0.5372 -0.2356
19126TIP3    H178793   0.358   5.289   6.109  0.5918  0.6975  0.1140
19126TIP3    H278794   0.281   5.284   6.240 -0.5443  0.3538 -0.5454
19127TIP3   OH278795   5.070   6.424  13.295 -0.6817 -0.0271  0.1064
19127TIP3    H178796   5.162   6.397  13.304 -1.3020 -2.5081 -0.2592
19127TIP3    H278797   5.058   6.434  13.200 -1.9067 -4.6541 -0.4629
19128TIP3   OH278798   0.853   4.494   0.410  0.4765  0.1579 -0.0762
19128TIP3    H178799   0.920   4.426   0.415  0.3080 -0.3059 -2.6285
19128TIP3    H278800   0.792   4.473   0.481  1.7131 -0.8795  0.7137
19129TIP3   OH278801   5.814   2.437   1.914 -0.5634 -0.2088 -0.5894
19129TIP3    H178802   5.866   2.489   1.852 -1.0543  0.8867 -0.0977
19129TIP3    H278803   5.732   2.485   1.922 -0.3196 -0.0419  1.2935
19130TIP3   OH278804   6.246   4.777   2.263 -0.1993 -0.8689  0.2477
19130TIP3    H178805   6.157   4.749   2.242 -0.6637  0.4545  0.3994
19130TIP3    H278806   6.292   4.774   2.179 -1.0807  0.8889 -0.3365
19131TIP3   OH278807   5.220   0.848  14.467  0.6460  0.5581 -0.0286
19131TIP3    H178808   5.131   0.862  14.499  1.0984  2.4270  0.5067
19131TIP3    H278809   5.257   0.935  14.460  2.2202 -0.1474 -0.9307
19132TIP3   OH278810   5.671   1.474  13.137 -0.2780 -0.0114  0.2489
19132TIP3    H178811   5.646   1.533  13.066 -3.2909  0.3430  1.4830
19132TIP3    H278812   5.596   1.473  13.196  1.2339 -2.0242  2.3269
19133TIP3   OH278813   4.656   5.340   5.539 -0.0510  0.4889 -0.1055
19133TIP3    H178814   4.699   5.309   5.618  0.1307  0.2522 -0.2966
19133TIP3    H278815   4.665   5.435   5.542 -1.4482  0.6196  0.9685
19134TIP3   OH278816   2.225   5.029  13.459  0.0478  0.1107  0.1276
19134TIP3    H178817   2.208   4.935  13.460  1.5088 -0.2122  2.6564
19134TIP3    H278818   2.161   5.064  13.397 -0.1713 -2.5787 -1.3287
19135TIP3   OH278819   6.418   0.047  13.201 -0.2381  0.1815  0.8181
19135TIP3    H178820   6.355   0.112  13.232 -0.8390  0.1073 -0.2018
19135TIP3    H278821   6.385  -0.037  13.233 -1.4844 -0.0337 -0.8965
19136TIP3   OH278822   0.217   0.290  15.749  0.3219 -0.4081 -0.0444
19136TIP3    H178823   0.167   0.371  15.756 -1.4336 -1.3902 -0.5566
19136TIP3    H278824   0.236   0.282  15.656 -0.2600 -0.9856 -0.1228
19137TIP3   OH278825   3.483   5.733   4.774 -0.2464  0.6647 -0.0853
19137TIP3    H178826   3.390   5.710   4.772 -0.4292  1.3886 -0.4949
19137TIP3    H278827   3.529   5.649   4.780 -0.8681  0.1170 -2.1185
19138TIP3   OH278828   1.051   2.428  12.653  0.5932 -0.0417  0.4387
19138TIP3    H178829   0.959   2.408  12.637  0.4797  0.8169 -0.0429
19138TIP3    H278830   1.074   2.492  12.586  1.2645  0.4884  1.1546
19139TIP3   OH278831   2.300   3.175   1.999  0.2152 -0.0852 -0.2072
19139TIP3    H178832   2.395   3.162   2.000  0.5048  1.1258  3.2237
19139TIP3    H278833   2.289   3.270   1.994 -0.7653 -0.1847 -0.0586
19140TIP3   OH278834   1.631   0.370   4.489  0.2345 -0.1359 -0.4248
19140TIP3    H178835   1.614   0.458   4.522 -1.7480 -1.1323  1.5045
19140TIP3    H278836   1.687   0.383   4.413 -1.1165  2.9013 -1.0548
19141TIP3   OH278837   0.652   6.385  10.681  0.2788  0.5425 -0.1248
19141TIP3    H178838   0.567   6.381  10.637 -0.5092 -0.2458  1.3933
19141TIP3    H278839   0.715   6.364  10.613 -0.8306  0.1188 -1.0575
19142TIP3   OH278840   4.078   6.469   3.495  0.8525 -0.1176  0.1553
19142TIP3    H178841   4.146   6.530   3.466  1.9494 -1.9957 -1.5715
19142TIP3    H278842   4.092   6.459   3.589  2.6101  0.0102 -0.0575
19143TIP3   OH278843   3.608   5.978   6.458 -0.4397 -0.1548  0.1339
19143TIP3    H178844   3.626   5.892   6.495  1.3429 -0.5981 -1.5908
19143TIP3    H278845   3.687   6.000   6.408 -1.3468  1.9220 -0.5115
19144TIP3   OH278846   0.187   5.780  15.713  0.1742 -0.7270  0.0126
19144TIP3    H178847   0.266   5.832  15.727  0.0979 -0.3747 -0.7844
19144TIP3    H278848   0.156   5.808  15.626 -1.0620 -0.5517  0.5007
19145TIP3   OH278849   1.936   4.462  16.501 -0.1398 -0.2818  0.0083
19145TIP3    H178850   1.903   4.542  16.543 -1.2184  0.5800 -2.3163
19145TIP3    H278851   2.029   4.460  16.525 -0.4804  0.6627  1.5926
19146TIP3   OH278852   6.480   5.250  10.852 -0.2021 -0.1421  0.0733
19146TIP3    H178853   6.403   5.206  10.817 -0.2512 -0.6288  0.7729
19146TIP3    H278854   6.528   5.280  10.774 -1.2787  0.5095 -0.3666
19147TIP3   OH278855   4.985   3.925  14.828 -0.3125 -0.5822  0.1321
19147TIP3    H178856   5.016   4.016  14.834  0.6015 -0.9856  1.8855
19147TIP3    H278857   4.965   3.914  14.735 -1.4356  1.7215  0.0043
19148TIP3   OH278858   5.452   0.579  12.783  0.0363 -0.0572  0.1616
19148TIP3    H178859   5.393   0.528  12.838  0.1728 -1.0081 -0.5561
19148TIP3    H278860   5.394   0.627  12.724 -0.0366 -1.9328 -1.3743
19149TIP3   OH278861   3.230   5.413   3.370 -0.0640  0.5394 -0.3696
19149TIP3    H178862   3.165   5.405   3.300  1.2983 -0.7976 -1.5404
19149TIP3    H278863   3.204   5.492   3.417 -0.8801  1.6636 -2.5519
19150TIP3   OH278864   6.063   5.880  14.949 -0.3620 -0.6627 -0.8750
19150TIP3    H178865   5.992   5.878  15.014 -1.0236  0.2897 -1.5380
19150TIP3    H278866   6.055   5.966  14.908 -0.3928 -1.4799 -2.6736
19151TIP3   OH278867   2.173   4.487   4.919 -0.0336  0.5563  0.4613
19151TIP3    H178868   2.225   4.498   4.839 -1.0477  0.7507 -0.1774
19151TIP3    H278869   2.137   4.399   4.911 -2.5077  1.5860 -0.7523
19152TIP3   OH278870   4.593   5.231   1.479 -0.6755  0.2329  0.2202
19152TIP3    H178871   4.554   5.150   1.513  1.2682 -1.7068 -1.8177
19152TIP3    H278872   4.569   5.231   1.386 -0.6584  2.0749  0.1865
19153TIP3   OH278873   5.135   4.086   4.926 -0.0723 -0.0620  0.0171
19153TIP3    H178874   5.103   4.175   4.910  1.4754  0.6531  0.7131
19153TIP3    H278875   5.214   4.098   4.978 -0.0161 -1.8795  0.4134
19154TIP3   OH278876   3.879   6.193   5.798  0.2538  0.4435 -0.3998
19154TIP3    H178877   3.811   6.155   5.742 -0.2983 -0.6128  0.9217
19154TIP3    H278878   3.832   6.255   5.854  0.4064 -0.0825  0.3299
19155TIP3   OH278879   1.407   2.899   6.233 -0.2643 -0.1886 -0.3369
19155TIP3    H178880   1.406   2.994   6.248  0.5243 -0.3812  1.2201
19155TIP3    H278881   1.336   2.883   6.172  0.1904  1.5214 -1.3717
19156TIP3   OH278882   0.803   5.298   4.883  0.2009 -0.2486  0.6265
19156TIP3    H178883   0.827   5.378   4.836  1.0159 -1.7444 -1.6506
19156TIP3    H278884   0.711   5.283   4.860  0.5570 -0.8981 -0.4658
19157TIP3   OH278885   3.799   4.507   2.831 -0.0218  0.2007 -0.1207
19157TIP3    H178886   3.800   4.411   2.835 -0.4171  0.1528 -1.0421
19157TIP3    H278887   3.709   4.531   2.850 -0.2211  0.3192 -1.1668
19158TIP3   OH278888   0.936   3.590  12.791  0.0452  0.4746  0.4530
19158TIP3    H178889   1.006   3.541  12.833 -0.2261  1.3799  2.0602
19158TIP3    H278890   0.980   3.668  12.756 -0.1428  1.1966  1.7297
19159TIP3   OH278891   0.675   3.643  12.653 -0.5190 -0.4381 -0.2310
19159TIP3    H178892   0.760   3.618  12.690 -0.5082 -1.7489 -1.0896
19159TIP3    H278893   0.689   3.732  12.620 -0.4752  0.7136  2.6075
19160TIP3   OH278894   0.353   1.779   5.759 -0.0279  0.2446  0.0155
19160TIP3    H178895   0.435   1.729   5.761 -0.4225 -0.4269 -0.2849
19160TIP3    H278896   0.381   1.870   5.755  0.7124  0.0025 -0.7756
19161TIP3   OH278897   6.169   6.259  14.353  0.2781 -0.1193  0.2939
19161TIP3    H178898   6.150   6.165  14.353 -2.5544  0.3034  2.8523
19161TIP3    H278899   6.207   6.276  14.439  1.2088  1.0507 -0.3199
19162TIP3   OH278900   4.592   0.915   2.340  0.2816 -0.3469 -0.2636
19162TIP3    H178901   4.613   0.941   2.250 -2.1739 -0.0684 -0.8450
19162TIP3    H278902   4.610   0.993   2.393 -1.9064  0.8737 -1.1768
19163TIP3   OH278903   5.286   2.448   0.163 -0.0106 -0.8111  0.2339
19163TIP3    H178904   5.252   2.449   0.252 -2.2301 -0.8018 -0.5571
19163TIP3    H278905   5.248   2.370   0.123  1.1588 -0.9640 -0.6599
19164TIP3   OH278906   1.256   5.294   4.260  0.4428 -0.1203  0.2896
19164TIP3    H178907   1.327   5.231   4.262  0.0537 -0.6112 -0.9117
19164TIP3    H278908   1.179   5.244   4.286 -0.1230 -0.5320 -1.9747
19165TIP3   OH278909   3.113   4.616   2.906  0.2601 -0.6308  0.0907
19165TIP3    H178910   3.192   4.660   2.873  0.2060  0.0074  0.7951
19165TIP3    H278911   3.130   4.603   2.999 -0.8818  0.4484  0.4762
19166TIP3   OH278912   3.460   6.209  15.840 -0.7936 -0.8993 -0.1571
19166TIP3    H178913   3.398   6.207  15.912 -0.2796  0.6272  0.3842
19166TIP3    H278914   3.413   6.252  15.769  0.1461  2.1906  0.9022
19167TIP3   OH278915   6.388   2.618   0.234 -0.0845 -0.1423  0.3608
19167TIP3    H178916   6.353   2.554   0.296 -2.2189 -0.1907 -0.8007
19167TIP3    H278917   6.416   2.566   0.158  0.4425  0.1053  0.3776
19168TIP3   OH278918   4.666   3.233   1.961 -0.7828  0.0346 -0.4073
19168TIP3    H178919   4.761   3.235   1.971 -0.8096  1.2067 -0.2543
19168TIP3    H278920   4.634   3.307   2.014 -1.8923 -1.1353  0.6185
19169TIP3   OH278921   0.105   4.121  16.746 -0.9819 -0.4165  0.0913
19169TIP3    H178922   0.047   4.197  16.749  1.0507  1.2220  0.1882
19169TIP3    H278923   0.184   4.153  16.701  0.3236 -2.1890  0.9888
19170TIP3   OH278924   2.553   0.848  16.443  0.0692 -0.0650 -0.9723
19170TIP3    H178925   2.458   0.846  16.458 -0.0496  0.4400 -1.6080
19170TIP3    H278926   2.591   0.865  16.529 -0.4522  0.2586 -0.8027
19171TIP3   OH278927   4.996   6.165  13.021 -0.2896  0.0885  0.2229
19171TIP3    H178928   5.071   6.203  12.977  0.1599 -0.8583  0.1383
19171TIP3    H278929   4.947   6.121  12.950 -2.2037  2.5966 -0.1541
19172TIP3   OH278930   1.798   6.212  15.817  0.0861  0.2114  0.6366
19172TIP3    H178931   1.863   6.148  15.843  0.2489 -1.1890 -2.7032
19172TIP3    H278932   1.849   6.287  15.786  0.1868 -0.4661 -0.9689
19173TIP3   OH278933   1.459   3.949  15.114  0.1546 -0.0737  0.0687
19173TIP3    H178934   1.465   3.935  15.208 -1.6569 -1.7781 -0.0062
19173TIP3    H278935   1.528   3.894  15.077 -0.6024 -1.2189  0.3108
19174TIP3   OH278936   3.197   1.768  12.822  0.0367  0.4415 -0.3154
19174TIP3    H178937   3.265   1.745  12.885  0.2768  1.1940 -0.2876
19174TIP3    H278938   3.201   1.864  12.816 -2.5504  0.7498  1.4195
19175TIP3   OH278939   4.923   1.477  14.802  0.2402  0.1539  0.0174
19175TIP3    H178940   4.848   1.505  14.748 -0.6914 -1.0170  0.6714
19175TIP3    H278941   4.888   1.471  14.891  1.5341  1.1441  0.6297
19176TIP3   OH278942   5.880   0.245   1.086 -0.4044  0.8296 -0.2009
19176TIP3    H178943   5.821   0.300   1.035 -0.0213  0.7733 -0.7239
19176TIP3    H278944   5.968   0.276   1.062 -0.1678 -0.2597 -0.8099
19177TIP3   OH278945   4.757   6.762   2.434 -0.1331 -0.3152  0.2195
19177TIP3    H178946   4.728   6.678   2.469  1.3694 -0.0398  2.2554
19177TIP3    H278947   4.707   6.828   2.482 -0.5984  0.0196 -0.6829
19178TIP3   OH278948   3.344   2.276  14.551  0.6876 -0.1126  0.0431
19178TIP3    H178949   3.417   2.291  14.610  0.1042  0.8540  0.5488
19178TIP3    H278950   3.343   2.182  14.536  1.0795 -0.3174  1.2637
19179TIP3   OH278951   6.165   1.266  12.479 -0.1152 -0.1536 -0.3143
19179TIP3    H178952   6.087   1.232  12.522  0.1622 -0.3467  0.0418
19179TIP3    H278953   6.230   1.273  12.549 -0.2843  1.5008 -0.2824
19180TIP3   OH278954   3.062   1.146   1.560  0.0096  0.3755 -0.6550
19180TIP3    H178955   3.007   1.072   1.587 -0.3458  0.7989 -0.2005
19180TIP3    H278956   3.119   1.162   1.635 -0.3177  0.9333 -0.5172
19181TIP3   OH278957   6.096   3.146  16.474 -0.0181  0.4989 -0.3337
19181TIP3    H178958   6.064   3.071  16.523  2.4965  0.8130  2.0455
19181TIP3    H278959   6.145   3.108  16.401 -0.8992 -0.0793 -0.6330
19182TIP3   OH278960   1.080   4.559  12.067 -0.2931  0.4721  0.0179
19182TIP3    H178961   1.097   4.528  12.156 -0.4305 -1.4580 -0.5767
19182TIP3    H278962   1.122   4.493  12.011 -0.3952  1.5329 -1.3485
19183TIP3   OH278963   2.889   5.305  15.440  0.0364 -0.0789 -0.3020
19183TIP3    H178964   2.884   5.333  15.531  1.1381 -0.5635 -0.0853
19183TIP3    H278965   2.880   5.209  15.443  1.7027 -0.2799 -0.5203
19184TIP3   OH278966   0.504   1.834  11.725  0.3880  0.3212  0.0609
19184TIP3    H178967   0.479   1.891  11.652  0.5242 -0.0943 -0.3226
19184TIP3    H278968   0.422   1.806  11.763  0.2097 -1.1944 -1.3147
19185TIP3   OH278969   0.241   2.502   5.526 -0.1706  0.8536  0.4787
19185TIP3    H178970   0.165   2.556   5.546 -0.0135  1.2580  0.0057
19185TIP3    H278971   0.268   2.530   5.439  1.7711  2.1977  1.4464
19186TIP3   OH278972   5.099   5.511   4.510  0.7326  0.4516  0.4055
19186TIP3    H178973   5.138   5.597   4.528  0.7518  0.4404  0.4173
19186TIP3    H278974   5.025   5.505   4.571  0.3257  0.7383 -0.0490
19187TIP3   OH278975   6.560   1.316  14.719 -1.3090 -0.0085 -0.2263
19187TIP3    H178976   6.484   1.264  14.744 -0.6092 -0.1082  1.8425
19187TIP3    H278977   6.545   1.401  14.760 -1.4655  0.8062 -1.8956
19188TIP3   OH278978   1.174   6.167  12.448 -0.1538 -0.2606  0.1624
19188TIP3    H178979   1.092   6.120  12.432 -0.2789 -0.0758  0.2644
19188TIP3    H278980   1.237   6.125  12.389 -0.1097 -0.9826  0.7083
19189TIP3   OH278981   2.262   3.910  11.808 -0.0505  0.4120  0.5796
19189TIP3    H178982   2.314   3.855  11.866  0.8396 -0.6921 -1.1753
19189TIP3    H278983   2.205   3.848  11.762  0.8889  0.9092 -1.3633
19190TIP3   OH278984   4.239   1.730  15.761  0.3718 -0.0731  0.5124
19190TIP3    H178985   4.200   1.815  15.781  0.1834 -0.0073 -0.1386
19190TIP3    H278986   4.279   1.741  15.675 -1.3739 -1.2047 -0.4848
19191TIP3   OH278987   4.935   6.665   4.762  0.7604 -0.9019 -0.7849
19191TIP3    H178988   4.923   6.754   4.731 -2.5292 -1.0835 -0.3839
19191TIP3    H278989   4.934   6.611   4.683  1.8441 -0.6659 -0.9644
19192TIP3   OH278990   2.668   5.988  14.617  0.0297 -0.4011  0.4783
19192TIP3    H178991   2.582   6.011  14.581 -1.5452 -2.2050  2.8339
19192TIP3    H278992   2.682   5.898  14.590  1.1105 -0.2006  0.3211
19193TIP3   OH278993   4.521   3.029  11.937 -0.4296 -0.2563 -0.0234
19193TIP3    H178994   4.565   3.060  11.858 -0.6417  1.1525  0.3841
19193TIP3    H278995   4.556   2.940  11.950  1.9948  0.6081  0.0279
19194TIP3   OH278996   5.994   3.987  11.015 -0.3820 -0.1251 -0.4687
19194TIP3    H178997   6.021   4.042  10.941  0.7548 -0.6942 -0.4959
19194TIP3    H278998   6.059   3.917  11.018 -2.5452 -2.3039 -1.2977
19195TIP3   OH278999   6.408   0.802   1.631  0.1637 -0.6093  0.2897
19195TIP3    H179000   6.411   0.726   1.690  1.6613 -0.7350  0.1036
19195TIP3    H279001   6.432   0.766   1.545  1.3013  0.1146  0.2806
19196TIP3   OH279002   4.570   6.733   4.318  0.0359  0.1677  0.2052
19196TIP3    H179003   4.628   6.670   4.275  1.1524  1.5390 -0.3723
19196TIP3    H279004   4.629   6.787   4.372 -1.1839 -0.7569  2.6026
19197TIP3   OH279005   2.574   4.880  14.137 -0.2358  0.0033 -0.3711
19197TIP3    H179006   2.546   4.899  14.048 -2.6587  0.9968  0.5188
19197TIP3    H279007   2.574   4.965  14.181 -2.0341 -0.7569  1.2796
19198TIP3   OH279008   4.295   5.323   5.918 -0.2330  0.2207  0.7368
19198TIP3    H179009   4.364   5.381   5.884  0.5596 -0.6124  0.8862
19198TIP3    H279010   4.228   5.383   5.951 -0.2900  1.0718 -0.7769
19199TIP3   OH279011   4.499   1.229   4.695  0.1049 -0.3377  0.0433
19199TIP3    H179012   4.572   1.210   4.754  0.0809 -2.2517 -0.4851
19199TIP3    H279013   4.499   1.157   4.632 -2.0865 -0.2625 -0.1242
19200TIP3   OH279014   1.727   4.802   5.423 -0.4654  0.2587  0.0158
19200TIP3    H179015   1.735   4.731   5.488 -0.3005 -0.5016 -0.8136
19200TIP3    H279016   1.809   4.798   5.373 -0.7981  0.5064 -0.5552
19201TIP3   OH279017   2.844   0.667  11.945  0.0589 -0.8411  0.2784
19201TIP3    H179018   2.778   0.652  12.012  0.0219 -3.2518 -0.1968
19201TIP3    H279019   2.908   0.725  11.986 -0.9505 -0.7092  1.7026
19202TIP3   OH279020   4.864   1.575   3.743 -0.4771  0.5795  0.1554
19202TIP3    H179021   4.841   1.561   3.835  0.9287  1.2690  0.6313
19202TIP3    H279022   4.888   1.487   3.711 -0.2709  0.4597  0.6400
19203TIP3   OH279023   6.325   1.039  14.410 -0.5664  0.3464 -0.8845
19203TIP3    H179024   6.243   1.080  14.383 -0.4616  2.3702  1.4580
19203TIP3    H279025   6.329   1.055  14.505  0.8198 -2.8753 -0.2779
19204TIP3   OH279026   2.288   3.691  16.412  0.1073  0.5195  0.2149
19204TIP3    H179027   2.277   3.704  16.506 -1.0948  1.6563 -0.0610
19204TIP3    H279028   2.212   3.639  16.386  0.7985 -0.3918 -0.0247
19205TIP3   OH279029   1.148   0.953  13.326  0.4061  0.1776 -0.4332
19205TIP3    H179030   1.134   1.006  13.404  0.1949  1.1868 -1.1224
19205TIP3    H279031   1.165   1.018  13.257  0.4574 -0.6807 -1.2439
19206TIP3   OH279032   6.235   1.971   3.420  0.0487  0.9162 -0.6671
19206TIP3    H179033   6.270   2.024   3.492 -2.1534 -0.8589  1.8608
19206TIP3    H279034   6.141   1.989   3.420 -0.7069 -2.4718 -0.0467
19207TIP3   OH279035   6.468   1.091  15.824  0.0820  0.1614 -0.2007
19207TIP3    H179036   6.501   1.110  15.912 -0.1999 -3.2461  0.7963
19207TIP3    H279037   6.378   1.061  15.838  0.0310 -0.4655 -1.6671
19208TIP3   OH279038   3.727   1.620  14.752  0.1981 -0.2685 -0.1150
19208TIP3    H179039   3.811   1.575  14.741  1.1706  1.2132  0.7976
19208TIP3    H279040   3.740   1.674  14.830 -1.5827  0.0748 -0.0313
19209TIP3   OH279041   0.608   5.651   2.449  0.6540 -0.1650 -0.1036
19209TIP3    H179042   0.591   5.693   2.533 -1.5368  0.1532 -0.6507
19209TIP3    H279043   0.676   5.705   2.409  0.3220  0.8389  0.6468
19210TIP3   OH279044   1.939   6.026   4.691 -0.0631 -0.4416  0.1369
19210TIP3    H179045   1.859   6.043   4.740 -0.3543 -1.1363 -0.0949
19210TIP3    H279046   2.009   6.041   4.754 -0.4202 -0.9633  0.6587
19211TIP3   OH279047   3.125   5.443   6.031 -0.0864  0.0557  0.3172
19211TIP3    H179048   3.094   5.355   6.008 -0.9669  0.9126 -2.0903
19211TIP3    H279049   3.203   5.427   6.085 -1.3734 -2.1654  1.6788
19212TIP3   OH279050   2.870   0.236   0.579  0.6115 -0.1334  0.2740
19212TIP3    H179051   2.786   0.192   0.588 -0.0177  0.9914  0.1370
19212TIP3    H279052   2.873   0.298   0.652  0.9147  0.4577 -0.2290
19213TIP3   OH279053   2.805   2.924  14.600  0.2928 -0.5730  1.0742
19213TIP3    H179054   2.819   2.884  14.686  1.2566 -0.0602  1.1696
19213TIP3    H279055   2.893   2.941  14.566 -0.0197 -2.0246 -0.6226
19214TIP3   OH279056   2.667   1.140  15.009  0.4225 -0.0900  0.4607
19214TIP3    H179057   2.612   1.206  14.966 -1.1942  0.8984  3.7598
19214TIP3    H279058   2.617   1.059  15.000  0.2535  0.0356  0.2226
19215TIP3   OH279059   6.469   4.695  16.200 -0.3966 -0.1703 -0.1100
19215TIP3    H179060   6.396   4.736  16.247 -1.8464 -2.1240 -0.4965
19215TIP3    H279061   6.473   4.606  16.237  2.3786  0.0938  0.4829
19216TIP3   OH279062   6.311   4.921   4.264  0.2840 -0.2427 -0.6706
19216TIP3    H179063   6.257   4.953   4.192 -1.1474 -0.8941  0.0721
19216TIP3    H279064   6.332   4.830   4.240  1.5720  0.1806 -1.2273
19217TIP3   OH279065   4.038   4.021   1.356  0.1105  0.8213 -0.4399
19217TIP3    H179066   4.037   4.105   1.402 -0.2887  0.1261  0.8857
19217TIP3    H279067   3.946   4.002   1.338 -0.0843 -0.5245  1.6356
19218TIP3   OH279068   6.492   4.685   4.739 -0.1532 -0.1727 -0.0873
19218TIP3    H179069   6.460   4.594   4.736  0.4081 -0.3516 -1.1712
19218TIP3    H279070   6.492   4.707   4.832 -0.6799 -1.1455  0.1633
19219TIP3   OH279071   5.321   2.217   5.601  0.7393 -0.1082  0.9913
19219TIP3    H179072   5.312   2.181   5.690 -1.9709  1.1907  1.3453
19219TIP3    H279073   5.245   2.182   5.554  0.1134  2.0467  0.2916
19220TIP3   OH279074   2.809   0.945  13.455  0.2496  0.0725  0.0267
19220TIP3    H179075   2.830   1.002  13.382  1.4833  0.2261  0.4837
19220TIP3    H279076   2.731   0.897  13.426  1.6175 -1.0379 -2.0503
19221TIP3   OH279077   6.345   5.982  15.283 -0.1682  0.1216 -0.0325
19221TIP3    H179078   6.331   6.077  15.276  0.2938  0.1437 -0.7860
19221TIP3    H279079   6.430   5.973  15.326 -0.0891  0.0547 -0.2021
19222TIP3   OH279080   4.658   0.835   0.343  0.0876  0.0090  0.5672
19222TIP3    H179081   4.690   0.747   0.321 -0.9026 -0.3134  0.3935
19222TIP3    H279082   4.718   0.865   0.412  0.5920 -0.6895  0.4486
19223TIP3   OH279083   4.397   3.617  11.114 -0.3578  0.1435  0.1378
19223TIP3    H179084   4.454   3.602  11.189  1.5997 -1.3187 -1.5479
19223TIP3    H279085   4.334   3.546  11.117 -0.1666 -0.0191  0.2833
19224TIP3   OH279086   0.923   1.440   4.174 -0.3391  0.2318 -0.8969
19224TIP3    H179087   0.851   1.386   4.205 -1.2669  1.4009 -0.9803
19224TIP3    H279088   0.918   1.433   4.078  0.8148 -1.1492 -0.8892
19225TIP3   OH279089   2.570   2.063  12.338  0.5112 -0.0545  0.8293
19225TIP3    H179090   2.475   2.055  12.341  0.4643 -0.1597 -0.4816
19225TIP3    H279091   2.593   2.050  12.246  1.8569 -0.7134  1.2264
19226TIP3   OH279092   3.644   4.171  13.048  0.0978  0.7053 -0.1502
19226TIP3    H179093   3.672   4.109  12.981  0.9540  0.3358  0.5256
19226TIP3    H279094   3.560   4.138  13.079  0.0780  0.4401 -0.4915
19227TIP3   OH279095   3.679   3.221  12.307  0.3182 -0.1775 -0.5236
19227TIP3    H179096   3.741   3.189  12.241  0.9315  0.0175 -0.0499
19227TIP3    H279097   3.690   3.316  12.307  0.1752 -0.1594 -0.2773
19228TIP3   OH279098   5.512   1.295   5.142  0.1928  0.1886  0.1918
19228TIP3    H179099   5.444   1.268   5.205 -0.5732  1.5635  0.0060
19228TIP3    H279100   5.540   1.381   5.174  2.3055 -0.5924  0.5865
19229TIP3   OH279101   3.018   5.229   0.088  0.1051  0.1763  0.1838
19229TIP3    H179102   3.012   5.147   0.137 -3.1012 -0.6701 -1.2994
19229TIP3    H279103   2.943   5.280   0.119  2.0641  2.6815  1.1184
19230TIP3   OH279104   5.009   3.173  11.851  0.9596 -0.5661  0.2906
19230TIP3    H179105   4.993   3.202  11.761 -1.3084 -0.4385  0.6806
19230TIP3    H279106   5.094   3.129  11.847  1.3018  0.1608 -1.7265
19231TIP3   OH279107   0.476   5.468   4.480 -0.2739 -0.0490  0.0217
19231TIP3    H179108   0.463   5.455   4.386  3.0537 -2.2784 -0.2867
19231TIP3    H279109   0.544   5.536   4.486  2.4184 -2.5879  0.4906
19232TIP3   OH279110   4.390   2.442   4.272 -0.7887  0.5337  0.2603
19232TIP3    H179111   4.484   2.443   4.254 -0.8230  0.6315  0.0826
19232TIP3    H279112   4.350   2.411   4.190 -0.7720 -1.5356  0.9706
19233TIP3   OH279113   0.175   0.274  16.743 -0.1928 -0.6000  0.3651
19233TIP3    H179114   0.243   0.274  16.810  0.0419  1.8060  0.2432
19233TIP3    H279115   0.187   0.192  16.695  2.3027 -0.4971  0.6764
19234TIP3   OH279116   0.383   1.047  15.487  0.1600 -0.0820 -0.0072
19234TIP3    H179117   0.328   1.021  15.412  0.6335  1.0541 -0.7771
19234TIP3    H279118   0.380   1.142  15.487  2.9036  0.0930 -0.6956
19235TIP3   OH279119   1.955   1.305  11.828 -0.1245 -0.1197 -0.9737
19235TIP3    H179120   2.035   1.355  11.842 -0.4503  0.4252 -1.0469
19235TIP3    H279121   1.899   1.363  11.777 -0.5289 -0.5387 -1.0080
19236TIP3   OH279122   1.490   6.214   0.485  0.0213 -0.1209  0.2701
19236TIP3    H179123   1.436   6.166   0.422 -0.3098  1.4018 -0.6449
19236TIP3    H279124   1.503   6.152   0.557 -1.9011 -0.9578 -0.0475
19237TIP3   OH279125   4.367   5.518  15.588 -0.2878 -0.2823 -0.4483
19237TIP3    H179126   4.405   5.458  15.523  2.1179  0.5300  0.0843
19237TIP3    H279127   4.355   5.600  15.540  0.4680  0.0017 -0.1751
19238TIP3   OH279128   0.536   1.110   0.855  0.1266  0.3069  0.1925
19238TIP3    H179129   0.512   1.040   0.794 -1.6937  0.0235  1.1487
19238TIP3    H279130   0.567   1.181   0.799 -1.5091  0.0643 -1.0932
19239TIP3   OH279131   5.504   6.131  10.416  0.0021  0.0358 -0.0538
19239TIP3    H179132   5.552   6.210  10.392  0.2604  0.0983  0.6360
19239TIP3    H279133   5.514   6.072  10.341 -0.7466  0.8965 -0.8533
19240TIP3   OH279134   1.533   6.190   1.997  0.0769 -0.3078 -0.2049
19240TIP3    H179135   1.471   6.229   1.935  0.2664  1.1438  0.4716
19240TIP3    H279136   1.617   6.191   1.950 -0.1369 -1.0066 -0.6177
19241TIP3   OH279137   5.941   0.064  12.481 -0.3220  0.4134  0.4788
19241TIP3    H179138   5.987   0.089  12.401  2.2336 -0.6483  1.5028
19241TIP3    H279139   5.947   0.141  12.537 -0.6478  0.5893  0.2788
19242TIP3   OH279140   0.670   0.105  11.873 -0.3813  0.3992  0.1036
19242TIP3    H179141   0.582   0.134  11.849 -0.3975 -0.8708 -1.5081
19242TIP3    H279142   0.724   0.125  11.797  0.2294 -0.9842  0.1521
19243TIP3   OH279143   2.655   3.313   0.242  0.6899 -0.5952 -0.4822
19243TIP3    H179144   2.559   3.306   0.245  0.8063 -2.9621 -0.5677
19243TIP3    H279145   2.674   3.342   0.153  0.0789 -1.4278 -0.9005
19244TIP3   OH279146   3.586   2.270   1.689  0.1645  0.0445  0.6409
19244TIP3    H179147   3.635   2.338   1.736  0.1433 -0.8823  2.0728
19244TIP3    H279148   3.569   2.203   1.755 -0.6423 -0.9255 -0.5070
19245TIP3   OH279149   2.105   4.220  12.051 -0.1892  0.2422 -0.1143
19245TIP3    H179150   2.032   4.206  12.112 -1.4149 -1.4119 -1.8309
19245TIP3    H279151   2.117   4.315  12.050 -2.3107  0.5749  0.2832
19246TIP3   OH279152   4.245   4.867   1.177 -0.0936  0.0047 -0.2547
19246TIP3    H179153   4.231   4.773   1.168  0.3698  0.0882 -2.6275
19246TIP3    H279154   4.340   4.876   1.183 -0.0059  0.3625 -1.7163
19247TIP3   OH279155   3.419   5.286   1.058 -0.4603  0.0645 -0.5620
19247TIP3    H179156   3.335   5.240   1.056  0.0634 -0.9306 -0.7755
19247TIP3    H279157   3.483   5.220   1.029  0.6630  0.1822  1.4377
19248TIP3   OH279158   0.847   0.844   1.887 -0.2595 -0.6238  0.8802
19248TIP3    H179159   0.833   0.924   1.837 -0.9491 -2.4724 -2.1351
19248TIP3    H279160   0.791   0.854   1.964 -1.5921  1.1194 -0.2397
19249TIP3   OH279161   0.579   0.433  11.921 -0.1859  0.3146 -0.4696
19249TIP3    H179162   0.618   0.492  11.985 -0.6677  1.7885 -1.4831
19249TIP3    H279163   0.652   0.379  11.890 -0.1869 -1.4482  2.2970
19250TIP3   OH279164   4.891   3.777   0.656  0.0686 -0.0219 -0.5502
19250TIP3    H179165   4.832   3.841   0.696  1.9890  0.6702  1.3757
19250TIP3    H279166   4.869   3.694   0.698  0.9146  0.3752  0.7240
19251TIP3   OH279167   6.316   3.752  13.853  0.2123 -0.0382  0.1035
19251TIP3    H179168   6.393   3.789  13.896  0.5097  0.5409 -0.9009
19251TIP3    H279169   6.351   3.692  13.787 -0.2277 -0.4159  0.2023
19252TIP3   OH279170   0.992   6.176   0.172 -0.2718  0.0453  0.6024
19252TIP3    H179171   1.029   6.231   0.241 -0.5413  0.2535  0.5828
19252TIP3    H279172   0.938   6.113   0.218 -1.0721  0.6687  0.5366
19253TIP3   OH279173   1.653   6.543  14.242 -0.4770 -0.1213  0.2614
19253TIP3    H179174   1.596   6.620  14.247 -2.0921 -1.2699  0.2913
19253TIP3    H279175   1.703   6.554  14.161  0.6064  1.7693  1.1182
19254TIP3   OH279176   4.143   1.071   4.206 -0.2114 -0.0982 -0.0741
19254TIP3    H179177   4.125   1.038   4.294 -1.2927  0.7976  0.0606
19254TIP3    H279178   4.140   1.166   4.214  1.1724  0.0319 -0.7923
19255TIP3   OH279179   2.255   6.146  10.146  0.2494 -0.0430 -0.2848
19255TIP3    H179180   2.203   6.067  10.131 -0.6675  0.6042 -0.6052
19255TIP3    H279181   2.344   6.121  10.121 -0.4502 -0.2804 -2.7749
19256TIP3   OH279182   5.260   1.109  16.625 -0.1991 -0.1230 -0.6798
19256TIP3    H179183   5.263   1.101  16.530 -1.7818  1.5704 -0.9496
19256TIP3    H279184   5.349   1.092  16.654 -0.1196 -2.8023 -2.2223
19257TIP3   OH279185   2.625   0.778  15.746 -0.0643  0.3565 -0.2234
19257TIP3    H179186   2.629   0.874  15.745  1.2046  0.3891 -3.1974
19257TIP3    H279187   2.631   0.755  15.839  0.3211  3.1364  0.5466
19258TIP3   OH279188   3.883   4.861   4.068 -0.6318  0.2969  0.3555
19258TIP3    H179189   3.872   4.797   3.997 -1.9239  0.4871  0.3534
19258TIP3    H279190   3.957   4.827   4.119 -0.9830 -0.9597  0.0848
19259TIP3   OH279191   3.750   4.076   0.317  0.7697  0.1667  0.0049
19259TIP3    H179192   3.708   4.161   0.314 -1.4706 -0.8467  0.2974
19259TIP3    H279193   3.691   4.018   0.269  2.3270 -1.2024 -0.3722
19260TIP3   OH279194   2.735   6.350   2.049 -0.2313  0.6173 -0.2690
19260TIP3    H179195   2.646   6.374   2.023  0.5446  2.7462 -1.1567
19260TIP3    H279196   2.731   6.343   2.145 -1.1738  1.5285 -0.2241
19261TIP3   OH279197   0.286   2.625   5.235  0.0085 -0.7623  0.1135
19261TIP3    H179198   0.233   2.579   5.169  0.8496 -1.9625  0.2337
19261TIP3    H279199   0.331   2.693   5.186 -0.4703 -0.7279 -0.2824
19262TIP3   OH279200   4.499   4.559  14.733  0.4296 -0.3908  0.0687
19262TIP3    H179201   4.468   4.550  14.824 -0.7235  0.2468 -0.2382
19262TIP3    H279202   4.565   4.628  14.737  1.0664 -1.0057  0.5571
19263TIP3   OH279203   5.374   1.483  13.832 -0.2526  0.1234  0.2274
19263TIP3    H179204   5.324   1.565  13.828  0.7766  0.7261 -1.1009
19263TIP3    H279205   5.463   1.511  13.851  0.0701 -0.7017 -0.0465
19264TIP3   OH279206   5.047   3.622  15.655  0.1046 -0.8900  0.0124
19264TIP3    H179207   5.127   3.673  15.668  0.4485 -0.7950 -2.1125
19264TIP3    H279208   5.074   3.531  15.666  0.3862 -0.8312 -0.1854
19265TIP3   OH279209   5.442   2.463  15.490  0.1881  0.1717 -0.3336
19265TIP3    H179210   5.356   2.427  15.512  0.6432 -0.2824  0.7597
19265TIP3    H279211   5.502   2.389  15.500  1.1172  1.1495  1.7987
19266TIP3   OH279212   1.469   1.619   4.117  1.1504  0.1041 -0.2553
19266TIP3    H179213   1.534   1.667   4.065  2.9546 -1.0578  0.8157
19266TIP3    H279214   1.518   1.546   4.154 -1.2900 -2.2292 -1.2692
19267TIP3   OH279215   1.629   4.632  11.867 -0.2065 -0.2032 -0.6887
19267TIP3    H179216   1.592   4.720  11.876 -2.5987 -0.9776 -2.0330
19267TIP3    H279217   1.705   4.642  11.810  1.5402  1.3769  1.7174
19268TIP3   OH279218   0.016   2.463  12.158 -0.0562  0.1217 -0.5352
19268TIP3    H179219  -0.000   2.384  12.210  0.0222  0.4805  0.0486
19268TIP3    H279220  -0.070   2.490  12.128 -0.2322  0.4525  0.2283
19269TIP3   OH279221   0.340   0.277   4.945  0.1920 -0.5101 -0.9460
19269TIP3    H179222   0.254   0.309   4.917  0.4347  1.6195  0.4934
19269TIP3    H279223   0.397   0.353   4.936  0.7945 -0.3342  2.7967
19270TIP3   OH279224   4.068   5.612   5.247  0.0009 -0.2949 -0.1590
19270TIP3    H179225   4.096   5.686   5.301  0.3800 -1.0779  0.7467
19270TIP3    H279226   4.012   5.561   5.304  0.6609 -1.3104 -0.3929
19271TIP3   OH279227   4.638   0.248  16.054 -0.6437  0.8628  0.1225
19271TIP3    H179228   4.730   0.259  16.028  0.3668  0.0957  3.0277
19271TIP3    H279229   4.633   0.158  16.086 -2.1412  1.2398  1.0192
19272TIP3   OH279230   6.404   1.316  15.367  0.2362  0.1385  0.1773
19272TIP3    H179231   6.346   1.243  15.347 -0.8647  1.0317 -0.0256
19272TIP3    H279232   6.415   1.313  15.462 -2.5740  1.6077  0.6944
19273TIP3   OH279233   4.285   1.777  11.812  0.8439 -0.4883  0.3211
19273TIP3    H179234   4.372   1.766  11.773  1.6158 -0.3371  1.8886
19273TIP3    H279235   4.264   1.869  11.800  1.8726 -0.0240  1.7304
19274TIP3   OH279236   2.467   1.595   3.889 -0.1066  0.0981  0.0057
19274TIP3    H179237   2.438   1.504   3.883 -0.4191  0.2242 -0.4401
19274TIP3    H279238   2.414   1.641   3.824 -0.1539  0.6477  0.4236
19275TIP3   OH279239   0.182   4.436   3.163  0.4151 -0.3421  0.3141
19275TIP3    H179240   0.184   4.527   3.192  2.9491  0.2882 -1.4861
19275TIP3    H279241   0.114   4.433   3.096 -0.1040  0.0379  0.8152
19276TIP3   OH279242   1.422   6.043   1.644 -0.1534  0.1744  0.0251
19276TIP3    H179243   1.428   6.023   1.738  0.0661 -0.0519 -0.0350
19276TIP3    H279244   1.449   6.135   1.637 -0.3640  0.2506  0.2079
19277TIP3   OH279245   1.244   0.417  10.625  0.0420 -0.0500  0.0206
19277TIP3    H179246   1.151   0.424  10.645  0.1307  0.1769  0.3637
19277TIP3    H279247   1.272   0.335  10.666 -0.3858 -1.0359 -1.5949
19278TIP3   OH279248   0.407   4.174  14.199 -0.9473  0.5694  0.3103
19278TIP3    H179249   0.468   4.110  14.236 -2.2738 -0.6633  0.4344
19278TIP3    H279250   0.461   4.226  14.138  0.4628  0.2955  1.2704
19279TIP3   OH279251   6.622   1.346  14.476  0.3645  0.0144 -0.1208
19279TIP3    H179252   6.607   1.305  14.561 -2.8297 -2.4213 -1.6133
19279TIP3    H279253   6.548   1.406  14.466  1.0744  0.7767 -0.9391
19280TIP3   OH279254   3.186   5.221  10.560 -0.2210 -0.4513 -0.0176
19280TIP3    H179255   3.215   5.304  10.598  0.6310  0.0591 -1.6967
19280TIP3    H279256   3.093   5.217  10.582 -0.2708  0.9412  0.1540
19281TIP3   OH279257   3.318   5.177  12.358 -0.6363  0.1222  0.3604
19281TIP3    H179258   3.334   5.127  12.277  0.4570  0.3154  0.4429
19281TIP3    H279259   3.295   5.264  12.328 -3.0637 -0.5079  0.1979
19282TIP3   OH279260   0.625   1.778   4.933 -0.1259  0.1059 -0.4108
19282TIP3    H179261   0.560   1.754   4.999 -0.2007  0.0592 -0.5017
19282TIP3    H279262   0.579   1.839   4.876  0.4508  1.5432  0.5925
19283TIP3   OH279263   6.674   3.785  16.974  0.1325  0.0439  0.2794
19283TIP3    H179264   6.753   3.818  16.931  0.8985 -0.9522  0.8391
19283TIP3    H279265   6.615   3.860  16.978  1.2624  0.9675  0.3131
19284TIP3   OH279266   2.745   5.753  14.506  0.2541 -0.3311 -0.2922
19284TIP3    H179267   2.741   5.739  14.412  0.6897 -0.3216 -0.3158
19284TIP3    H279268   2.838   5.750  14.526  0.1567 -0.4055  0.1508
19285TIP3   OH279269   5.377   5.550  15.096  0.2222 -0.2483 -0.1465
19285TIP3    H179270   5.350   5.596  15.017 -0.1992 -1.9404 -1.0313
19285TIP3    H279271   5.472   5.561  15.099  0.0331  1.5664  0.2797
19286TIP3   OH279272   1.712   5.099  16.699  0.5020  0.3277 -0.4289
19286TIP3    H179273   1.805   5.091  16.676  0.9469  0.4383  1.2487
19286TIP3    H279274   1.704   5.185  16.739  0.1085 -0.4257  1.2207
19287TIP3   OH279275   0.975   4.517  13.224 -0.1209  0.0783  0.1185
19287TIP3    H179276   0.894   4.542  13.268  0.0969  3.4949 -1.1119
19287TIP3    H279277   1.022   4.464  13.288 -2.4048 -0.2532  1.6300
19288TIP3   OH279278   5.397   1.394  11.141  0.1556 -0.1537  0.1171
19288TIP3    H179279   5.461   1.354  11.082  0.7179  2.9930 -1.6023
19288TIP3    H279280   5.313   1.385  11.094  0.0945 -0.3450  0.2645
19289TIP3   OH279281   1.868   0.962   4.299  0.2740  0.4299 -0.2293
19289TIP3    H179282   1.894   0.895   4.235  1.0354  0.6318 -0.1443
19289TIP3    H279283   1.841   0.912   4.376  0.5595  0.2109 -0.2696
19290TIP3   OH279284   0.942   5.809  13.908  0.5001 -0.2075  0.3417
19290TIP3    H179285   0.928   5.718  13.882  0.0572 -0.2881  0.8468
19290TIP3    H279286   0.904   5.815  13.996  1.0238  0.3225  0.5424
19291TIP3   OH279287   1.640   2.602  11.580  0.5377 -0.2701  0.0514
19291TIP3    H179288   1.713   2.633  11.634  1.6341 -0.7972 -1.0651
19291TIP3    H279289   1.649   2.650  11.498 -1.6006  1.1450  0.5802
19292TIP3   OH279290   2.158   0.362   0.924 -0.0863  0.3627  0.2674
19292TIP3    H179291   2.140   0.447   0.883 -1.8027  1.1330  2.4137
19292TIP3    H279292   2.112   0.366   1.008  1.4143 -1.9701  1.2910
19293TIP3   OH279293   5.950   3.687  16.838 -0.0365 -0.4557 -0.1789
19293TIP3    H179294   6.031   3.701  16.887  0.0950 -0.9460 -0.2425
19293TIP3    H279295   5.893   3.639  16.898 -0.1863 -0.3282 -0.2196
19294TIP3   OH279296   2.899   2.263  11.665 -0.5260 -0.1102  0.1966
19294TIP3    H179297   2.963   2.322  11.625  0.7855 -0.4315  1.6969
19294TIP3    H279298   2.839   2.321  11.711 -0.3329  0.1442  0.1331
19295TIP3   OH279299   2.730   4.580   4.828  0.2929  0.1260 -0.1344
19295TIP3    H179300   2.645   4.582   4.870  0.8257  0.8075  0.9403
19295TIP3    H279301   2.710   4.576   4.734 -0.9425  2.0218 -0.0048
19296TIP3   OH279302   4.300   5.555   0.513  0.0691  0.0628 -0.0640
19296TIP3    H179303   4.306   5.544   0.608 -3.2055  0.1871  0.2948
19296TIP3    H279304   4.279   5.467   0.481 -0.9306  0.3936 -0.3611
19297TIP3   OH279305   4.802   0.535  13.554  0.0268 -0.0691  0.5134
19297TIP3    H179306   4.724   0.517  13.606 -1.0264  0.7734 -0.6953
19297TIP3    H279307   4.817   0.455  13.504 -0.5593  0.0332  0.1618
19298TIP3   OH279308   5.221   4.158  13.800  0.5737 -0.3359 -0.4115
19298TIP3    H179309   5.311   4.171  13.768  0.8835 -1.2251  0.0586
19298TIP3    H279310   5.209   4.227  13.865  0.1478  1.1200 -1.9418
19299TIP3   OH279311   4.477   1.013   1.783 -0.1402  0.2339  0.0508
19299TIP3    H179312   4.487   0.946   1.715 -0.9129 -2.0633  2.0369
19299TIP3    H279313   4.401   0.984   1.834 -0.0036  2.2157  1.5064
19300TIP3   OH279314   5.782   0.260  12.239  0.7179  0.4255 -0.4558
19300TIP3    H179315   5.844   0.231  12.172 -0.0387 -1.8153 -0.2704
19300TIP3    H279316   5.837   0.291  12.310  1.5873  0.2918 -1.0478
19301TIP3   OH279317   6.786   4.594  11.879  0.0693 -0.2698 -0.4277
19301TIP3    H179318   6.756   4.684  11.895  0.9390 -0.0963  0.3106
19301TIP3    H279319   6.837   4.600  11.798 -1.5543 -0.5097 -1.5213
19302TIP3   OH279320   6.573   1.763  14.322 -0.2207 -0.0606  0.2514
19302TIP3    H179321   6.644   1.705  14.293 -0.7284  0.6590 -2.8408
19302TIP3    H279322   6.506   1.752  14.255 -0.7032  3.4135  0.0092
19303TIP3   OH279323   0.899   5.400   0.710 -0.2172  0.5164  0.1622
19303TIP3    H179324   0.945   5.324   0.676 -0.0468  0.6354  0.1292
19303TIP3    H279325   0.806   5.382   0.693 -0.2378 -0.0216  0.8143
19304TIP3   OH279326   0.710   5.314   5.621  0.1488  0.2543  0.3342
19304TIP3    H179327   0.711   5.361   5.704  1.9584  3.4245 -1.3062
19304TIP3    H279328   0.693   5.381   5.555 -1.4953 -2.1610 -1.9521
19305TIP3   OH279329   4.792   5.900  12.097 -0.0036  0.0693  0.2137
19305TIP3    H179330   4.733   5.949  12.153  0.6216  0.6747  0.3515
19305TIP3    H279331   4.738   5.831  12.059 -0.1814 -1.1781  2.5390
19306TIP3   OH279332   0.965   2.346   5.238  0.0664 -0.0694  0.2646
19306TIP3    H179333   0.901   2.413   5.263  0.8320  0.9292 -0.3952
19306TIP3    H279334   0.917   2.263   5.248 -3.0595  0.7255 -4.6443
19307TIP3   OH279335   1.523   5.834  13.377 -0.3140  0.1023 -0.0703
19307TIP3    H179336   1.495   5.886  13.301 -0.4500 -2.0846 -1.5952
19307TIP3    H279337   1.445   5.829  13.432  0.1660  2.9021  1.0367
19308TIP3   OH279338   2.422   5.651   4.105 -0.3169 -0.2323 -0.1321
19308TIP3    H179339   2.432   5.711   4.031 -1.2876 -2.5094 -2.2135
19308TIP3    H279340   2.508   5.650   4.147  0.0583  1.6186 -0.7458
19309TIP3   OH279341   2.148   1.206   4.781 -0.0756  0.9164  0.5320
19309TIP3    H179342   2.098   1.258   4.718 -1.0592 -0.9882 -0.3722
19309TIP3    H279343   2.119   1.116   4.766  0.6622  0.2182  2.8274
19310TIP3   OH279344   2.153   4.094  13.006 -0.4927 -0.1031 -0.1414
19310TIP3    H179345   2.068   4.128  13.033 -0.6566 -0.1476 -0.5799
19310TIP3    H279346   2.160   4.119  12.914 -0.9648 -1.8937 -0.7054
19311TIP3   OH279347   2.066   0.708  12.545  0.2734 -0.1666 -0.1504
19311TIP3    H179348   2.115   0.781  12.506 -0.6258 -0.6320 -2.2930
19311TIP3    H279349   2.125   0.633  12.539  1.2106  0.2919  2.0818
19312TIP3   OH279350   2.881   5.208   0.800 -0.0677 -0.4332  0.0156
19312TIP3    H179351   2.960   5.234   0.752  0.7979 -1.7351  0.7037
19312TIP3    H279352   2.846   5.290   0.834  1.8103  0.0397  0.9410
19313TIP3   OH279353   5.743   2.831   5.896 -0.0338 -0.3665  0.1069
19313TIP3    H179354   5.825   2.785   5.913  0.1396 -0.4629 -0.9406
19313TIP3    H279355   5.676   2.762   5.899 -0.1108 -0.2644  1.1096
19314TIP3   OH279356   0.616   4.092   0.625 -0.5660 -0.1780  0.4050
19314TIP3    H179357   0.707   4.106   0.598  0.2258 -0.0020  2.9356
19314TIP3    H279358   0.588   4.013   0.578  0.1734  0.8314 -1.9142
19315TIP3   OH279359   4.872   3.373   1.431 -0.1540 -0.0667  0.1828
19315TIP3    H179360   4.781   3.346   1.446 -0.3381  0.1478 -0.5058
19315TIP3    H279361   4.900   3.410   1.514 -0.7748  0.0776  0.3328
19316TIP3   OH279362   0.016   3.441   5.252  0.1177 -0.2814  0.3074
19316TIP3    H179363  -0.032   3.399   5.181  1.0785 -0.5068 -0.2255
19316TIP3    H279364   0.107   3.417   5.238  0.4224  0.2560  1.2116
19317TIP3   OH279365   3.423   4.039  10.401 -0.0896  0.3902 -0.2150
19317TIP3    H179366   3.450   4.124  10.366 -0.3485  0.6519  0.2169
19317TIP3    H279367   3.337   4.055  10.440  0.1660  0.0939  0.4925
19318TIP3   OH279368   5.235   1.428   2.631 -0.0605  0.1343  0.3511
19318TIP3    H179369   5.166   1.470   2.579  1.3754  0.8474 -1.0664
19318TIP3    H279370   5.292   1.387   2.566  0.3845 -1.1813  1.5419
19319TIP3   OH279371   2.546   4.089  15.773 -0.9345  0.1549  0.0413
19319TIP3    H179372   2.600   4.165  15.752 -1.1800  0.5527  0.8245
19319TIP3    H279373   2.461   4.108  15.734 -0.9029  0.1324 -0.0388
19320TIP3   OH279374   5.736   1.801  13.542 -0.2500  0.6170  0.3303
19320TIP3    H179375   5.768   1.723  13.497 -2.9184 -0.1324 -0.4251
19320TIP3    H279376   5.751   1.872  13.480  0.4070  0.3831  0.2139
19321TIP3   OH279377   4.517   2.442   2.724 -0.8316  0.1714 -0.1547
19321TIP3    H179378   4.602   2.482   2.708 -1.1678  0.2699 -1.9130
19321TIP3    H279379   4.488   2.480   2.807 -0.2498  2.0580 -0.7492
19322TIP3   OH279380   1.936   6.312  14.085 -0.7022 -0.2380  0.3982
19322TIP3    H179381   1.981   6.306  14.000  0.4557  1.4919  0.8512
19322TIP3    H279382   2.003   6.287  14.149 -0.8914  0.6832  0.9605
19323TIP3   OH279383   4.715   6.291  11.969  0.0611 -0.3813 -0.1582
19323TIP3    H179384   4.660   6.369  11.959  0.0042 -0.6679 -2.6022
19323TIP3    H279385   4.792   6.323  12.016  0.2034  1.2772 -1.4146
19324TIP3   OH279386   0.646   2.540  14.593 -0.2930  0.1636  0.6630
19324TIP3    H179387   0.601   2.518  14.675  0.1082 -1.3700  0.4871
19324TIP3    H279388   0.624   2.469  14.534  1.1290  0.1755  0.0873
19325TIP3   OH279389   5.398   0.473  10.479 -0.2128 -0.1498  0.2379
19325TIP3    H179390   5.463   0.460  10.410  0.5166 -0.7777  1.0094
19325TIP3    H279391   5.331   0.528  10.440  0.8726  0.6683 -0.5424
19326TIP3   OH279392   3.030   0.514  13.753  0.2300  0.1365  0.4351
19326TIP3    H179393   3.031   0.596  13.801 -1.5241  0.0853  0.6561
19326TIP3    H279394   2.950   0.519  13.700  1.6652 -0.1510 -1.9000
19327TIP3   OH279395   1.699   6.748  10.674  0.8467 -0.2734  0.7423
19327TIP3    H179396   1.749   6.673  10.642 -0.5608 -0.5528 -0.9138
19327TIP3    H279397   1.766   6.809  10.707  2.2607 -0.8228 -0.9549
19328TIP3   OH279398   5.483   6.657   0.276  0.8168 -0.0084 -0.0223
19328TIP3    H179399   5.576   6.648   0.294  1.0461  0.0348 -1.1181
19328TIP3    H279400   5.455   6.731   0.331  0.7580 -1.8099  2.5390
19329TIP3   OH279401   3.916   2.707  16.358 -0.0782  0.2868 -0.0461
19329TIP3    H179402   3.997   2.717  16.309 -0.0669  2.6694  0.3447
19329TIP3    H279403   3.899   2.612  16.358  2.2319 -0.1855 -0.8338
19330TIP3   OH279404   5.851   2.500   4.664 -0.0786 -0.4119  0.2071
19330TIP3    H179405   5.899   2.469   4.587  1.5487 -0.6484  1.2686
19330TIP3    H279406   5.837   2.422   4.717  0.4478  0.0357  1.0102
19331TIP3   OH279407   0.907   3.848  14.726 -0.7200  0.1007  0.2441
19331TIP3    H179408   0.985   3.818  14.773 -0.5827 -0.6833 -0.4524
19331TIP3    H279409   0.930   3.936  14.696 -0.6986  0.4884  1.3586
19332TIP3   OH279410   0.060   1.047  14.704 -0.5493 -0.7231  0.3346
19332TIP3    H179411   0.061   1.109  14.632 -3.1017  0.6640  1.3723
19332TIP3    H279412   0.061   0.961  14.662  1.2456 -0.0455 -1.1757
19333TIP3   OH279413   1.827   5.455  10.976 -0.8137  0.1328  0.4298
19333TIP3    H179414   1.919   5.452  10.951 -0.7172 -0.1478  0.8059
19333TIP3    H279415   1.793   5.368  10.954 -1.3701  0.7167 -1.1082
19334TIP3   OH279416   1.710   0.224   0.825 -0.2944  0.3173  0.2047
19334TIP3    H179417   1.697   0.302   0.771 -2.0550  1.1365  1.7119
19334TIP3    H279418   1.621   0.194   0.846  0.3122 -2.4910 -0.8080
19335TIP3   OH279419   6.589   0.795   0.329  0.2333  0.2673 -0.3574
19335TIP3    H179420   6.635   0.715   0.306  1.3910  1.0377 -0.7800
19335TIP3    H279421   6.498   0.780   0.302  0.1138 -1.4075  0.8131
19336TIP3   OH279422   6.566   0.342   1.968  0.3810 -0.2032 -0.4029
19336TIP3    H179423   6.545   0.301   2.052 -0.7829  0.8872 -0.1295
19336TIP3    H279424   6.485   0.338   1.918  0.8851 -0.2524 -1.2354
19337TIP3   OH279425   4.238   3.546   0.651  0.2921 -0.0404 -0.4682
19337TIP3    H179426   4.169   3.481   0.665 -2.3133  2.6348  0.0648
19337TIP3    H279427   4.262   3.575   0.739  1.3182 -0.1467 -0.7037
19338TIP3   OH279428   0.535   5.744  15.292  0.3926  0.3974 -0.3065
19338TIP3    H179429   0.527   5.825  15.242 -1.0745  0.5226  0.0711
19338TIP3    H279430   0.576   5.771  15.375  0.9431  0.5440 -0.6199
19339TIP3   OH279431   3.623   2.159   1.412  0.2855  0.0993  0.2360
19339TIP3    H179432   3.599   2.155   1.504 -0.2632 -0.2541  0.0808
19339TIP3    H279433   3.539   2.162   1.365  0.5144 -1.3191 -0.3197
19340TIP3   OH279434   0.119   0.883  12.828 -0.0202 -0.2771 -0.3413
19340TIP3    H179435   0.190   0.883  12.764  0.2042  1.0601 -0.1395
19340TIP3    H279436   0.154   0.934  12.901 -0.6283 -0.9425  0.4262
19341TIP3   OH279437   1.144   1.708  16.784  0.1244 -1.1328 -0.2646
19341TIP3    H179438   1.093   1.628  16.780  1.3260 -1.9388 -0.2258
19341TIP3    H279439   1.092   1.767  16.837  0.5546 -2.9674  2.4092
19342TIP3   OH279440   6.671   6.800   0.107 -0.4132  0.6893  0.0635
19342TIP3    H179441   6.657   6.895   0.100 -0.7242  0.5927 -0.5946
19342TIP3    H279442   6.707   6.789   0.195 -0.5548  1.3979  0.2200
19343TIP3   OH279443   0.983   4.155   5.817  0.5423 -0.2784  0.8106
19343TIP3    H179444   0.925   4.168   5.892 -0.8085 -0.3163 -0.2072
19343TIP3    H279445   1.052   4.097   5.851  0.6180  0.6545  2.3354
19344TIP3   OH279446   4.827   5.665   1.840  0.8798 -0.3687 -0.0181
19344TIP3    H179447   4.815   5.631   1.928 -0.2298 -0.6891 -0.2745
19344TIP3    H279448   4.775   5.606   1.784 -2.4243  2.4748 -0.3203
19345TIP3   OH279449   3.335   3.967   3.716 -0.4683 -0.2692  0.0369
19345TIP3    H179450   3.386   4.046   3.734 -1.0613 -0.0386  0.8044
19345TIP3    H279451   3.394   3.909   3.669  0.4819  0.0121  0.8574
19346TIP3   OH279452   5.270   2.642   3.909 -0.0013  0.6362  0.1152
19346TIP3    H179453   5.238   2.555   3.888  1.4705 -0.1217  0.8537
19346TIP3    H279454   5.343   2.656   3.847  1.3955  0.2602  1.5987
19347TIP3   OH279455   1.250   5.244   0.630 -0.1513  0.2610  0.0161
19347TIP3    H179456   1.344   5.251   0.644 -0.1784  1.3027 -0.2645
19347TIP3    H279457   1.220   5.185   0.699  0.4171  1.4861  1.3621
19348TIP3   OH279458   3.345   0.663  15.499  0.0597 -0.2577  0.3617
19348TIP3    H179459   3.325   0.756  15.490  2.4009  0.1934 -0.9165
19348TIP3    H279460   3.402   0.658  15.576  1.6722 -0.2592 -0.7742
19349TIP3   OH279461   5.336   4.017   5.143  0.5946  0.6372 -0.2188
19349TIP3    H179462   5.415   4.033   5.091  0.8944 -0.9158 -0.2899
19349TIP3    H279463   5.353   3.934   5.188 -2.0551 -1.2862 -2.4179
19350TIP3   OH279464   4.695   0.764   1.384  0.3415 -0.4215  0.0764
19350TIP3    H179465   4.666   0.784   1.296  2.0161 -0.2246 -0.4612
19350TIP3    H279466   4.719   0.672   1.381 -0.3658 -0.6287  0.5575
19351TIP3   OH279467   5.087   5.867  13.436 -0.1827 -0.1622  0.7618
19351TIP3    H179468   5.164   5.838  13.485  0.2402  1.1648  0.8999
19351TIP3    H279469   5.047   5.785  13.405  0.3745 -0.9618  2.0357
19352TIP3   OH279470   4.212   4.386  16.310  0.2859 -0.0238  0.1664
19352TIP3    H179471   4.305   4.407  16.317  0.7276 -2.1524  2.6072
19352TIP3    H279472   4.207   4.326  16.236  0.6883  0.7584 -0.5124
19353TIP3   OH279473   0.955   3.698   1.688  0.4823  0.4158 -0.1550
19353TIP3    H179474   0.912   3.758   1.628 -1.3512 -0.7088 -0.0299
19353TIP3    H279475   0.924   3.726   1.775 -1.3384 -1.3486 -0.1683
19354TIP3   OH279476   1.833   2.675  11.790  0.6399  0.0888  0.0332
19354TIP3    H179477   1.815   2.601  11.848  0.1500  1.1558  1.3028
19354TIP3    H279478   1.915   2.652  11.746 -0.6659 -2.2517 -1.4304
19355TIP3   OH279479   5.909   4.900  16.571  0.2327 -0.2675 -0.1501
19355TIP3    H179480   5.814   4.899  16.554 -0.0364  1.1311  1.0887
19355TIP3    H279481   5.936   4.988  16.548  1.1234 -0.4715  0.1052
19356TIP3   OH279482   6.787   3.079  12.413  0.2371  0.1309  0.3714
19356TIP3    H179483   6.708   3.056  12.461 -0.1582  0.1973 -0.2346
19356TIP3    H279484   6.833   2.996  12.400 -0.7624 -0.2422 -1.0646
19357TIP3   OH279485   1.419   1.766   3.868  0.3188  0.1602 -0.7851
19357TIP3    H179486   1.475   1.806   3.801  0.5925 -0.1899 -0.7674
19357TIP3    H279487   1.393   1.682   3.830  0.2095  0.1031 -0.5859
19358TIP3   OH279488   2.421   0.520  13.385  0.0769 -0.0748  0.1192
19358TIP3    H179489   2.349   0.477  13.431  1.4052 -0.7895  1.6200
19358TIP3    H279490   2.479   0.550  13.454  0.3114  2.2038 -0.9816
19359TIP3   OH279491   0.612   5.497  16.134 -0.4192  0.1617 -0.2618
19359TIP3    H179492   0.679   5.565  16.145  1.1223 -1.4612  0.8878
19359TIP3    H279493   0.582   5.478  16.223 -1.0684 -0.4577 -0.6044
19360TIP3   OH279494   0.657   0.430  15.969  0.0347  0.0876  0.1675
19360TIP3    H179495   0.629   0.442  15.879 -0.1178 -1.2622  0.0146
19360TIP3    H279496   0.636   0.513  16.012  0.3021  0.8217 -1.0692
19361TIP3   OH279497   6.533   4.526  14.956 -0.6591 -0.1030 -0.4195
19361TIP3    H179498   6.628   4.514  14.958 -0.8700 -2.6068 -0.8593
19361TIP3    H279499   6.518   4.585  14.882  0.5676  0.6062 -0.1253
19362TIP3   OH279500   2.688   0.457  14.222 -0.4881 -0.3619 -1.0351
19362TIP3    H179501   2.640   0.387  14.179  0.2208 -1.5387  0.0233
19362TIP3    H279502   2.778   0.424  14.230  0.2140  1.2492 -1.7813
19363TIP3   OH279503   2.902   3.218  17.029  0.4446 -0.4499  0.1662
19363TIP3    H179504   2.938   3.218  16.940 -1.7251 -2.0859 -0.8488
19363TIP3    H279505   2.967   3.172  17.081  0.8668 -1.3619 -1.0910
19364TIP3   OH279506   3.105   0.817  13.462 -0.4047 -0.6695 -0.0693
19364TIP3    H179507   3.084   0.893  13.516 -0.2815  0.7112 -1.8921
19364TIP3    H279508   3.035   0.813  13.397  0.4479 -1.1280 -0.9879
19365TIP3   OH279509   3.922   0.589   4.470 -0.1306 -0.6531 -0.1721
19365TIP3    H179510   3.889   0.518   4.525 -0.3615 -0.5152 -0.1335
19365TIP3    H279511   3.946   0.546   4.388 -0.7343 -0.7031 -0.3296
19366TIP3   OH279512   1.189   5.534   4.603  0.2171  0.0953  0.4581
19366TIP3    H179513   1.271   5.504   4.564  0.5203 -0.7019  1.6667
19366TIP3    H279514   1.207   5.542   4.696 -0.8352  0.7878  0.6266
19367TIP3   OH279515   2.494   5.438  15.529 -0.3335 -0.6007  0.2425
19367TIP3    H179516   2.494   5.518  15.581  2.2554 -0.1407 -0.2901
19367TIP3    H279517   2.543   5.461  15.450 -1.7326 -2.0466 -1.1302
19368TIP3   OH279518   0.193   6.537  11.218  0.5364 -0.1341  0.8085
19368TIP3    H179519   0.187   6.458  11.165  1.1840  1.1650 -1.3806
19368TIP3    H279520   0.259   6.591  11.172 -0.7877  2.1753  1.4347
19369TIP3   OH279521   1.718   2.832  16.464 -0.3588 -0.3515  0.2511
19369TIP3    H179522   1.753   2.755  16.419 -0.8584 -0.6032  0.2856
19369TIP3    H279523   1.639   2.854  16.415 -0.2327  0.1209  0.2623
19370TIP3   OH279524   4.707   3.594  13.728 -0.0350  0.2320 -0.2233
19370TIP3    H179525   4.689   3.653  13.656 -2.9116  2.6841  2.2042
19370TIP3    H279526   4.640   3.526  13.721  0.3029 -0.0910 -0.3785
19371TIP3   OH279527   5.706   5.258   5.194  0.9646  0.4867 -0.6767
19371TIP3    H179528   5.686   5.165   5.187  0.7610  0.5934 -1.5781
19371TIP3    H279529   5.771   5.263   5.264  1.8650 -0.4751 -1.4185
19372TIP3   OH279530   2.078   4.075  14.152  0.4295 -0.0817 -0.0584
19372TIP3    H179531   2.017   4.147  14.165  1.1570  0.3058  1.4447
19372TIP3    H279532   2.044   4.027  14.077  0.1955  2.0816 -1.3968
19373TIP3   OH279533   5.618   0.093   4.886 -0.3247  0.0994  0.1097
19373TIP3    H179534   5.569   0.147   4.949 -0.5530 -1.9280  1.7570
19373TIP3    H279535   5.620   0.006   4.925  0.0901 -1.1137 -2.4372
19374TIP3   OH279536   3.633   4.609  11.821 -0.2641  0.0445 -0.7796
19374TIP3    H179537   3.647   4.703  11.813  2.9458 -0.4029 -1.6117
19374TIP3    H279538   3.582   4.586  11.743  0.6740  0.8311 -1.6624
19375TIP3   OH279539   6.375   5.497  16.225  0.5225 -0.3271 -0.2129
19375TIP3    H179540   6.346   5.544  16.303  0.2487  1.6028 -1.4074
19375TIP3    H279541   6.470   5.499  16.229  0.5158 -0.7148  0.3123
19376TIP3   OH279542   4.143   2.129  11.542 -0.2287 -0.1697  0.4889
19376TIP3    H179543   4.076   2.187  11.505 -0.4006 -1.0476 -0.6360
19376TIP3    H279544   4.198   2.106  11.467  1.2323  0.3654  1.3550
19377TIP3   OH279545   6.327   5.226  13.741  0.4716 -0.7720  0.7397
19377TIP3    H179546   6.313   5.320  13.734  4.5999 -0.1226 -1.6407
19377TIP3    H279547   6.378   5.214  13.820 -0.3595 -1.1363  1.2421
19378TIP3   OH279548   1.404   2.301   2.051 -0.0901 -0.2462  0.1693
19378TIP3    H179549   1.491   2.339   2.052  0.6349 -1.7791 -0.9086
19378TIP3    H279550   1.386   2.284   1.958 -2.7324  2.5774 -0.0116
19379TIP3   OH279551   5.510   4.328   2.780  0.0004  0.5459 -0.3013
19379TIP3    H179552   5.511   4.423   2.768 -0.1067  0.3928 -1.7847
19379TIP3    H279553   5.436   4.298   2.727  1.4473 -0.5604 -1.7937
19380TIP3   OH279554   1.754   6.198   6.083  0.0736  0.6224 -0.3774
19380TIP3    H179555   1.712   6.119   6.049  0.7851 -0.3344  0.8674
19380TIP3    H279556   1.842   6.169   6.108  0.4851  1.9065 -0.2705
19381TIP3   OH279557   4.302   1.506  10.840  0.4982 -0.1233 -0.3546
19381TIP3    H179558   4.378   1.448  10.850  0.0332 -0.7714 -0.5420
19381TIP3    H279559   4.336   1.580  10.790  1.2523  0.0824  0.4127
19382TIP3   OH279560   6.708   5.124  13.734 -0.0035  0.1645 -0.3999
19382TIP3    H179561   6.716   5.123  13.829 -1.3707 -2.5410 -0.2351
19382TIP3    H279562   6.797   5.106  13.703  0.2244 -0.1533  0.4007
19383TIP3   OH279563   1.072   0.594  15.769 -0.2276  0.0452 -0.4728
19383TIP3    H179564   1.127   0.671  15.758  0.7386 -0.6617 -0.6990
19383TIP3    H279565   1.133   0.523  15.789 -1.2592 -0.2568  1.9325
19384TIP3   OH279566   1.580   2.742  13.727 -0.0392  0.2261  0.2836
19384TIP3    H179567   1.510   2.677  13.736  0.2186 -0.1398 -0.3463
19384TIP3    H279568   1.539   2.824  13.753 -1.2482  0.3477 -1.7988
19385TIP3   OH279569   1.405   6.317   0.142  0.0749  0.1538  0.1551
19385TIP3    H179570   1.453   6.399   0.151  0.1148  0.0102  1.3384
19385TIP3    H279571   1.324   6.330   0.191  1.1153 -1.2885  2.4358
19386TIP3   OH279572   1.804   5.469  12.604  0.4045 -0.2618  0.3518
19386TIP3    H179573   1.797   5.530  12.530  1.2367 -0.2595  0.2551
19386TIP3    H279574   1.881   5.500  12.653 -0.5299  0.1458  1.6113
19387TIP3   OH279575   5.478   6.342  16.912  0.9837 -0.3424 -0.1820
19387TIP3    H179576   5.441   6.254  16.917 -0.5410  0.2826 -0.1636
19387TIP3    H279577   5.450   6.385  16.993  0.6441  0.5542 -0.7547
19388TIP3   OH279578   5.863   2.978   6.132  0.4205  0.2928 -0.2497
19388TIP3    H179579   5.869   2.940   6.219  1.6305 -0.4809 -0.6594
19388TIP3    H279580   5.844   2.904   6.074  0.6003  0.6486 -0.7726
19389TIP3   OH279581   1.368   1.044  15.122  0.0138  0.0829  0.5187
19389TIP3    H179582   1.405   1.125  15.159  1.5657 -0.3881  0.0801
19389TIP3    H279583   1.336   1.070  15.036  2.2157 -0.0851 -0.4243
19390TIP3   OH279584   3.935   5.024  15.860  0.3094  0.4922  0.2348
19390TIP3    H179585   3.871   5.057  15.796 -0.8016  0.6379  1.3711
19390TIP3    H279586   3.919   5.077  15.938  0.3822 -0.8999  1.2221
19391TIP3   OH279587   2.498   2.181   2.883  0.2585  0.3797 -0.0018
19391TIP3    H179588   2.453   2.205   2.964 -0.1148  0.2579 -0.1714
19391TIP3    H279589   2.430   2.139   2.829  0.6586 -0.1216 -0.1172
19392TIP3   OH279590   4.289   5.562  14.558 -0.1088 -0.0864 -0.3331
19392TIP3    H179591   4.251   5.592  14.475 -0.3001 -0.3892 -0.3559
19392TIP3    H279592   4.217   5.561  14.620  0.3783  1.8218  0.3089
19393TIP3   OH279593   3.914   0.787   4.674 -0.0664  0.1230  1.4275
19393TIP3    H179594   3.948   0.732   4.604 -0.3379  3.0744 -1.2634
19393TIP3    H279595   3.987   0.797   4.735  2.4995  2.3507 -1.6868
19394TIP3   OH279596   5.955   5.700   2.531 -0.2010  0.0483  0.4036
19394TIP3    H179597   5.934   5.616   2.489  1.2210 -0.7718  1.2787
19394TIP3    H279598   5.900   5.701   2.610 -0.2395 -0.0514  0.3790
19395TIP3   OH279599   0.873   3.821  11.997 -0.0674 -0.2049  0.4549
19395TIP3    H179600   0.895   3.785  12.083  1.1112  1.5026  0.9150
19395TIP3    H279601   0.808   3.889  12.015  1.2913  1.2112  0.2216
19396TIP3   OH279602   3.680   2.982  13.270  1.1436 -0.3555 -0.6429
19396TIP3    H179603   3.664   2.897  13.312 -2.8215  0.9751  0.9295
19396TIP3    H279604   3.739   2.961  13.197  1.2321 -4.2432  0.3161
19397TIP3   OH279605   5.212   4.374   0.119  0.0174 -0.4989 -0.3177
19397TIP3    H179606   5.273   4.325   0.063  0.5190  0.5199 -0.6903
19397TIP3    H279607   5.145   4.406   0.058 -1.4277 -2.3050  0.1945
19398TIP3   OH279608   1.853   3.294  12.624  0.2769  0.7542 -0.5429
19398TIP3    H179609   1.773   3.241  12.630  0.3480  0.4986 -1.6181
19398TIP3    H279610   1.853   3.347  12.704 -0.9245  0.6928 -0.4835
19399TIP3   OH279611   1.427   5.904  11.490  0.4180 -0.0925  0.0178
19399TIP3    H179612   1.373   5.941  11.420  1.3005  1.5354  0.1378
19399TIP3    H279613   1.488   5.846  11.444 -0.9181 -1.3888 -0.1911
19400TIP3   OH279614   2.733   0.990  12.226  0.0102  0.4774  0.1024
19400TIP3    H179615   2.653   1.038  12.245  0.4094  0.6175  1.4780
19400TIP3    H279616   2.708   0.898  12.230 -0.1258  0.5242  0.2937
19401TIP3   OH279617   0.652   2.660   2.038 -0.7511 -0.0053  0.7434
19401TIP3    H179618   0.696   2.578   2.062  0.1541 -0.0924 -1.0261
19401TIP3    H279619   0.563   2.651   2.072 -0.7341 -1.8195  0.4140
19402TIP3   OH279620   3.508   6.559  15.487  0.0455  0.3081  0.1263
19402TIP3    H179621   3.597   6.569  15.453  0.0570  1.9679  0.5550
19402TIP3    H279622   3.462   6.637  15.457 -1.2675 -0.5081 -0.0361
19403TIP3   OH279623   6.599   0.662   4.134  0.3090 -0.1771  0.4171
19403TIP3    H179624   6.537   0.735   4.143  0.7179  0.0446  1.7318
19403TIP3    H279625   6.585   0.629   4.046  0.6232  1.9480 -0.4828
19404TIP3   OH279626   6.818   4.703   0.339  0.4085 -0.1511  0.3323
19404TIP3    H179627   6.755   4.704   0.412  0.2495 -2.4950  0.3223
19404TIP3    H279628   6.802   4.619   0.296  1.1019  0.7885 -1.9091
19405TIP3   OH279629   3.321   2.149  13.259  0.5642  0.3935  0.2344
19405TIP3    H179630   3.381   2.129  13.188  0.8748  0.5317  0.4542
19405TIP3    H279631   3.321   2.245  13.265 -0.0809  0.4213 -0.1039
19406TIP3   OH279632   4.826   5.548  12.242  0.3095 -0.5339 -0.2566
19406TIP3    H179633   4.842   5.453  12.245  0.4986 -0.4968 -0.0628
19406TIP3    H279634   4.877   5.578  12.167  0.9112 -0.4641  0.1725
19407TIP3   OH279635   0.256   3.245   2.555 -0.1402 -0.3232  0.5608
19407TIP3    H179636   0.227   3.229   2.465  0.7009 -0.2697  0.2680
19407TIP3    H279637   0.322   3.178   2.570  1.9467  1.4904  0.0508
19408TIP3   OH279638   4.317   1.010   2.753 -0.2335  0.5850  0.4905
19408TIP3    H179639   4.320   1.056   2.837  0.0595 -0.5178  1.1043
19408TIP3    H279640   4.381   0.939   2.762 -0.8625 -0.1128 -0.3233
19409TIP3   OH279641   5.932   5.127   2.819  0.5838  0.3278 -0.2292
19409TIP3    H179642   5.908   5.059   2.882 -0.6148  0.6104 -0.3625
19409TIP3    H279643   5.938   5.207   2.872 -0.3106  0.5428 -0.4287
19410TIP3   OH279644   1.971   3.821   2.338  0.2530 -0.4747 -0.4061
19410TIP3    H179645   2.049   3.870   2.363 -1.4457  1.8416  0.7034
19410TIP3    H279646   1.941   3.863   2.257 -2.5514  2.2253  1.7798
19411TIP3   OH279647   5.659   0.029  11.367  0.5377 -0.8690  0.0432
19411TIP3    H179648   5.570   0.021  11.403  0.2508  1.3791  0.0035
19411TIP3    H279649   5.665  -0.041  11.302 -1.4517 -0.7419 -0.3526
19412TIP3   OH279650   2.952   3.495  16.202  0.0951  0.3136  0.3746
19412TIP3    H179651   2.950   3.502  16.297 -0.8026  0.9514  0.3102
19412TIP3    H279652   2.907   3.413  16.183 -0.6761  0.7168  0.4458
19413TIP3   OH279653   1.288   5.327  12.607  0.4970 -0.1520  0.3428
19413TIP3    H179654   1.204   5.288  12.585  1.0387 -1.5546  0.6992
19413TIP3    H279655   1.338   5.325  12.526  0.5521 -0.2606  0.3796
19414TIP3   OH279656   2.630   4.226  12.200 -0.6889 -0.6938  0.9796
19414TIP3    H179657   2.538   4.251  12.198 -0.5532 -0.1819 -1.5939
19414TIP3    H279658   2.667   4.276  12.273 -2.4992 -1.2709  2.3656
19415TIP3   OH279659   6.545   5.632  12.883  0.3421  0.0999 -0.2630
19415TIP3    H179660   6.533   5.720  12.919  0.4879  0.2133 -0.4911
19415TIP3    H279661   6.632   5.633  12.845 -0.7069  0.7939 -2.8873
19416TIP3   OH279662   0.383   6.000   0.197  0.0516 -0.2868  0.3176
19416TIP3    H179663   0.436   6.078   0.216 -0.1467 -0.1534  0.3333
19416TIP3    H279664   0.294   6.027   0.217 -0.3726  0.3125 -2.0405
19417TIP3   OH279665   3.513   4.631  11.012  0.1871 -0.0050  0.1390
19417TIP3    H179666   3.535   4.639  11.105 -2.0509 -2.2860  0.9966
19417TIP3    H279667   3.589   4.587  10.974  0.3628 -0.7633  1.3059
19418TIP3   OH279668   3.734   3.288   4.479  0.5896  0.9097  0.7867
19418TIP3    H179669   3.807   3.225   4.476 -0.6701 -0.6680  1.3616
19418TIP3    H279670   3.713   3.296   4.572 -0.4352  0.7463  0.5852
19419TIP3   OH279671   6.300   0.398  16.411  0.0517 -0.5602  0.6485
19419TIP3    H179672   6.394   0.379  16.411  0.7854  2.1838  3.7394
19419TIP3    H279673   6.267   0.357  16.491 -0.9880  0.0535  0.5576
19420TIP3   OH279674   1.525   3.318  13.136 -0.0363 -0.2336  0.3671
19420TIP3    H179675   1.551   3.295  13.225 -0.5541  0.4150  0.6877
19420TIP3    H279676   1.435   3.348  13.143  0.4910  1.5873 -0.0692
19421TIP3   OH279677   4.413   0.956  13.638  0.3397 -0.3203 -0.3203
19421TIP3    H179678   4.409   0.871  13.595  2.2572  0.0908 -1.4783
19421TIP3    H279679   4.349   1.010  13.591 -0.5242 -0.9661  0.0935
19422TIP3   OH279680   1.371   4.993  11.605 -0.3497 -0.1725 -0.1753
19422TIP3    H179681   1.371   4.997  11.509  0.4401 -1.1454 -0.2268
19422TIP3    H279682   1.302   4.930  11.626 -1.5827  1.1581 -0.0111
19423TIP3   OH279683   4.366   2.043  11.756  0.1131  0.5136  0.3412
19423TIP3    H179684   4.304   2.060  11.685  0.9354  0.3317 -0.4231
19423TIP3    H279685   4.442   2.098  11.735 -0.1578  1.5262  1.8038
19424TIP3   OH279686   2.111   6.224   0.781  0.1702  0.1800  0.3733
19424TIP3    H179687   2.134   6.184   0.697  2.9541  0.9432  0.6848
19424TIP3    H279688   2.154   6.169   0.846 -1.8736 -0.3436  1.3858
19425TIP3   OH279689   1.771   6.456   6.039 -0.1541  0.4319 -0.5118
19425TIP3    H179690   1.679   6.480   6.044 -1.1436 -2.8284 -0.8839
19425TIP3    H279691   1.773   6.364   6.062  3.2476  0.7074  0.8741
19426TIP3   OH279692   6.388   6.292  11.077 -0.1813  0.0470  0.4771
19426TIP3    H179693   6.314   6.239  11.048 -0.1814 -0.8633  2.0334
19426TIP3    H279694   6.465   6.244  11.047 -0.1841 -0.8118  1.7723
19427TIP3   OH279695   4.327   5.441  15.215  0.2875  0.3261 -0.3358
19427TIP3    H179696   4.353   5.532  15.201  0.8257  0.0588 -1.1210
19427TIP3    H279697   4.383   5.411  15.285  0.2577  0.5343 -0.2212
19428TIP3   OH279698   0.949   4.713   1.585  0.9811  0.0968 -0.0237
19428TIP3    H179699   0.869   4.708   1.638  0.7920  1.5030 -0.1152
19428TIP3    H279700   0.959   4.626   1.547 -0.5302 -0.1032 -0.0236
19429TIP3   OH279701   1.845   4.022   4.663 -0.2278 -0.0295  0.2027
19429TIP3    H179702   1.854   4.115   4.643  1.8446 -0.3747 -0.7728
19429TIP3    H279703   1.935   3.989   4.665 -0.9188 -2.0815  0.1870
19430TIP3   OH279704   6.408   2.968  16.010  0.1608  0.4387 -0.2812
19430TIP3    H179705   6.469   2.969  16.084  1.6474  1.0715 -1.4524
19430TIP3    H279706   6.370   3.055  16.009 -0.4819  0.1732  0.2018
19431TIP3   OH279707   4.508   1.842   1.746 -0.0640  0.1011 -0.1681
19431TIP3    H179708   4.511   1.874   1.656 -1.8253  1.8551  0.3299
19431TIP3    H279709   4.531   1.918   1.799 -0.9813 -0.3577  0.9318
19432TIP3   OH279710   4.049   6.303  13.367  0.2475 -0.1342  0.1950
19432TIP3    H179711   4.015   6.305  13.278  0.2391 -0.0917  0.1999
19432TIP3    H279712   4.061   6.395  13.391  2.0038 -0.1684 -0.4344
19433TIP3   OH279713   4.914   2.330   2.433 -0.9703  0.2249 -0.3437
19433TIP3    H179714   4.823   2.302   2.446 -1.4868  1.7228 -0.5289
19433TIP3    H279715   4.909   2.426   2.429  1.0944  0.6751  3.5369
19434TIP3   OH279716   5.746   2.016   4.890  0.2840 -0.1448  0.7805
19434TIP3    H179717   5.776   1.946   4.948 -0.3416 -0.3495  0.8661
19434TIP3    H279718   5.749   1.978   4.802  0.9245  0.0618  0.7042
19435TIP3   OH279719   5.365   3.333   2.420 -0.2042 -0.1642  0.3827
19435TIP3    H179720   5.403   3.287   2.345 -1.6994 -0.9700  0.0751
19435TIP3    H279721   5.414   3.299   2.495  0.2174 -0.5763 -0.0680
19436TIP3   OH279722   0.760   4.119   2.848 -0.4145 -0.0303  0.0095
19436TIP3    H179723   0.841   4.069   2.853  0.2293  0.9862  0.1653
19436TIP3    H279724   0.780   4.201   2.894 -2.0178 -0.3836  1.4409
19437TIP3   OH279725   6.633   2.622  14.732  0.0433  0.2384 -0.3674
19437TIP3    H179726   6.576   2.644  14.806 -0.3801 -0.9446 -0.3247
19437TIP3    H279727   6.621   2.528  14.719  1.9290 -0.0183 -0.4396
19438TIP3   OH279728   0.592   4.544  11.293  0.5058 -0.5184  0.0758
19438TIP3    H179729   0.642   4.495  11.228  0.2145 -0.0439 -0.5121
19438TIP3    H279730   0.522   4.586  11.244 -0.8057 -1.5963  0.9555
19439TIP3   OH279731   1.799   6.070   1.924  0.3121 -0.0486 -0.3255
19439TIP3    H179732   1.894   6.071   1.938  0.2574  2.3132  0.2996
19439TIP3    H279733   1.789   6.077   1.829  0.8127  0.9351 -0.3261
19440TIP3   OH279734   4.813   5.466   2.691 -0.2497 -0.4141  0.4069
19440TIP3    H179735   4.869   5.501   2.761 -1.1279 -0.2333  1.0379
19440TIP3    H279736   4.874   5.438   2.623  0.5456  1.1500  0.4336
19441TIP3   OH279737   0.571   2.531   0.330 -0.5150  0.9840 -0.3257
19441TIP3    H179738   0.664   2.512   0.344 -0.8637 -1.4927 -0.7678
19441TIP3    H279739   0.566   2.559   0.239 -0.2001  1.0704 -0.3173
19442TIP3   OH279740   6.445   5.663   0.292 -0.1855  0.1581 -0.5537
19442TIP3    H179741   6.538   5.682   0.297 -0.7409  3.5861 -0.3977
19442TIP3    H279742   6.431   5.632   0.202  1.0904 -0.6398 -0.4950
19443TIP3   OH279743   2.636   3.819  14.926 -0.1445  0.1069  0.0248
19443TIP3    H179744   2.665   3.764  14.999  0.3059 -1.9170 -1.5993
19443TIP3    H279745   2.567   3.874  14.964 -0.8394 -1.7830  1.7098
19444TIP3   OH279746   2.997   5.753  16.181 -0.0499  0.0492  0.0833
19444TIP3    H179747   2.934   5.681  16.173 -1.0488  0.9426 -0.3639
19444TIP3    H279748   2.987   5.802  16.099 -0.2737  1.3775  0.8686
19445TIP3   OH279749   4.159   1.337   4.277  0.0742  1.0553 -0.4194
19445TIP3    H179750   4.181   1.365   4.365 -0.5317  0.6331 -0.1235
19445TIP3    H279751   4.067   1.360   4.267 -0.4820 -0.8666 -0.1182
19446TIP3   OH279752   2.010   0.171  12.438 -0.0081  0.6669  0.3660
19446TIP3    H179753   1.976   0.155  12.350 -1.3541  1.8887  0.6409
19446TIP3    H279754   2.019   0.266  12.444  2.6246  0.4769  0.6514
19447TIP3   OH279755   3.260   1.658   4.410 -0.1776  0.1014  0.0266
19447TIP3    H179756   3.217   1.725   4.463  1.8095  1.1851  0.3350
19447TIP3    H279757   3.233   1.677   4.320 -1.9427 -0.5173  0.3810
19448TIP3   OH279758   4.327   2.974  14.917  0.4275  0.3323  0.2177
19448TIP3    H179759   4.234   2.956  14.915  0.5921 -0.5772  0.5809
19448TIP3    H279760   4.359   2.934  14.998  0.9227  1.7155  0.7368
19449TIP3   OH279761   4.847   0.509   5.099  0.2462  0.0823  0.1855
19449TIP3    H179762   4.909   0.441   5.070 -0.0457  0.3448 -1.1413
19449TIP3    H279763   4.768   0.493   5.047 -0.3766  0.4834  0.9997
19450TIP3   OH279764   1.082   0.881  12.531 -0.8244 -0.2667 -0.0798
19450TIP3    H179765   1.044   0.963  12.500 -0.0051 -0.2918 -1.2138
19450TIP3    H279766   1.019   0.848  12.595 -0.3882  2.0649  1.6985
19451TIP3   OH279767   2.000   4.766  16.314  0.8904 -0.1837  0.1916
19451TIP3    H179768   2.036   4.739  16.399 -0.8185 -1.9179  0.4188
19451TIP3    H279769   1.935   4.832  16.335 -0.4321 -1.5114  0.3953
19452TIP3   OH279770   5.515   1.992   5.578  0.7513 -0.3281  0.3004
19452TIP3    H179771   5.603   1.958   5.562  0.7888  0.5116 -1.4492
19452TIP3    H279772   5.528   2.063   5.641  1.2783 -0.4262  0.3102
19453TIP3   OH279773   0.717   1.060  14.743 -0.4968 -0.1624 -0.1104
19453TIP3    H179774   0.635   1.091  14.703 -0.5752  0.9912  0.8895
19453TIP3    H279775   0.690   1.028  14.829  0.1795  0.7983  0.4733
19454TIP3   OH279776   1.600   3.641  15.622 -0.3791 -0.6305 -0.0304
19454TIP3    H179777   1.662   3.697  15.669 -1.1683  0.3984 -0.1690
19454TIP3    H279778   1.593   3.562  15.675  0.2811 -0.3273  0.5162
19455TIP3   OH279779   5.073   1.335  15.250  0.3972  0.5473  0.3158
19455TIP3    H179780   5.114   1.257  15.212  0.4695  0.7801 -0.0878
19455TIP3    H279781   5.143   1.399  15.256  0.2895  0.6544  0.4465
19456TIP3   OH279782   3.185   1.612  16.584 -0.3772 -0.2315  0.1306
19456TIP3    H179783   3.100   1.647  16.562  0.0849  0.8717  0.0474
19456TIP3    H279784   3.186   1.524  16.546 -1.5060 -0.2992  0.2348
19457TIP3   OH279785   1.543   1.802  12.713 -0.2039  0.4119 -0.4110
19457TIP3    H179786   1.474   1.736  12.716  1.4450 -1.5147 -1.9738
19457TIP3    H279787   1.531   1.846  12.629 -0.1153  0.7964 -0.2279
19458TIP3   OH279788   4.467   6.255   1.161  0.4432  0.2655  0.0058
19458TIP3    H179789   4.538   6.294   1.212 -1.2561  0.1860  2.6744
19458TIP3    H279790   4.483   6.161   1.166  0.3534  0.2644  0.2982
19459TIP3   OH279791   1.433   5.013   2.782  0.3104  0.4617 -0.6241
19459TIP3    H179792   1.482   5.012   2.864 -0.5761  2.0494 -0.0337
19459TIP3    H279793   1.450   4.927   2.743  1.2014 -0.1132  0.9354
19460TIP3   OH279794   2.491   1.850  14.474 -0.5448  0.4229 -0.6470
19460TIP3    H179795   2.428   1.874  14.541 -0.7525 -1.0198 -0.2864
19460TIP3    H279796   2.490   1.923  14.413 -0.7366  1.5374  0.6364
19461TIP3   OH279797   4.725   1.225   4.434 -0.3484  0.2914  0.1971
19461TIP3    H179798   4.653   1.288   4.429  1.0690  1.9887 -0.0823
19461TIP3    H279799   4.791   1.269   4.488  1.6701  0.1515 -1.9691
19462TIP3   OH279800   5.606   6.207  15.166  0.4593 -0.3579  0.0645
19462TIP3    H179801   5.641   6.198  15.255 -0.4204 -0.6482  0.3872
19462TIP3    H279802   5.520   6.165  15.169 -0.1084  0.7138 -0.6034
19463TIP3   OH279803   5.094   0.435  10.866  0.0296  0.3811 -0.2034
19463TIP3    H179804   5.153   0.489  10.814 -1.1640  1.7332 -0.2063
19463TIP3    H279805   5.043   0.385  10.802  1.1437 -0.8168 -0.2005
19464TIP3   OH279806   2.764   3.291   5.317 -0.2720 -0.2541 -0.2106
19464TIP3    H179807   2.797   3.317   5.231  0.3175 -2.2800 -0.6488
19464TIP3    H279808   2.802   3.205   5.332 -3.2994 -1.6312  0.4042
19465TIP3   OH279809   2.071   2.928   1.511 -0.7917  0.0712 -0.7085
19465TIP3    H179810   2.165   2.915   1.499 -0.2907  0.4295  2.1261
19465TIP3    H279811   2.048   2.996   1.448  0.5355 -0.9355 -2.3599
19466TIP3   OH279812   1.328   6.432  14.030 -0.1471  0.2203  0.0515
19466TIP3    H179813   1.239   6.397  14.024  0.0652 -0.1835 -1.1514
19466TIP3    H279814   1.384   6.359  14.003  0.4108  1.0128 -1.0108
19467TIP3   OH279815   2.363   0.053   3.259 -0.2065  0.1680  0.1724
19467TIP3    H179816   2.317   0.119   3.311  0.4934  0.3891  0.5287
19467TIP3    H279817   2.440   0.030   3.312  0.5262  0.3947 -0.7602
19468TIP3   OH279818   1.702   4.520  10.279  0.5674 -0.0378 -0.3508
19468TIP3    H179819   1.752   4.531  10.198 -1.7441 -0.5353 -1.9264
19468TIP3    H279820   1.617   4.487  10.251  0.0761 -1.4290  2.4051
19469TIP3   OH279821   6.757   3.480   3.863 -0.0800 -0.5691 -0.4587
19469TIP3    H179822   6.756   3.392   3.901 -0.7620 -0.3463  0.0555
19469TIP3    H279823   6.702   3.473   3.785 -1.0326 -0.3551  0.1733
19470TIP3   OH279824   0.740   5.815  14.104 -0.6555  0.0125 -0.3133
19470TIP3    H179825   0.731   5.785  14.195 -0.5643 -0.8483 -0.5770
19470TIP3    H279826   0.682   5.757  14.054  0.1206 -0.2467 -0.9397
19471TIP3   OH279827   4.120   2.158  13.478 -0.0690 -0.4099 -0.5351
19471TIP3    H179828   4.194   2.178  13.421  0.5454 -0.5402  0.2025
19471TIP3    H279829   4.085   2.075  13.444  1.4951 -1.5193  0.4306
19472TIP3   OH279830   4.250   4.584  16.489  0.4690  0.5180 -0.0642
19472TIP3    H179831   4.345   4.572  16.490  0.3279 -1.1664 -1.3292
19472TIP3    H279832   4.217   4.506  16.443 -1.4740  1.3898 -0.2372
19473TIP3   OH279833   4.984   4.611  14.320  0.0005  0.4126 -0.3590
19473TIP3    H179834   5.078   4.600  14.335 -0.2241  1.1458  1.9501
19473TIP3    H279835   4.970   4.706  14.318 -0.5998  0.3177 -1.4823
19474TIP3   OH279836   0.183   4.704   4.300 -0.1779  0.3610 -0.0606
19474TIP3    H179837   0.191   4.722   4.394  1.4316  0.9006 -0.2838
19474TIP3    H279838   0.157   4.788   4.262  0.0892  0.3748 -0.2115
19475TIP3   OH279839   2.008   4.876   2.114  0.0776 -0.0638 -0.2297
19475TIP3    H179840   2.015   4.950   2.054 -0.7182  0.4487  0.2976
19475TIP3    H279841   1.914   4.860   2.123  0.1753 -0.1037  0.9129
19476TIP3   OH279842   2.675   5.234  16.614  0.7858 -0.1555 -0.7791
19476TIP3    H179843   2.714   5.300  16.672 -1.4718  0.8206 -0.2725
19476TIP3    H279844   2.673   5.154  16.666 -1.3728  0.7490  0.6384
19477TIP3   OH279845   2.619   6.475  15.826 -0.0625 -0.1795 -0.2611
19477TIP3    H179846   2.637   6.533  15.752  0.2244 -2.0587 -1.7464
19477TIP3    H279847   2.626   6.532  15.903 -0.2405  1.8275 -1.6283
19478TIP3   OH279848   1.304   4.363  11.353  0.3361 -0.2431  0.0169
19478TIP3    H179849   1.240   4.362  11.281  0.2575 -0.2009  0.0864
19478TIP3    H279850   1.336   4.453  11.356  0.1208 -0.1722  0.2276
19479TIP3   OH279851   4.900   2.081  14.894  0.6062 -0.1376  0.1386
19479TIP3    H179852   4.954   2.088  14.973 -0.6846 -1.6473  1.2354
19479TIP3    H279853   4.901   1.988  14.873 -2.2839 -0.4222  0.8057
19480TIP3   OH279854   6.726   1.601   3.975  0.0325  0.2044  0.1199
19480TIP3    H179855   6.770   1.685   3.990  1.0686 -0.1154 -0.9565
19480TIP3    H279856   6.675   1.586   4.055  0.1745  1.6369  0.5100
19481TIP3   OH279857   3.125   5.893  14.014 -0.1546  0.4739  0.0663
19481TIP3    H179858   3.116   5.797  14.013  3.0755  0.0382 -1.8801
19481TIP3    H279859   3.150   5.914  14.103 -0.6753 -0.5128  0.4645
19482TIP3   OH279860   6.152   1.631  14.816  0.0014  0.1228 -0.3822
19482TIP3    H179861   6.218   1.651  14.749 -0.7165 -1.5449 -1.6539
19482TIP3    H279862   6.070   1.624  14.767 -0.8346  0.3865  0.9213
19483TIP3   OH279863   2.762   0.702   3.301 -0.1243 -0.6471 -0.8632
19483TIP3    H179864   2.715   0.754   3.365  0.5676 -0.6570 -0.3339
19483TIP3    H279865   2.701   0.632   3.278 -1.2353  0.6056 -1.9093
19484TIP3   OH279866   3.123   3.638   5.575 -0.3793 -0.2049  0.2902
19484TIP3    H179867   3.166   3.674   5.497  1.0146 -2.1026  0.1106
19484TIP3    H279868   3.080   3.559   5.544 -0.6184 -0.4681  1.2613
19485TIP3   OH279869   0.887   1.942   0.797  0.0245  0.1176  0.1662
19485TIP3    H179870   0.870   1.982   0.882  0.9359 -0.1241  0.4831
19485TIP3    H279871   0.890   1.848   0.816  2.8342  0.1674  0.4225
19486TIP3   OH279872   3.670   4.553  16.175 -0.3446 -0.2975  0.1343
19486TIP3    H179873   3.676   4.541  16.080 -0.7829 -0.0766  0.0748
19486TIP3    H279874   3.578   4.537  16.196 -0.6265  1.2729  0.2709
19487TIP3   OH279875   1.805   4.101  13.620 -0.7711  0.2434 -0.0585
19487TIP3    H179876   1.870   4.098  13.550 -1.0029  1.8639 -0.3702
19487TIP3    H279877   1.780   4.009  13.633  0.4167 -0.2419 -1.0075
19488TIP3   OH279878   2.804   1.483   4.452  0.1344  0.2510 -0.0146
19488TIP3    H179879   2.848   1.406   4.488 -1.7609 -1.2350 -0.6543
19488TIP3    H279880   2.716   1.480   4.491 -0.0612  1.9557 -0.2740
19489TIP3   OH279881   2.051   1.522  16.237  0.7270  0.4826 -0.0436
19489TIP3    H179882   2.048   1.435  16.197 -0.2145  0.0497  0.9428
19489TIP3    H279883   2.102   1.509  16.317  1.5330  1.0886 -0.4419
19490TIP3   OH279884   0.476   3.788   0.884 -0.4421  0.2423 -0.0503
19490TIP3    H179885   0.559   3.811   0.926  0.2540 -0.7472 -0.8310
19490TIP3    H279886   0.410   3.809   0.950  0.3675  1.4835  0.4221
19491TIP3   OH279887   5.049   0.107   3.863 -0.3743 -0.1995 -0.3769
19491TIP3    H179888   5.139   0.079   3.874  0.1652  2.0021  1.4570
19491TIP3    H279889   5.009   0.095   3.949 -1.2169  0.8673 -0.6030
19492TIP3   OH279890   1.464   6.726  15.843 -0.3422 -0.0959  0.4045
19492TIP3    H179891   1.547   6.725  15.797 -0.3922 -1.5436  0.2901
19492TIP3    H279892   1.408   6.785  15.791  0.6901  1.1782  0.6946
19493TIP3   OH279893   3.836   0.419  13.075 -0.1890 -0.0042  0.6620
19493TIP3    H179894   3.886   0.492  13.112  0.2230 -1.5296  3.3670
19493TIP3    H279895   3.848   0.427  12.981 -0.4634  3.5945  0.7862
19494TIP3   OH279896   5.332   5.933  10.853  0.9745 -0.1252 -0.0457
19494TIP3    H179897   5.376   5.883  10.784  0.3958 -0.8470  0.0909
19494TIP3    H279898   5.252   5.883  10.871  0.7818  0.4244  0.6654
19495TIP3   OH279899   2.008   1.359  13.791  0.2062  0.3836 -0.1915
19495TIP3    H179900   2.026   1.428  13.727  2.3338 -1.1731 -1.3981
19495TIP3    H279901   2.019   1.401  13.876  0.2179  1.8012 -0.8643
19496TIP3   OH279902   3.498   1.950  15.094 -0.2041 -0.9961  0.1844
19496TIP3    H179903   3.541   2.022  15.142  0.2905 -1.7311  0.8662
19496TIP3    H279904   3.495   1.878  15.157  0.2758 -1.9179 -0.8285
19497TIP3   OH279905   4.279   0.091  10.842 -0.1397  0.0693 -0.3679
19497TIP3    H179906   4.272   0.018  10.780 -0.0518  1.5654 -2.2377
19497TIP3    H279907   4.373   0.100  10.857 -0.1472 -0.1588 -0.1733
19498TIP3   OH279908   3.697   6.326  15.859  0.5328  0.0945 -0.2556
19498TIP3    H179909   3.632   6.257  15.854  0.9133 -0.4172  1.3326
19498TIP3    H279910   3.739   6.314  15.944  0.9177  2.0074 -0.1206
19499TIP3   OH279911   3.539   0.992   0.452 -0.3080  0.6282  0.0345
19499TIP3    H179912   3.556   1.017   0.361  0.8071 -2.2393 -0.6641
19499TIP3    H279913   3.609   1.034   0.502  1.7635 -1.1521 -1.1396
19500TIP3   OH279914   6.593   3.519   0.948 -0.3755  0.0288  0.4342
19500TIP3    H179915   6.602   3.614   0.948 -1.0817  0.1124 -0.6994
19500TIP3    H279916   6.599   3.494   0.856  0.4515 -1.1028  0.7668
19501TIP3   OH279917   6.441   4.608  12.349  0.1251 -0.0451 -0.0221
19501TIP3    H179918   6.535   4.618  12.368  0.0776 -0.5966  0.5490
19501TIP3    H279919   6.437   4.590  12.256  0.5511  0.4253 -0.1391
19502TIP3   OH279920   0.116   0.916   4.160  0.3096  0.0714  0.4747
19502TIP3    H179921   0.118   0.899   4.254 -0.2022  1.2110  0.7201
19502TIP3    H279922   0.052   0.987   4.151 -0.0367 -0.3814 -0.7974
19503TIP3   OH279923   6.483   2.291  13.166  0.4617  0.0625 -0.6329
19503TIP3    H179924   6.470   2.233  13.091  1.1741 -0.2625 -0.5148
19503TIP3    H279925   6.394   2.320  13.190  0.2408  0.2630 -1.6601
19504TIP3   OH279926   4.457   3.508  11.353  0.0646 -0.2691  0.3409
19504TIP3    H179927   4.400   3.477  11.424  0.8802 -0.3385  0.9684
19504TIP3    H279928   4.510   3.431  11.330 -1.7698 -0.9806 -1.9655
19505TIP3   OH279929   2.571   6.749  16.484  0.1375 -0.4703  0.3138
19505TIP3    H179930   2.498   6.790  16.530  0.1856 -0.6427  0.5440
19505TIP3    H279931   2.637   6.817  16.477  0.0812 -0.4085  0.3887
19506TIP3   OH279932   3.028   0.618   2.075  0.0363  0.0538  0.8284
19506TIP3    H179933   3.016   0.617   1.980  0.0979 -4.7827  0.6517
19506TIP3    H279934   2.940   0.623   2.111 -0.2354 -1.2934  0.3866
19507TIP3   OH279935   2.167   2.244   5.316  0.3876  0.2649 -0.0959
19507TIP3    H179936   2.115   2.318   5.283  2.9935  1.8340 -0.9602
19507TIP3    H279937   2.188   2.193   5.238  0.1021 -0.4307  0.2677
19508TIP3   OH279938   4.370   2.752  15.995 -0.4483  0.1298 -0.0354
19508TIP3    H179939   4.459   2.786  15.992  0.3967 -1.7552  1.3138
19508TIP3    H279940   4.373   2.673  15.940 -0.9819 -0.5159  0.8403
19509TIP3   OH279941   6.608   1.759  12.067 -0.7162 -0.4342  0.2924
19509TIP3    H179942   6.655   1.840  12.090 -0.4939 -0.4744 -0.0113
19509TIP3    H279943   6.622   1.750  11.973 -0.5482 -0.9516  0.3635
19510TIP3   OH279944   5.356   2.472  11.415  0.4007 -0.5077  0.3815
19510TIP3    H179945   5.365   2.479  11.320  0.3650 -0.7048  0.3635
19510TIP3    H279946   5.337   2.380  11.430 -0.6434 -0.2948  0.4911
19511TIP3   OH279947   1.722   3.017  13.141  0.1473 -0.4868  0.2978
19511TIP3    H179948   1.663   2.993  13.069  1.0184  0.2117 -0.6813
19511TIP3    H279949   1.805   2.976  13.119  0.4632 -0.1600  0.8497
19512TIP3   OH279950   1.175   2.311   4.031 -0.7547  0.2726  0.3549
19512TIP3    H179951   1.099   2.367   4.042 -1.2077  0.0954 -1.5438
19512TIP3    H279952   1.246   2.371   4.006 -0.7843  0.2031  0.1043
19513TIP3   OH279953   1.348   4.340  16.886  0.3728  0.0801 -0.4762
19513TIP3    H179954   1.264   4.374  16.857 -1.0115 -1.1555  1.8258
19513TIP3    H279955   1.349   4.249  16.857  1.4200  0.3438 -1.3645
19514TIP3   OH279956   2.200   2.106  10.412 -0.1442 -0.5122  0.8433
19514TIP3    H179957   2.286   2.109  10.371 -0.1632  1.0296  0.8558
19514TIP3    H279958   2.196   2.019  10.452  1.6728 -0.3909  1.3948
19515TIP3   OH279959   1.543   3.793   1.082  0.1159 -0.1164  0.1381
19515TIP3    H179960   1.524   3.699   1.091 -3.1745  0.5150  0.8649
19515TIP3    H279961   1.577   3.819   1.167  0.9729 -0.5812 -0.0422
19516TIP3   OH279962   1.437   5.995   1.224  0.1017  0.0647  0.3238
19516TIP3    H179963   1.439   5.905   1.192  0.9454 -0.2649  1.2558
19516TIP3    H279964   1.358   6.033   1.185 -0.4026 -1.1477  0.1266
19517TIP3   OH279965   2.433   0.158   0.318  0.1661 -0.2848  0.4541
19517TIP3    H179966   2.359   0.217   0.300 -0.3360 -0.0143  3.0470
19517TIP3    H279967   2.458   0.178   0.408  2.1626 -1.7510  0.2845
19518TIP3   OH279968   1.555   5.374  14.587 -0.2105 -0.0491 -0.2245
19518TIP3    H179969   1.577   5.282  14.577  1.6376  0.3926 -0.6007
19518TIP3    H279970   1.494   5.392  14.515 -0.5867 -0.9587 -0.1471
19519TIP3   OH279971   3.304   1.580  16.258 -0.3291  0.6086 -0.6138
19519TIP3    H179972   3.358   1.656  16.278  1.4093 -0.6234 -0.3807
19519TIP3    H279973   3.238   1.612  16.197 -1.9303  3.1122  2.1754
19520TIP3   OH279974   4.742   2.280  15.010  0.3135  0.1516  0.0573
19520TIP3    H179975   4.801   2.220  14.965  2.3311  0.7265  1.7975
19520TIP3    H279976   4.793   2.360  15.022  0.1445 -0.1342  3.7456
19521TIP3   OH279977   0.019   0.482  13.256  0.0401 -0.0812  0.2020
19521TIP3    H179978   0.007   0.388  13.247 -0.9829 -0.0586  1.1497
19521TIP3    H279979   0.105   0.492  13.297 -0.0695 -0.6242  0.5655
19522TIP3   OH279980   3.368   5.163   2.866 -0.1435  0.1364 -0.3955
19522TIP3    H179981   3.370   5.246   2.913 -0.1290 -0.0492 -0.0630
19522TIP3    H279982   3.309   5.108   2.918  1.2893 -0.6741  0.4257
19523TIP3   OH279983   3.512   1.218  15.401  0.5488 -0.2264 -0.0962
19523TIP3    H179984   3.595   1.178  15.376  0.9000 -0.5357  1.4908
19523TIP3    H279985   3.534   1.310  15.417  0.5410 -0.2662  0.1379
19524TIP3   OH279986   2.754   5.778  12.276 -0.2497 -0.3986 -0.5272
19524TIP3    H179987   2.846   5.760  12.254  0.1928 -0.5050  1.2727
19524TIP3    H279988   2.742   5.740  12.363 -2.2465 -1.0894 -1.0556
19525TIP3   OH279989   3.043   3.185  10.947 -0.2517  0.5576 -0.0461
19525TIP3    H179990   3.016   3.273  10.976 -0.7778  0.3763  0.0271
19525TIP3    H279991   2.975   3.127  10.981  0.0387  0.1330 -0.1889
19526TIP3   OH279992   2.638   6.080   3.767 -0.2599 -0.3150  0.0557
19526TIP3    H179993   2.677   6.027   3.836 -1.9913 -1.7053  0.0358
19526TIP3    H279994   2.545   6.082   3.788 -0.7550 -0.3054 -1.9272
19527TIP3   OH279995   3.004   1.021  10.855  0.1066  0.4871  0.4103
19527TIP3    H179996   2.987   0.928  10.844  0.7295  0.1426  2.0607
19527TIP3    H279997   3.071   1.041  10.790  1.4462 -0.7064  1.3578
19528TIP3   OH279998   5.702   6.738  12.422 -0.1246 -0.5455 -0.1020
19528TIP3    H179999   5.773   6.802  12.436  0.0306 -0.9115  0.8599
19528TIP3    H280000   5.737   6.677  12.357  0.0754 -0.1751 -0.3463
19529TIP3   OH280001   6.404   0.669  16.358  0.2081 -0.1082  0.0798
19529TIP3    H180002   6.449   0.720  16.425 -0.0881 -0.9852  0.9703
19529TIP3    H280003   6.397   0.581  16.396 -0.4215 -0.4878 -0.8924
19530TIP3   OH280004   1.537   3.275   4.587 -0.0488  0.0433  0.3169
19530TIP3    H180005   1.591   3.350   4.611  0.8986 -0.5497  0.0892
19530TIP3    H280006   1.549   3.214   4.660  0.0698 -0.3341 -0.0186
19531TIP3   OH280007   5.090   0.382  12.389  0.1866  0.4649  0.1726
19531TIP3    H180008   5.056   0.324  12.457 -0.3218  0.3401 -0.1819
19531TIP3    H280009   5.077   0.470  12.425  0.1731  0.3905  0.3519
19532TIP3   OH280010   0.926   1.918   2.181  0.0738  0.3426  0.0819
19532TIP3    H180011   0.970   1.850   2.130  1.4799  1.8675 -0.8498
19532TIP3    H280012   0.838   1.922   2.145  0.6944  0.5936 -1.5014
19533TIP3   OH280013   5.104   3.693  12.387 -0.6084 -0.5745  0.0732
19533TIP3    H180014   5.200   3.696  12.385 -0.6038  0.6729  0.5778
19533TIP3    H280015   5.077   3.778  12.352 -1.4800 -0.4159  1.0585
19534TIP3   OH280016   4.514   5.383  16.862 -0.3791  0.0992  0.1544
19534TIP3    H180017   4.490   5.467  16.822  0.1739  0.3661  0.3662
19534TIP3    H280018   4.458   5.377  16.940 -0.0145  0.5530  0.4581
19535TIP3   OH280019   3.726   3.758   3.637  0.2842 -0.0910  0.3281
19535TIP3    H180020   3.689   3.690   3.582 -0.2036 -0.4687  1.1033
19535TIP3    H280021   3.699   3.735   3.726 -1.7273  2.2042  0.4386
19536TIP3   OH280022   4.631   3.551  15.079 -0.7343 -0.0813  0.4468
19536TIP3    H180023   4.612   3.461  15.055 -2.4100 -0.4737  2.8601
19536TIP3    H280024   4.726   3.557  15.082 -0.6113 -2.0750  1.3008
19537TIP3   OH280025   3.459   3.078  13.880 -0.7351  0.3884 -0.4622
19537TIP3    H180026   3.538   3.075  13.934 -1.8065 -1.9092  1.1658
19537TIP3    H280027   3.478   3.020  13.807 -0.4389  0.9278 -0.8176
19538TIP3   OH280028   2.609   0.515   9.732 -0.1119 -0.5107  0.2619
19538TIP3    H180029   2.564   0.599   9.743  2.2861  0.7588  1.2049
19538TIP3    H280030   2.660   0.505   9.813  0.9352 -2.0558 -0.5546
19539TIP3   OH280031   2.617   4.148  13.687 -0.2202  0.2281 -0.3394
19539TIP3    H180032   2.541   4.105  13.724  2.1089 -2.1596  2.0381
19539TIP3    H280033   2.637   4.220  13.747  0.9919 -0.9225  0.6881
19540TIP3   OH280034   5.238   2.096  13.671 -0.1889  0.0702 -0.0112
19540TIP3    H180035   5.235   2.036  13.745 -2.2194 -1.3156 -1.1101
19540TIP3    H280036   5.268   2.043  13.597 -0.4228  0.8224 -0.6709
19541TIP3   OH280037   4.325   6.771   4.824 -0.1011  0.7108  0.1780
19541TIP3    H180038   4.276   6.724   4.892  0.1082 -0.3156 -0.3579
19541TIP3    H280039   4.333   6.708   4.752  0.9056  1.2890 -0.2443
19542TIP3   OH280040   3.248   4.813  12.217 -0.6619  0.4273 -0.0650
19542TIP3    H180041   3.242   4.909  12.219 -0.1049  0.4980 -0.8941
19542TIP3    H280042   3.271   4.788  12.306 -0.7892  1.0762  0.1532
19543TIP3   OH280043   3.902   0.557   3.655  0.1626 -0.5738  0.2049
19543TIP3    H180044   3.921   0.518   3.740  1.1793 -1.4068 -0.3729
19543TIP3    H280045   3.870   0.645   3.675  1.5124 -0.3239  1.3890
19544TIP3   OH280046   0.723   5.831  14.357 -0.1462  0.1428 -0.5433
19544TIP3    H180047   0.638   5.874  14.349 -0.2194  0.2434  0.6534
19544TIP3    H280048   0.786   5.904  14.361  0.1544  0.0676 -2.6774
19545TIP3   OH280049   4.488   6.399   3.459 -0.2702 -0.0510 -0.3293
19545TIP3    H180050   4.556   6.340   3.493 -0.5922  0.4177  1.1663
19545TIP3    H280051   4.446   6.348   3.389 -0.0711 -1.3348  0.4557
19546TIP3   OH280052   0.289   4.557   2.756  0.0197 -0.0160 -0.5900
19546TIP3    H180053   0.281   4.610   2.835 -0.3797 -0.8437 -0.0573
19546TIP3    H280054   0.208   4.574   2.708  0.2841  0.5249 -0.8525
19547TIP3   OH280055   0.344   6.267  11.066 -0.2562  0.2822 -0.2008
19547TIP3    H180056   0.340   6.226  11.153 -1.7930  1.7675  0.4791
19547TIP3    H280057   0.419   6.326  11.072  0.9397 -1.1176 -0.6360
19548TIP3   OH280058   3.548   4.941   3.423 -0.1412 -0.2096 -0.0116
19548TIP3    H180059   3.521   4.985   3.504 -0.8030 -2.0581  0.8111
19548TIP3    H280060   3.536   5.008   3.355  1.0523  1.5988  1.4517
19549TIP3   OH280061   0.430   0.168  12.766  0.1876 -0.0115  0.1519
19549TIP3    H180062   0.514   0.122  12.768 -0.9734 -2.2463  0.3123
19549TIP3    H280063   0.415   0.192  12.858  0.0485 -0.8166  0.3510
19550TIP3   OH280064   2.653   5.566  11.724  0.3235 -0.2730  0.0799
19550TIP3    H180065   2.700   5.634  11.771  1.4439 -0.1875 -1.1248
19550TIP3    H280066   2.566   5.603  11.710  0.0984 -0.1314  1.6510
19551TIP3   OH280067   1.503   4.243  15.163  0.0537 -0.5028 -0.0200
19551TIP3    H180068   1.483   4.154  15.136 -0.3215 -0.6135  0.6092
19551TIP3    H280069   1.445   4.298  15.110  1.9229 -0.4228 -2.1717
19552TIP3   OH280070   1.497   0.685  15.680  0.2807 -0.2211  0.0921
19552TIP3    H180071   1.474   0.624  15.611 -0.6615  1.0287 -0.7529
19552TIP3    H280072   1.591   0.702  15.667  0.3311 -0.7593 -0.2562
19553TIP3   OH280073   3.080   0.875  12.634  0.0963  0.4122  0.4481
19553TIP3    H180074   3.036   0.945  12.586  1.0059  0.3904 -0.4403
19553TIP3    H280075   3.027   0.797  12.617  0.7014  0.2870 -1.0007
19554TIP3   OH280076   4.300   4.294   6.522  0.1484  0.6062 -0.3484
19554TIP3    H180077   4.275   4.373   6.571  1.3743  1.5306 -1.1635
19554TIP3    H280078   4.327   4.326   6.436  0.3010 -0.7514 -0.8351
19555TIP3   OH280079   6.033   5.153  15.096  0.3021  0.1000 -0.5076
19555TIP3    H180080   6.081   5.078  15.059 -0.2188 -0.2110 -0.5588
19555TIP3    H280081   6.099   5.200  15.147  1.3269  1.1945 -2.7257
19556TIP3   OH280082   0.701   2.161   4.508  0.3503 -0.3047 -0.1194
19556TIP3    H180083   0.773   2.224   4.513  2.6591 -2.7788  0.1178
19556TIP3    H280084   0.709   2.110   4.589 -0.9881 -1.3825 -0.6391
19557TIP3   OH280085   5.101   4.583   1.264  0.7057 -0.0024  0.1331
19557TIP3    H180086   5.100   4.556   1.356 -2.2116  2.4424  0.9946
19557TIP3    H280087   5.060   4.510   1.217  0.2714 -0.3964  1.1083
19558TIP3   OH280088   1.854   1.742   3.244 -0.0294  0.3279 -0.1910
19558TIP3    H180089   1.858   1.746   3.339 -1.3365  1.0644 -0.1480
19558TIP3    H280090   1.848   1.833   3.215 -1.4030  0.0528 -0.8638
19559TIP3   OH280091   5.291   0.016   0.837  0.3152  0.0526 -0.1410
19559TIP3    H180092   5.333  -0.069   0.837  0.5552  0.0904  2.5376
19559TIP3    H280093   5.362   0.078   0.818  0.5418 -0.1877 -0.0815
19560TIP3   OH280094   0.845   2.336  15.828  0.7252  0.0941 -0.5168
19560TIP3    H180095   0.770   2.393  15.818 -0.5243 -1.7648 -2.4811
19560TIP3    H280096   0.853   2.323  15.923  0.9970  3.2937 -0.0045
19561TIP3   OH280097   4.539   3.701  11.942  0.2243  1.0527  0.4137
19561TIP3    H180098   4.512   3.694  11.851  1.4003  0.9573  0.0549
19561TIP3    H280099   4.511   3.619  11.982  1.5878  0.1541 -0.3904
19562TIP3   OH280100   5.320   5.221   1.920  0.3057  0.3769 -0.3499
19562TIP3    H180101   5.362   5.140   1.949 -0.8320 -0.3300 -0.6133
19562TIP3    H280102   5.248   5.192   1.865 -0.4049  1.5620 -0.0723
19563TIP3   OH280103   4.975   1.635   6.035 -0.2663  0.4686 -0.1727
19563TIP3    H180104   4.944   1.554   6.075 -0.2499 -0.5118 -2.0563
19563TIP3    H280105   5.068   1.638   6.056 -0.7212  1.4020  2.1115
19564TIP3   OH280106   6.492   0.732  12.357  0.5163  0.0725  0.6884
19564TIP3    H180107   6.492   0.642  12.322  4.3623  0.1022  0.2364
19564TIP3    H280108   6.485   0.787  12.280 -1.3806  0.2290  0.9320
19565TIP3   OH280109   1.090   2.646  12.474  0.7593  0.2325  0.3233
19565TIP3    H180110   1.028   2.714  12.500  0.1104 -1.1721  2.7643
19565TIP3    H280111   1.176   2.679  12.502  0.4960  0.2426  1.1392
19566TIP3   OH280112   6.734   5.303   5.560  0.1789 -0.4246  0.4464
19566TIP3    H180113   6.673   5.352   5.505  0.2684 -0.9726 -0.1492
19566TIP3    H280114   6.820   5.321   5.523  0.1100 -1.9662 -0.5228
19567TIP3   OH280115   4.883   5.933  14.041  0.0115  0.0772  0.1886
19567TIP3    H180116   4.834   5.914  14.121  1.2390  0.7720  1.1320
19567TIP3    H280117   4.931   6.014  14.060 -0.4923  0.8610 -1.6305
19568TIP3   OH280118   5.276   3.796   0.550 -0.0850  0.3328 -0.2375
19568TIP3    H180119   5.281   3.705   0.520  1.1191  0.2158  0.2493
19568TIP3    H280120   5.182   3.812   0.563 -0.4119 -0.4400 -1.4980
19569TIP3   OH280121   4.205   1.460   2.757  0.0991 -0.3261 -0.7628
19569TIP3    H180122   4.186   1.406   2.680 -1.1554 -0.1520 -0.5968
19569TIP3    H280123   4.200   1.399   2.831 -2.9835  0.2115 -0.3857
19570TIP3   OH280124   6.444   5.252  14.024  0.7512 -0.2720  0.1568
19570TIP3    H180125   6.522   5.308  14.031  0.9666 -0.5752  0.2110
19570TIP3    H280126   6.468   5.171  14.069  0.6850 -0.6651 -0.4932
19571TIP3   OH280127   2.325   5.135   0.896 -0.0362  0.2219 -0.4180
19571TIP3    H180128   2.378   5.107   0.821  0.6898 -0.2172  0.2369
19571TIP3    H280129   2.367   5.093   0.971  1.0086  2.8744  0.6222
19572TIP3   OH280130   4.021   5.408   3.479 -0.2205  0.1052 -0.0040
19572TIP3    H180131   3.944   5.455   3.510 -0.3922 -0.4993  0.5073
19572TIP3    H280132   4.019   5.324   3.526 -0.9761 -1.2418 -2.2422
19573TIP3   OH280133   6.664   2.031   2.163  0.2486  0.3617 -0.2615
19573TIP3    H180134   6.578   2.074   2.156 -0.7740 -1.2943  1.2520
19573TIP3    H280135   6.713   2.064   2.088 -2.5261 -0.4771 -2.6600
19574TIP3   OH280136   4.011   2.689   3.076  0.0828 -0.8532  0.0027
19574TIP3    H180137   3.951   2.637   3.023 -1.9884  1.5904 -0.2414
19574TIP3    H280138   4.055   2.747   3.013 -0.8386  0.6184  0.6715
19575TIP3   OH280139   6.325   3.703   1.162  0.5014 -0.0303  0.2598
19575TIP3    H180140   6.315   3.622   1.112 -0.3514  0.3417 -0.2116
19575TIP3    H280141   6.266   3.693   1.236  1.0541 -0.1918  0.6832
19576TIP3   OH280142   5.949   2.302   5.248 -0.1052 -0.0195  0.0936
19576TIP3    H180143   5.935   2.394   5.272 -1.2525  0.6340 -2.7027
19576TIP3    H280144   6.019   2.305   5.182  0.6580 -1.3183  0.8036
19577TIP3   OH280145   3.167   5.055  14.567 -0.0118 -0.4535  0.3085
19577TIP3    H180146   3.080   5.029  14.598  0.6622 -1.6714  1.2582
19577TIP3    H280147   3.222   4.978  14.582  1.5910  0.7972  1.2154
19578TIP3   OH280148   5.945   3.299   3.843 -0.2138  0.2175  0.3679
19578TIP3    H180149   5.850   3.290   3.850  0.0538 -1.7825  2.7217
19578TIP3    H280150   5.969   3.244   3.768 -0.7672 -0.7290  0.8724
19579TIP3   OH280151   4.495   4.437   5.018  0.6080 -0.3757  0.6729
19579TIP3    H180152   4.553   4.449   5.093 -0.0540 -1.4767  1.3919
19579TIP3    H280153   4.438   4.515   5.018 -0.0679 -0.8439  1.9623
19580TIP3   OH280154   5.843   5.766   4.069  0.0226 -0.1829 -0.9382
19580TIP3    H180155   5.788   5.703   4.023  0.1860 -1.5833  0.6978
19580TIP3    H280156   5.799   5.781   4.153  0.9987  0.3570 -0.4954
19581TIP3   OH280157   1.607   2.848  14.876  0.4110  0.2456  0.0620
19581TIP3    H180158   1.522   2.881  14.849 -1.0679 -2.5033  0.9512
19581TIP3    H280159   1.652   2.826  14.794 -0.3528  0.3291 -0.3839
19582TIP3   OH280160   4.477   0.429   1.057  0.1879 -0.5188  0.7029
19582TIP3    H180161   4.457   0.349   1.009 -2.6117 -1.0994  2.5610
19582TIP3    H280162   4.400   0.443   1.112  1.5282  2.2666  2.0651
19583TIP3   OH280163   5.578   6.469   4.632  0.1478 -0.3302  0.1386
19583TIP3    H180164   5.498   6.418   4.645 -1.0231  1.5289  0.6728
19583TIP3    H280165   5.550   6.560   4.644  1.8858  0.5595 -1.9452
19584TIP3   OH280166   3.147   1.457   2.930  0.2859 -0.4560  0.3185
19584TIP3    H180167   3.142   1.552   2.942 -1.9659 -0.1187 -2.2006
19584TIP3    H280168   3.166   1.422   3.017  0.3972  2.2408  1.4744
19585TIP3   OH280169   5.569   4.730   5.187 -0.1625 -0.1589  0.4511
19585TIP3    H180170   5.506   4.658   5.182 -2.7000  1.7840  2.1346
19585TIP3    H280171   5.582   4.757   5.096 -0.1644 -1.8469 -0.0883
19586TIP3   OH280172   3.023   0.340  11.234 -0.0709  0.1215  0.3509
19586TIP3    H180173   2.997   0.385  11.153 -1.4538  0.9293  1.1977
19586TIP3    H280174   2.953   0.361  11.296  1.3320  0.1362  1.9872
19587TIP3   OH280175   1.730   2.205   1.856 -0.3164 -0.4612 -0.1046
19587TIP3    H180176   1.777   2.160   1.927  0.8289 -2.0167 -1.7475
19587TIP3    H280177   1.797   2.219   1.789 -1.7748 -0.9587 -1.7364
19588TIP3   OH280178   2.686   1.479   1.640 -0.1239  0.3096 -0.3722
19588TIP3    H180179   2.774   1.493   1.606 -0.7089  1.4485 -1.5115
19588TIP3    H280180   2.636   1.449   1.564 -0.9257  0.5579  0.0458
19589TIP3   OH280181   6.564   6.479   4.517 -0.0103  0.1938  0.2360
19589TIP3    H180182   6.577   6.397   4.565  2.9981  0.6378  0.3575
19589TIP3    H280183   6.570   6.547   4.583 -0.5408  0.6304 -0.1517
19590TIP3   OH280184   3.469   6.383   2.840 -0.3687  0.2756 -0.1167
19590TIP3    H180185   3.376   6.395   2.858 -0.1064 -0.3551  1.9712
19590TIP3    H280186   3.510   6.465   2.866 -0.3225  0.5846 -1.1140
19591TIP3   OH280187   5.051   0.973  13.439  0.1966  0.1737  0.3005
19591TIP3    H180188   5.136   1.018  13.442  0.2985  0.1328 -1.1492
19591TIP3    H280189   5.061   0.899  13.499  0.5427  1.1926  1.5531
19592TIP3   OH280190   5.296   4.975  13.360  0.3451  0.2042  1.5923
19592TIP3    H180191   5.293   5.052  13.417  0.4377  1.3981  0.0612
19592TIP3    H280192   5.380   4.983  13.314 -0.5353  0.3321 -0.0710
19593TIP3   OH280193   6.588   5.917   3.281 -0.2229  0.0485  0.1984
19593TIP3    H180194   6.563   5.992   3.335  1.4653  0.7324  0.0867
19593TIP3    H280195   6.507   5.891   3.237 -0.6362  2.5726 -0.6901
19594TIP3   OH280196   5.429   2.173  13.186  0.0968  0.1663 -0.2805
19594TIP3    H180197   5.353   2.115  13.179  1.7303 -2.4569  1.5919
19594TIP3    H280198   5.503   2.118  13.160  1.6633  1.6636  0.8393
19595TIP3   OH280199   5.094   3.174   3.740  0.4712 -0.3807 -0.5523
19595TIP3    H180200   5.151   3.178   3.663  2.1942 -1.6798  0.5754
19595TIP3    H280201   5.149   3.207   3.811 -1.8918  3.3534 -0.1723
19596TIP3   OH280202   4.064   5.896   5.981 -0.1825 -0.1781 -0.2454
19596TIP3    H180203   3.995   5.894   6.048  0.6881  0.7400  0.7008
19596TIP3    H280204   4.105   5.809   5.987 -3.6752 -2.3730 -3.5305
19597TIP3   OH280205   5.382   4.467   1.418 -0.1100 -0.5255 -0.2485
19597TIP3    H180206   5.471   4.434   1.411  1.4557  3.0480  0.8788
19597TIP3    H280207   5.371   4.524   1.342 -0.7172  0.5213  0.5934
19598TIP3   OH280208   5.069   0.241  12.020  0.2151  0.3774 -0.5798
19598TIP3    H180209   5.153   0.264  11.981 -0.5340  0.5842 -2.1811
19598TIP3    H280210   5.022   0.325  12.026 -0.1142  0.1754 -0.3106
19599TIP3   OH280211   2.552   5.585   5.381 -0.7594  0.0136 -0.0044
19599TIP3    H180212   2.476   5.554   5.431 -2.0259  1.6374 -0.8223
19599TIP3    H280213   2.533   5.561   5.290  1.2245 -2.3392  0.1104
19600TIP3   OH280214   5.344   0.006  15.816  0.6383 -0.5096  0.3081
19600TIP3    H180215   5.393  -0.076  15.822  0.3427 -0.5775  2.6735
19600TIP3    H280216   5.407   0.070  15.783  0.8385 -1.6656 -1.7022
19601TIP3   OH280217   5.758   3.037  10.114  0.1615  0.0706  0.4236
19601TIP3    H180218   5.663   3.036  10.107 -0.0130 -0.5325  2.4126
19601TIP3    H280219   5.784   2.945  10.104  0.9326  0.5412 -3.6103
19602TIP3   OH280220   5.245   6.750  14.121  0.2037  0.2486 -0.0233
19602TIP3    H180221   5.180   6.707  14.177 -0.5251 -0.1708 -1.1556
19602TIP3    H280222   5.266   6.831  14.166  0.5212 -0.6167  1.4456
19603TIP3   OH280223   6.291   6.217  15.977 -0.1146 -0.0199  1.1432
19603TIP3    H180224   6.350   6.293  15.978 -0.7115  0.4554  0.7811
19603TIP3    H280225   6.329   6.157  16.041  1.9777 -0.6609 -0.5358
19604TIP3   OH280226   4.839   3.741   2.478 -0.2306 -0.5342 -0.3654
19604TIP3    H180227   4.878   3.655   2.461 -1.2480 -1.1355  0.2188
19604TIP3    H280228   4.766   3.723   2.538 -0.2812  0.7767  0.0084
19605TIP3   OH280229   3.898   4.027   5.533 -0.3078 -0.3077  0.4414
19605TIP3    H180230   3.934   4.035   5.621 -0.1320 -0.0618  0.3502
19605TIP3    H280231   3.928   4.107   5.488  1.2932 -1.3422 -0.4380
19606TIP3   OH280232   2.813   0.068  15.636  0.3570 -0.5450  0.0130
19606TIP3    H180233   2.900   0.035  15.616  0.1862 -1.0513  0.0940
19606TIP3    H280234   2.768  -0.006  15.677 -0.9949 -1.1733 -2.4136
19607TIP3   OH280235   3.919   6.431   0.796  0.3184 -0.3757  0.0101
19607TIP3    H180236   3.840   6.397   0.754 -0.3675 -0.9474  1.6798
19607TIP3    H280237   3.887   6.477   0.873  1.5440  0.5725 -0.0077
19608TIP3   OH280238   5.710   1.612   3.417  0.1477 -0.1249 -0.2340
19608TIP3    H180239   5.683   1.688   3.469  1.9450  0.3967  0.0421
19608TIP3    H280240   5.738   1.650   3.334 -0.8121 -0.7335 -0.8488
19609TIP3   OH280241   6.454   4.224  16.281 -0.2915 -0.5549  0.2834
19609TIP3    H180242   6.361   4.218  16.260 -0.1761 -0.7964 -0.1720
19609TIP3    H280243   6.475   4.138  16.318  0.2171 -1.2830 -1.5675
19610TIP3   OH280244   1.878   6.799  11.870  0.0304  0.0414 -0.5555
19610TIP3    H180245   1.863   6.802  11.776  0.9548 -0.8098 -0.7566
19610TIP3    H280246   1.842   6.881  11.904  1.4171  1.2789 -1.9164
19611TIP3   OH280247   6.504   2.128   3.858 -0.3767 -0.1217  0.1546
19611TIP3    H180248   6.463   2.191   3.797 -1.0461 -0.9741 -0.3043
19611TIP3    H280249   6.438   2.116   3.927  0.9476  1.9523  1.9079
19612TIP3   OH280250   1.416   3.346  16.366  0.7745  0.1608 -0.6149
19612TIP3    H180251   1.413   3.314  16.456 -0.6959  2.0555  0.0851
19612TIP3    H280252   1.461   3.278  16.318 -2.5508 -3.2376  0.6186
19613TIP3   OH280253   3.191   1.845   5.083  0.1525  0.1118 -0.1708
19613TIP3    H180254   3.184   1.780   5.013  0.7785 -1.4624  1.1685
19613TIP3    H280255   3.276   1.828   5.123 -0.1847  0.9871  0.9679
19614TIP3   OH280256   6.531   1.578   1.538 -0.0355 -0.3624 -0.1391
19614TIP3    H180257   6.591   1.593   1.610 -0.8168 -2.0668  0.9496
19614TIP3    H280258   6.587   1.574   1.460  0.9786  0.2130  0.5380
19615TIP3   OH280259   1.631   0.475   0.644  0.7659 -0.3827  0.0204
19615TIP3    H180260   1.596   0.428   0.568  2.1262 -1.6768  0.1582
19615TIP3    H280261   1.719   0.500   0.618  0.4667  1.1239  0.3871
19616TIP3   OH280262   4.739   0.463  12.393  0.7487  0.1639  0.1481
19616TIP3    H180263   4.698   0.523  12.455 -1.4203 -1.6328  0.5755
19616TIP3    H280264   4.798   0.410  12.446 -1.0937 -1.3611  0.7638
19617TIP3   OH280265   2.458   0.395  10.491 -0.2432  0.1785  0.8066
19617TIP3    H180266   2.530   0.335  10.471  0.2594  0.3979  1.8699
19617TIP3    H280267   2.470   0.467  10.430  0.0067 -0.1326  0.4823
19618TIP3   OH280268   2.871   3.362  15.558  0.2076  0.7869  0.2646
19618TIP3    H180269   2.896   3.276  15.525 -0.2844  1.1639 -1.1571
19618TIP3    H280270   2.873   3.353  15.653  1.4040 -0.4250  0.1558
19619TIP3   OH280271   1.766   5.960  15.342 -1.1298 -0.0461  0.4356
19619TIP3    H180272   1.851   5.927  15.369 -0.1599  0.9167 -1.2631
19619TIP3    H280273   1.723   5.986  15.424  1.0863  1.4415  1.2309
19620TIP3   OH280274   3.803   3.883   1.858 -0.3819 -0.6093 -0.3495
19620TIP3    H180275   3.723   3.854   1.815 -0.1224 -0.5575 -0.8844
19620TIP3    H280276   3.785   3.876   1.951 -2.3686  2.8975 -0.3080
19621TIP3   OH280277   5.798   0.895   5.486  0.3938 -0.5783  0.2327
19621TIP3    H180278   5.779   0.835   5.414 -0.9722 -0.1377  0.2022
19621TIP3    H280279   5.800   0.982   5.446  4.2509 -0.6195 -0.0874
19622TIP3   OH280280   0.301   1.799   3.472 -0.4673 -0.1255  0.2116
19622TIP3    H180281   0.365   1.818   3.541  0.7100  1.8121 -1.3087
19622TIP3    H280282   0.222   1.845   3.499 -0.3591 -0.2414  0.7507
19623TIP3   OH280283   6.158   0.007   0.666  0.1831 -0.0225 -0.2227
19623TIP3    H180284   6.169  -0.013   0.759  1.6306  0.3235 -0.2971
19623TIP3    H280285   6.237   0.054   0.642 -0.4967  0.5350 -1.4730
19624TIP3   OH280286   0.126   1.459  13.018  0.1312 -0.0231 -0.4576
19624TIP3    H180287   0.062   1.405  12.972  0.8964  0.3485 -2.0321
19624TIP3    H280288   0.086   1.476  13.104 -2.7241  1.6222 -1.9436
19625TIP3   OH280289   0.230   6.625   3.566 -0.1114 -0.0911 -0.3648
19625TIP3    H180290   0.265   6.536   3.560  1.7208  0.4145  1.7791
19625TIP3    H280291   0.285   6.676   3.506 -0.0658 -0.1008 -0.3313
19626TIP3   OH280292   6.108   6.485   3.928 -0.2185  0.7414 -0.3378
19626TIP3    H180293   6.089   6.493   4.022  1.5188  0.0530  0.1047
19626TIP3    H280294   6.027   6.514   3.885 -0.9708  1.2997  1.3554
19627TIP3   OH280295   1.998   1.755   1.540 -0.6916 -0.5500  0.5903
19627TIP3    H180296   1.996   1.850   1.553 -3.6695 -0.7087  2.1633
19627TIP3    H280297   1.920   1.723   1.586 -0.2157 -3.6948 -0.5610
19628TIP3   OH280298   0.209   4.505  16.377 -0.4502  0.0052  0.5153
19628TIP3    H180299   0.290   4.503  16.427 -0.5268  1.7091  0.7909
19628TIP3    H280300   0.142   4.472  16.437 -0.3884  1.1858  1.2628
19629TIP3   OH280301   3.291   3.317  11.115 -0.8725 -0.0250  0.1130
19629TIP3    H180302   3.280   3.305  11.209 -0.8644 -0.1980  0.0909
19629TIP3    H280303   3.215   3.274  11.076 -1.3450  0.8045  0.0859
19630TIP3   OH280304   0.557   6.214  12.041  0.1168  0.8374 -0.7056
19630TIP3    H180305   0.538   6.121  12.039  1.3548  0.5638 -0.8746
19630TIP3    H280306   0.645   6.221  12.003 -0.1915  2.1361 -1.2451
19631TIP3   OH280307   6.655   2.927   3.616  0.6234 -0.5145 -0.4955
19631TIP3    H180308   6.596   2.855   3.592 -0.8596  0.7809 -0.8857
19631TIP3    H280309   6.676   2.969   3.533  0.6341  0.1254 -0.1732
19632TIP3   OH280310   6.374   6.165   0.416 -0.0186  0.4256  0.0361
19632TIP3    H180311   6.305   6.229   0.435  0.7793  1.2006  0.3806
19632TIP3    H280312   6.452   6.200   0.459  0.3784 -0.9215  0.4631
19633TIP3   OH280313   0.195   5.590  12.025  0.0110 -0.0231  0.0482
19633TIP3    H180314   0.168   5.505  12.060 -2.0876  0.9300  0.8874
19633TIP3    H280315   0.113   5.635  12.005  1.0019  2.4025  1.0942
19634TIP3   OH280316   1.116   4.492  14.906  0.0429  0.2846 -0.1937
19634TIP3    H180317   1.062   4.418  14.934  1.1780 -0.2443  0.6725
19634TIP3    H280318   1.099   4.560  14.972  0.2712  0.2007 -0.0498
19635TIP3   OH280319   5.367   0.053  16.633  0.6964 -0.5505  0.2109
19635TIP3    H180320   5.279   0.033  16.603 -0.3671 -0.5910  3.0239
19635TIP3    H280321   5.377   0.147  16.618  0.6084 -0.7411 -1.0898
19636TIP3   OH280322   5.427   4.453  10.291 -0.6252 -0.1006  0.0503
19636TIP3    H180323   5.391   4.374  10.249  0.7146 -0.3082 -0.7641
19636TIP3    H280324   5.482   4.493  10.224 -0.8850  1.2725  0.6281
19637TIP3   OH280325   5.397   6.734   2.904 -0.8988 -0.2602 -0.3329
19637TIP3    H180326   5.366   6.805   2.848  2.6280  0.3229 -1.7830
19637TIP3    H280327   5.353   6.656   2.870 -1.0021  0.4977 -2.0489
19638TIP3   OH280328   6.174   3.520  16.998 -0.3786 -0.3828 -0.0267
19638TIP3    H180329   6.166   3.601  17.049 -0.0627 -0.4327  0.0987
19638TIP3    H280330   6.096   3.469  17.022  0.0542 -0.6528  0.8457
19639TIP3   OH280331   0.620   0.750  13.000 -0.0678 -0.7571 -0.1652
19639TIP3    H180332   0.713   0.770  12.989 -0.3582  0.7324 -0.1104
19639TIP3    H280333   0.591   0.722  12.913  0.2781 -0.6002 -0.3316
19640TIP3   OH280334   5.530   5.856  14.530 -0.0919  0.0437 -0.6348
19640TIP3    H180335   5.542   5.772  14.487 -2.0669  0.1614 -1.5182
19640TIP3    H280336   5.444   5.851  14.571  0.2897  1.1923  0.3817
19641TIP3   OH280337   2.486   3.008   3.766 -0.0016  1.0370 -0.4349
19641TIP3    H180338   2.476   2.914   3.750 -1.5369  1.2328 -0.7740
19641TIP3    H280339   2.474   3.018   3.860 -3.1687  1.2040 -0.7552
19642TIP3   OH280340   0.503   2.457   4.286 -0.2144  0.5212  0.0451
19642TIP3    H180341   0.574   2.503   4.241  0.1285 -0.6994 -0.7105
19642TIP3    H280342   0.521   2.364   4.271  0.6189 -0.1003  3.7113
19643TIP3   OH280343   6.152   6.354  16.671  0.3751  0.0911 -0.2909
19643TIP3    H180344   6.221   6.400  16.719  0.2973  0.8039 -0.8495
19643TIP3    H280345   6.111   6.422  16.618 -2.3470  0.2291  1.7818
19644TIP3   OH280346   4.959   4.610  16.748  0.0429  0.2820 -0.1214
19644TIP3    H180347   4.953   4.562  16.665  0.0175 -0.2829  0.1958
19644TIP3    H280348   4.868   4.624  16.774 -0.0139 -1.8490  1.0838
19645TIP3   OH280349   4.118   6.283  11.815 -0.2483 -0.0975 -0.1749
19645TIP3    H180350   4.120   6.195  11.852  0.3716  0.4925  1.3034
19645TIP3    H280351   4.204   6.294  11.775 -0.4093 -0.2395 -0.5629
19646TIP3   OH280352   2.270   6.526  15.142 -0.1067  0.5193 -0.1489
19646TIP3    H180353   2.251   6.572  15.224  0.9095 -0.8889  0.9198
19646TIP3    H280354   2.255   6.592  15.074 -1.0623  1.7043  1.1352
19647TIP3   OH280355   5.022   2.260  13.861 -0.1703  0.2016  0.1842
19647TIP3    H180356   5.042   2.166  13.870 -0.5638  0.0380 -0.6100
19647TIP3    H280357   5.102   2.298  13.825 -0.1133  0.1230  0.2262
19648TIP3   OH280358   2.742   6.694  14.599  0.1970  0.3534 -0.4005
19648TIP3    H180359   2.731   6.747  14.678  0.6310 -1.3203  0.8358
19648TIP3    H280360   2.655   6.693  14.559 -0.4130  0.0236  0.8774
19649TIP3   OH280361   5.343   1.707  16.740 -0.7184  0.0513 -0.4578
19649TIP3    H180362   5.321   1.648  16.812 -0.8873 -1.6872 -1.8326
19649TIP3    H280363   5.434   1.731  16.755 -0.5058 -0.9365 -0.0660
19650TIP3   OH280364   6.319   1.454  11.652  0.1468  0.1242 -0.1518
19650TIP3    H180365   6.326   1.546  11.629  0.0556  0.7265  1.9876
19650TIP3    H280366   6.225   1.439  11.663  0.2146 -0.0113  0.2640
19651TIP3   OH280367   6.540   2.886   4.796  0.5958 -0.1848  0.3611
19651TIP3    H180368   6.507   2.968   4.759  2.7541  0.4744 -0.2151
19651TIP3    H280369   6.566   2.908   4.885  1.4557 -0.1487  0.1091
19652TIP3   OH280370   1.701   5.547   5.755  0.1722  0.5172 -0.6404
19652TIP3    H180371   1.617   5.534   5.800 -0.1111  1.7302 -0.7996
19652TIP3    H280372   1.757   5.590   5.820  0.3685  0.5612 -0.8384
19653TIP3   OH280373   0.777   5.159  14.591  0.1833  0.9544 -0.6086
19653TIP3    H180374   0.823   5.076  14.581 -0.3929  0.7100 -1.3295
19653TIP3    H280375   0.846   5.225  14.584  0.8871  0.5268  1.5034
19654TIP3   OH280376   3.519   3.884   4.465 -0.2209 -0.0981  0.4057
19654TIP3    H180377   3.464   3.819   4.422  3.5570 -1.0084 -3.7510
19654TIP3    H280378   3.581   3.833   4.517  0.3582  0.4650  0.2769
19655TIP3   OH280379   1.674   5.484  13.770  0.5934  0.1924  0.5147
19655TIP3    H180380   1.657   5.397  13.807  1.6033 -0.4342 -0.4518
19655TIP3    H280381   1.746   5.471  13.709 -1.0903  1.1605 -1.8015
19656TIP3   OH280382   3.923   2.577  15.541 -0.0771 -0.7233 -0.4249
19656TIP3    H180383   4.001   2.538  15.501 -0.4786 -0.9039 -1.0525
19656TIP3    H280384   3.952   2.664  15.569  0.0122 -0.2525 -1.8853
19657TIP3   OH280385   3.438   2.628   3.134  0.0261 -0.6357 -0.0874
19657TIP3    H180386   3.461   2.712   3.094 -0.9196  0.6824  1.9925
19657TIP3    H280387   3.344   2.633   3.147  0.2646 -1.0583  2.0857
19658TIP3   OH280388   0.401   1.051  10.436  0.3211  0.0741 -0.7419
19658TIP3    H180389   0.415   1.047  10.531 -1.8889  0.6657 -0.3230
19658TIP3    H280390   0.389   1.144  10.417  2.0276  0.1027 -1.8611
19659TIP3   OH280391   0.167   3.550   2.988 -0.0284  0.0838  0.4360
19659TIP3    H180392   0.115   3.545   2.909  0.4105  0.1548  0.1394
19659TIP3    H280393   0.215   3.468   2.991  1.8237  1.0486 -0.6977
19660TIP3   OH280394   6.643   4.595  11.174 -0.1941 -0.5046 -0.2835
19660TIP3    H180395   6.710   4.662  11.163  0.2342 -0.8110  0.3674
19660TIP3    H280396   6.672   4.544  11.250 -1.0155 -0.8241 -0.1710
19661TIP3   OH280397   4.009   3.264   1.079 -0.6005 -0.5827  0.2088
19661TIP3    H180398   4.066   3.188   1.092 -0.1589  0.0851  2.7178
19661TIP3    H280399   4.035   3.299   0.994  2.3972 -0.6271  0.9848
19662TIP3   OH280400   4.333   2.942  11.386  0.2011  0.2849 -0.5753
19662TIP3    H180401   4.392   2.977  11.453 -0.9159 -0.5788  0.9447
19662TIP3    H280402   4.385   2.941  11.306  2.0922 -0.0278  0.5833
19663TIP3   OH280403   3.114   3.996   3.954 -0.0833  0.6345  0.1086
19663TIP3    H180404   3.180   3.933   3.983 -0.9240  0.1394  1.0038
19663TIP3    H280405   3.059   4.010   4.031 -0.9829  1.0845 -0.6012
19664TIP3   OH280406   1.981   4.307   4.280 -0.6062 -0.1531 -0.2522
19664TIP3    H180407   1.950   4.366   4.211  0.1760  1.2164  0.5176
19664TIP3    H280408   1.908   4.247   4.294 -0.8461 -0.3573 -2.1360
19665TIP3   OH280409   3.435   5.515  14.749  0.4051 -0.3069  0.0608
19665TIP3    H180410   3.390   5.548  14.671  0.3138  0.7049  0.5188
19665TIP3    H280411   3.515   5.475  14.715  0.9607  1.1980 -0.4724
19666TIP3   OH280412   4.737   2.695  14.932  0.1823  0.4290 -0.7846
19666TIP3    H180413   4.678   2.638  14.883 -1.7988  0.7914  1.0128
19666TIP3    H280414   4.780   2.637  14.995 -0.3238  0.5711 -0.2968
19667TIP3   OH280415   5.086   4.065   2.854  0.0152 -0.2331  0.3038
19667TIP3    H180416   5.144   4.046   2.927  0.3692 -0.5979 -0.0634
19667TIP3    H280417   5.028   3.989   2.849 -0.5430  0.1674  0.7194
19668TIP3   OH280418   0.924   0.447  15.993 -0.1282 -0.3077  0.3168
19668TIP3    H180419   0.834   0.418  15.973 -0.0090  0.2247 -1.1783
19668TIP3    H280420   0.958   0.477  15.908  1.3463 -0.1684  0.9321
19669TIP3   OH280421   1.299   0.366   2.271 -0.0160 -0.1781 -0.4722
19669TIP3    H180422   1.273   0.280   2.301 -1.8186  0.3363 -0.4632
19669TIP3    H280423   1.248   0.381   2.191 -0.4398  1.2412  0.0282
19670TIP3   OH280424   2.628   2.705  12.448 -0.7474 -0.2610 -0.0891
19670TIP3    H180425   2.671   2.765  12.388  0.8763  0.3554  1.5855
19670TIP3    H280426   2.566   2.759  12.497 -1.7201 -0.6629 -0.8454
19671TIP3   OH280427   0.577   2.460  12.747  0.0543  0.5643 -0.2787
19671TIP3    H180428   0.520   2.504  12.683  0.3915  1.2709 -0.1086
19671TIP3    H280429   0.536   2.479  12.831  0.1279  0.4301 -0.2127
19672TIP3   OH280430   0.327   0.518  14.243  0.1276  0.4841 -0.6272
19672TIP3    H180431   0.270   0.500  14.318  0.9934 -0.7033 -0.2231
19672TIP3    H280432   0.288   0.595  14.202 -1.3344  0.1490  0.0532
19673TIP3   OH280433   2.755   5.189   5.645  0.4764 -0.0176  0.2455
19673TIP3    H180434   2.750   5.225   5.557 -0.0453  0.2782  0.3909
19673TIP3    H280435   2.848   5.180   5.663  0.6494  2.0616  0.5362
19674TIP3   OH280436   3.491   6.757  16.719 -0.0990  0.6751 -0.0778
19674TIP3    H180437   3.446   6.771  16.802  1.1971  0.4434  0.6897
19674TIP3    H280438   3.521   6.843  16.691  0.7220  0.5777  0.4555
19675TIP3   OH280439   5.193   0.708   0.843 -0.0206  0.7392  0.1434
19675TIP3    H180440   5.231   0.718   0.756  0.8608 -0.6668  0.3231
19675TIP3    H280441   5.115   0.655   0.829  1.5231 -1.7826  0.4275
19676TIP3   OH280442   5.185   1.552  14.852  0.5425  0.6156  0.0683
19676TIP3    H180443   5.222   1.582  14.769  0.0911  0.7853 -0.0765
19676TIP3    H280444   5.095   1.529  14.831  0.5797  0.1630  0.4046
19677TIP3   OH280445   0.948   0.669  13.517  0.2114 -0.0565 -0.5305
19677TIP3    H180446   0.999   0.589  13.522 -1.4180 -1.0776  0.6785
19677TIP3    H280447   0.902   0.663  13.432 -0.4728 -0.7887 -0.1218
19678TIP3   OH280448   2.475   1.021   4.072  0.2587  0.0724 -0.6514
19678TIP3    H180449   2.464   0.949   4.010 -0.1973 -1.1553  0.8075
19678TIP3    H280450   2.569   1.032   4.081  0.3400 -0.7243 -0.4751
19679TIP3   OH280451   4.758   5.923  11.404 -0.0743 -0.3570  0.3959
19679TIP3    H180452   4.721   6.006  11.433  1.9270  1.0000 -0.6613
19679TIP3    H280453   4.767   5.872  11.484 -3.3832 -0.5292  0.7977
19680TIP3   OH280454   4.663   5.659   2.920  0.1642 -0.1693 -0.3072
19680TIP3    H180455   4.660   5.680   3.013  1.8344  0.7385 -0.4183
19680TIP3    H280456   4.744   5.701   2.889 -0.8826  0.4275 -2.3792
19681TIP3   OH280457   5.464   5.969   0.281 -0.4005  0.1850  0.3541
19681TIP3    H180458   5.449   5.902   0.214 -1.0244 -0.2204  0.8907
19681TIP3    H280459   5.534   5.934   0.335 -1.8472 -0.8530  1.6554
19682TIP3   OH280460   4.048   3.876   2.174 -0.2326  0.6460  0.0824
19682TIP3    H180461   4.143   3.873   2.181 -0.3378 -1.0010  1.2919
19682TIP3    H280462   4.023   3.955   2.223  0.4674  0.8101  0.1875
19683TIP3   OH280463   0.758   5.627   5.167  0.1340  0.2740 -0.4513
19683TIP3    H180464   0.746   5.702   5.226 -0.4033  0.1465 -0.3992
19683TIP3    H280465   0.773   5.666   5.081 -1.3958  0.4332 -0.6628
19684TIP3   OH280466   0.333   6.110  13.884  0.6942 -0.1098 -0.2396
19684TIP3    H180467   0.330   6.061  13.802  3.1558 -1.8189  0.5676
19684TIP3    H280468   0.297   6.196  13.862  0.1737 -0.9036 -2.7889
19685TIP3   OH280469   1.919   5.619   1.022 -0.0985 -0.0668  0.2761
19685TIP3    H180470   1.834   5.662   1.034 -0.5366 -0.8710  0.0944
19685TIP3    H280471   1.982   5.691   1.019 -0.6309  0.4838  1.5839
19686TIP3   OH280472   3.373   6.010   1.066  0.2983 -0.0610 -0.0256
19686TIP3    H180473   3.308   5.975   1.005 -0.5672  0.7375  0.4134
19686TIP3    H280474   3.367   5.953   1.143  0.3583 -0.1882 -0.1145
19687TIP3   OH280475   5.761   6.387  12.299  0.8269 -0.6088  0.4850
19687TIP3    H180476   5.711   6.313  12.265 -0.5138 -1.0617  3.1817
19687TIP3    H280477   5.700   6.460  12.295  1.4693 -0.0975 -0.2722
19688TIP3   OH280478   5.942   2.551  11.829 -0.2819 -0.1449  0.7311
19688TIP3    H180479   5.888   2.476  11.803 -1.4337  1.1641 -0.9598
19688TIP3    H280480   5.882   2.626  11.821  1.2950  1.1518  0.6383
19689TIP3   OH280481   3.793   1.145  15.212 -0.1273 -0.0476 -0.1877
19689TIP3    H180482   3.798   1.149  15.308 -0.2371  1.8370 -0.2294
19689TIP3    H280483   3.880   1.115  15.186 -0.1469 -0.7445  0.5080
19690TIP3   OH280484   5.645   0.247  13.211  0.1048  0.1489 -0.1536
19690TIP3    H180485   5.721   0.261  13.155 -1.0030  3.8841 -1.0171
19690TIP3    H280486   5.664   0.297  13.291 -0.3657 -1.1339  0.8018
19691TIP3   OH280487   0.775   0.395   0.412 -0.5541 -0.6455 -0.4420
19691TIP3    H180488   0.729   0.474   0.384 -0.4897 -0.1133  0.8494
19691TIP3    H280489   0.856   0.427   0.452 -0.4855 -1.3683  0.0212
19692TIP3   OH280490   0.873   3.017   2.801 -0.3251 -1.0014  0.2022
19692TIP3    H180491   0.884   3.032   2.708  1.2275 -0.3907  0.4396
19692TIP3    H280492   0.813   2.943   2.807 -0.8473 -0.7204 -1.2575
19693TIP3   OH280493   4.958   2.968  12.939 -0.6082  0.3806  0.1530
19693TIP3    H180494   4.955   2.873  12.949 -0.3183  0.3125 -0.3776
19693TIP3    H280495   4.872   2.991  12.904  0.5995 -0.1813 -3.5871
19694TIP3   OH280496   3.801   5.844  13.697  0.0826  0.0699 -0.3905
19694TIP3    H180497   3.783   5.758  13.660  0.7503 -0.0170 -0.5266
19694TIP3    H280498   3.897   5.849  13.700  0.0436  0.6276  0.0352
19695TIP3   OH280499   4.489   2.736  16.264  0.0242 -0.4377 -0.4172
19695TIP3    H180500   4.569   2.727  16.212  0.1317  0.9622 -0.5190
19695TIP3    H280501   4.419   2.741  16.200  0.1736  1.4662 -0.4636
19696TIP3   OH280502   2.449   2.536   1.113  0.2507  0.3056  0.5935
19696TIP3    H180503   2.495   2.597   1.171  0.3731  1.6485 -0.8693
19696TIP3    H280504   2.385   2.591   1.068  1.9290 -0.0986 -2.5201
19697TIP3   OH280505   3.726   2.529   2.653 -0.1396  0.4002 -0.0417
19697TIP3    H180506   3.742   2.575   2.571  0.6153  0.0946 -0.0687
19697TIP3    H280507   3.635   2.500   2.646  0.2101 -0.5285 -1.2295
19698TIP3   OH280508   1.198   4.717  16.383  0.0210 -0.3171  0.1286
19698TIP3    H180509   1.221   4.809  16.389  1.9935 -0.8208  2.5245
19698TIP3    H280510   1.229   4.689  16.297 -0.6500  1.2305 -0.6377
19699TIP3   OH280511   0.396   0.798   2.143  0.0472 -0.6852 -0.0093
19699TIP3    H180512   0.314   0.789   2.094  0.4609  2.0918 -1.3869
19699TIP3    H280513   0.425   0.887   2.126  4.8091 -2.2470 -1.9134
19700TIP3   OH280514   2.053   4.523   0.724  0.0629 -0.5667  0.3322
19700TIP3    H180515   2.116   4.534   0.652  1.2695 -2.5073  1.0123
19700TIP3    H280516   1.968   4.515   0.681  0.3463  1.1758 -0.6722
19701TIP3   OH280517   5.746   4.220   1.101  0.1669  0.3451 -0.2650
19701TIP3    H180518   5.820   4.264   1.058  0.4685 -0.8352 -0.9934
19701TIP3    H280519   5.674   4.230   1.039  0.4655 -0.9060 -0.8412
19702TIP3   OH280520   3.880   1.342  13.161  0.9283 -0.4867 -0.3091
19702TIP3    H180521   3.920   1.257  13.179  2.3817  0.3901  0.7718
19702TIP3    H280522   3.933   1.378  13.090  1.7287  0.4212  0.7188
19703TIP3   OH280523   1.626   5.472   3.629 -0.7881  0.1588 -0.2849
19703TIP3    H180524   1.626   5.467   3.534 -1.4554 -0.8343 -0.2442
19703TIP3    H280525   1.675   5.394   3.657 -3.1869 -1.2646  0.2196
19704TIP3   OH280526   4.983   4.290  14.557  0.0316  0.5147 -0.3987
19704TIP3    H180527   5.036   4.225  14.511  1.0234  0.5976  0.5912
19704TIP3    H280528   4.979   4.259  14.648 -1.5057  0.5923 -0.4123
19705TIP3   OH280529   3.564   4.475   5.259 -0.1891  0.1664  0.1134
19705TIP3    H180530   3.631   4.486   5.326  1.0592  1.3518 -1.2804
19705TIP3    H280531   3.483   4.504   5.302  0.1738 -1.0429  1.7322
19706TIP3   OH280532   1.832   2.910  11.949 -0.0778  0.3274 -0.2217
19706TIP3    H180533   1.838   2.826  11.903  0.5534  0.8523 -1.1285
19706TIP3    H280534   1.741   2.916  11.978 -0.5091  0.0197 -1.4865
19707TIP3   OH280535   3.447   1.669  14.124  0.3335  0.0571 -0.3982
19707TIP3    H180536   3.448   1.704  14.035 -0.2936 -0.0482 -0.4516
19707TIP3    H280537   3.445   1.574  14.113 -2.6534  0.0042 -0.3683
19708TIP3   OH280538   3.356   2.150   1.290 -0.0673 -0.2000 -0.1914
19708TIP3    H180539   3.281   2.151   1.349  0.6113  0.4199  0.6886
19708TIP3    H280540   3.321   2.182   1.206 -1.1496 -1.5691 -0.2919
19709TIP3   OH280541   2.061   3.510  14.991 -0.0026 -0.4019  0.3465
19709TIP3    H180542   2.060   3.533  14.898  0.5818 -0.6730  0.2714
19709TIP3    H280543   2.019   3.585  15.034 -1.8331 -1.0053 -0.2831
19710TIP3   OH280544   0.027   4.553  16.616 -0.0545  0.7866  0.2007
19710TIP3    H180545   0.012   4.476  16.671  0.8812  0.6872  0.3348
19710TIP3    H280546  -0.040   4.615  16.644 -1.4374 -0.3140 -0.5768
19711TIP3   OH280547   0.728   1.277   4.772 -0.9722  0.7541 -0.0609
19711TIP3    H180548   0.687   1.234   4.697 -0.3587 -1.8033  0.9696
19711TIP3    H280549   0.782   1.347   4.734  1.7719 -2.3336 -2.4467
19712TIP3   OH280550   3.895   3.112  12.153  1.0178 -0.7814  0.0241
19712TIP3    H180551   3.967   3.050  12.159  2.7926  0.7658 -3.0057
19712TIP3    H280552   3.937   3.198  12.143 -1.2422  0.3515 -0.5387
19713TIP3   OH280553   6.705   0.998   5.262  0.1392 -0.0129  0.2803
19713TIP3    H180554   6.751   1.017   5.180  0.2082 -1.3126 -0.0003
19713TIP3    H280555   6.770   1.014   5.330  0.1804  0.7587  0.0812
19714TIP3   OH280556   2.629   2.628  10.428 -0.4766  0.3344 -0.0032
19714TIP3    H180557   2.695   2.681  10.472 -0.2444 -0.0173  0.0668
19714TIP3    H280558   2.678   2.577  10.364 -0.4275 -1.2658  1.2609
19715TIP3   OH280559   2.105   1.667  15.992 -0.0335 -0.3285  0.1784
19715TIP3    H180560   2.074   1.614  16.066 -2.7969  2.6723  1.3942
19715TIP3    H280561   2.036   1.659  15.926  0.8753 -0.4273 -0.7892
19716TIP3   OH280562   2.711   6.666   3.839  0.1341 -0.1523 -0.3225
19716TIP3    H180563   2.801   6.633   3.841 -0.4457 -1.8908 -0.7802
19716TIP3    H280564   2.667   6.618   3.909 -0.6945 -0.1637 -0.8360
19717TIP3   OH280565   1.398   6.001  13.197 -0.2333  0.1968 -0.1058
19717TIP3    H180566   1.430   6.077  13.247  0.0570  0.3433 -0.5048
19717TIP3    H280567   1.322   6.034  13.150 -1.1724 -0.2322  1.0781
19718TIP3   OH280568   1.491   6.501   1.005 -0.3296 -0.3719  0.3401
19718TIP3    H180569   1.515   6.531   1.093 -0.4148  1.5033 -0.2211
19718TIP3    H280570   1.432   6.428   1.020 -0.0872 -0.2957  1.8435
19719TIP3   OH280571   2.146   5.106  16.026  0.5156 -0.5346  0.3366
19719TIP3    H180572   2.188   5.053  16.095 -1.6286 -3.1045 -0.1566
19719TIP3    H280573   2.218   5.155  15.987  2.0418 -0.0323  3.4396
19720TIP3   OH280574   4.181   5.093  14.281 -0.1343  0.3116  0.0964
19720TIP3    H180575   4.185   5.088  14.185 -0.2934  1.0957  0.0408
19720TIP3    H280576   4.228   5.173  14.303  1.0088 -0.5213  0.7712
19721TIP3   OH280577   4.613   4.670  12.054 -0.2080  0.2130 -0.1481
19721TIP3    H180578   4.633   4.578  12.068 -1.5633 -0.3817 -1.7920
19721TIP3    H280579   4.635   4.686  11.962  0.9599  1.8189  0.3626
19722TIP3   OH280580   6.438   3.094   1.764 -0.2571  0.0702 -0.3775
19722TIP3    H180581   6.495   3.122   1.693 -1.4725 -1.9583 -2.2912
19722TIP3    H280582   6.498   3.070   1.835  1.1185  0.2711 -1.4264
19723TIP3   OH280583   2.545   6.737  13.365  0.1780 -0.2208 -1.2758
19723TIP3    H180584   2.527   6.644  13.377 -2.1361  0.3634  0.5366
19723TIP3    H280585   2.583   6.743  13.277  5.4490 -3.3870  0.3025
19724TIP3   OH280586   4.524   0.654  11.920  0.1009  0.4088 -0.8336
19724TIP3    H180587   4.445   0.702  11.944  0.8151  1.0073  0.4082
19724TIP3    H280588   4.543   0.599  11.996 -0.0018 -0.9278 -1.7486
19725TIP3   OH280589   4.948   4.009   3.747 -0.5242  0.1279 -0.0023
19725TIP3    H180590   5.037   4.037   3.770 -0.5952  1.3253 -1.0235
19725TIP3    H280591   4.956   3.979   3.656 -0.8108 -1.6129  0.5134
19726TIP3   OH280592   1.358   5.188   3.460 -0.0408  0.5038  0.0536
19726TIP3    H180593   1.450   5.210   3.470  0.3653  0.0148 -1.9900
19726TIP3    H280594   1.343   5.115   3.520  1.0842  0.1991 -0.0243
19727TIP3   OH280595   6.536   5.431   3.069 -0.2472  0.1219 -0.5778
19727TIP3    H180596   6.562   5.342   3.046  0.5026  0.5569 -1.4936
19727TIP3    H280597   6.588   5.487   3.011  0.0072  1.2010  0.6271
19728TIP3   OH280598   3.032   6.250  14.010 -0.4075  0.2603  0.3291
19728TIP3    H180599   3.079   6.260  13.927 -1.0757 -2.1033 -0.4028
19728TIP3    H280600   3.101   6.243  14.075  0.1990 -0.1091 -0.3325
19729TIP3   OH280601   0.236   5.912   2.692  0.0020  0.3121 -0.1915
19729TIP3    H180602   0.249   5.935   2.784  0.7719  1.3915 -0.5507
19729TIP3    H280603   0.167   5.971   2.662  0.2059  0.4047 -0.4778
19730TIP3   OH280604   1.432   2.105   3.630  0.8407  0.1945  0.6866
19730TIP3    H180605   1.495   2.054   3.579  2.4304  1.2604  1.5038
19730TIP3    H280606   1.460   2.196   3.617  0.8222  0.5394  2.8256
19731TIP3   OH280607   0.326   0.010  13.568 -0.2912  0.2841  0.3469
19731TIP3    H180608   0.317   0.064  13.646 -0.6899  1.9167 -0.7739
19731TIP3    H280609   0.387   0.059  13.512 -0.0261 -0.8391 -0.3870
19732TIP3   OH280610   5.143   2.722   0.215 -0.0479  0.8134 -0.1556
19732TIP3    H180611   5.188   2.641   0.190  0.1637  1.3518 -1.6033
19732TIP3    H280612   5.078   2.694   0.279  0.5620 -0.3733 -0.0208
19733TIP3   OH280613   1.655   1.671  11.494 -0.2028 -0.3548  0.7074
19733TIP3    H180614   1.565   1.682  11.465  0.5043  1.3465 -1.0331
19733TIP3    H280615   1.690   1.602  11.438  0.3188  0.8946 -0.5637
19734TIP3   OH280616   5.329   5.659   0.907 -0.2865  0.0382 -0.0584
19734TIP3    H180617   5.319   5.699   0.993 -2.4387 -2.1508  0.8371
19734TIP3    H280618   5.404   5.599   0.916 -0.6364 -0.3375  0.3648
19735TIP3   OH280619   4.817   5.245   0.555  0.4081 -0.1608 -0.0904
19735TIP3    H180620   4.855   5.291   0.480 -0.4633  0.4679 -0.1581
19735TIP3    H280621   4.723   5.245   0.539  0.0092  1.4885  1.7919
19736TIP3   OH280622   4.301   1.261   2.173  0.1966  0.1496 -0.3460
19736TIP3    H180623   4.362   1.298   2.108 -0.0845 -0.9794 -1.2945
19736TIP3    H280624   4.228   1.228   2.121 -0.3672 -0.1617  0.6179
19737TIP3   OH280625   2.611   6.712  14.261  0.0322 -0.0538 -0.1268
19737TIP3    H180626   2.681   6.773  14.235  0.2665 -0.7378 -1.1536
19737TIP3    H280627   2.560   6.699  14.182 -1.2118  0.3383  0.5887
19738TIP3   OH280628   2.532   3.818   1.005  0.0854 -0.0730 -0.1674
19738TIP3    H180629   2.536   3.732   1.046  2.8734  0.5473  1.0587
19738TIP3    H280630   2.455   3.860   1.043 -0.6985 -1.6060 -0.0031
19739TIP3   OH280631   1.665   3.972  16.295 -0.7949  0.2557 -0.3606
19739TIP3    H180632   1.729   4.030  16.336 -0.5196 -0.5261  0.3676
19739TIP3    H280633   1.655   3.900  16.358 -1.3013 -0.3596 -1.1235
19740TIP3   OH280634   4.131   2.570   5.546 -0.5397 -0.5993  0.7769
19740TIP3    H180635   4.156   2.512   5.474 -0.5657  0.5818 -0.2154
19740TIP3    H280636   4.210   2.577   5.600  0.6236  1.1639 -0.9999
19741TIP3   OH280637   1.895   0.786   4.091 -0.1328 -0.2131  0.1361
19741TIP3    H180638   1.816   0.735   4.104 -0.4639  0.2564  0.0037
19741TIP3    H280639   1.878   0.836   4.010  1.1927 -1.8149 -1.2061
19742TIP3   OH280640   3.091   3.924   1.520 -0.0715  0.3800 -0.7507
19742TIP3    H180641   3.000   3.935   1.548  0.0486 -0.1280 -0.1499
19742TIP3    H280642   3.087   3.927   1.424 -0.5962  1.3087 -0.7119
19743TIP3   OH280643   1.125   4.028  13.297  0.0868 -0.0644  0.3855
19743TIP3    H180644   1.152   3.937  13.305 -0.1692 -0.3933 -1.8773
19743TIP3    H280645   1.108   4.040  13.204 -0.2373  2.2099  0.6786
19744TIP3   OH280646   1.755   2.987   0.840  0.4479  0.2683  0.0412
19744TIP3    H180647   1.788   3.023   0.758  1.8248 -0.8680  0.0535
19744TIP3    H280648   1.667   2.955   0.819  0.6343  0.3386 -0.8742
19745TIP3   OH280649   6.196   4.095  15.097 -0.2301 -0.5833  0.3405
19745TIP3    H180650   6.237   4.180  15.114 -2.1568  0.2418  1.1889
19745TIP3    H280651   6.237   4.065  15.016  0.7081  1.0092  0.1693
19746TIP3   OH280652   4.841   6.666   3.599 -0.4326  0.2593  0.0247
19746TIP3    H180653   4.779   6.739   3.594 -1.4118 -0.5957 -0.9214
19746TIP3    H280654   4.853   6.651   3.692  0.6366  2.3031  0.2729
19747TIP3   OH280655   5.231   1.912   2.158 -0.7317  0.7169 -0.3361
19747TIP3    H180656   5.233   2.006   2.139 -2.2789  0.9658  0.5956
19747TIP3    H280657   5.172   1.903   2.233 -0.7248 -1.0206 -0.4878
19748TIP3   OH280658   3.580   5.626  16.729  0.4110  0.1149 -0.0950
19748TIP3    H180659   3.618   5.696  16.783 -0.2123  0.8882 -0.6509
19748TIP3    H280660   3.520   5.671  16.670  0.1466 -0.8754 -0.5914
19749TIP3   OH280661   6.544   5.710   2.882  0.6855 -0.3666  0.5053
19749TIP3    H180662   6.477   5.741   2.820  0.0606  1.1489  1.8487
19749TIP3    H280663   6.627   5.738   2.844  0.2923  0.7768  0.4326
19750TIP3   OH280664   4.102   5.322  11.148  0.2588 -0.3327 -0.2558
19750TIP3    H180665   4.066   5.233  11.142 -0.4267 -0.1805  1.2553
19750TIP3    H280666   4.037   5.377  11.103  0.7238 -0.5796 -1.2644
19751TIP3   OH280667   0.494   2.252   2.430 -0.0065 -0.0686  0.0231
19751TIP3    H180668   0.428   2.258   2.361 -2.9439  1.4786  2.6895
19751TIP3    H280669   0.470   2.175   2.480  0.8861 -0.0859  0.4432
19752TIP3   OH280670   4.723   0.235  12.645  0.2762 -0.1353 -0.1358
19752TIP3    H180671   4.636   0.269  12.665  0.2049  0.2267 -1.0420
19752TIP3    H280672   4.755   0.201  12.729 -0.2872  0.7307  0.4475
19753TIP3   OH280673   1.194   3.509  16.963 -0.3080 -0.4365 -0.0461
19753TIP3    H180674   1.173   3.445  17.031 -1.2452 -1.7285 -1.4939
19753TIP3    H280675   1.199   3.593  17.010  0.4052 -1.4526  1.8049
19754TIP3   OH280676   6.336   4.657   4.190  0.0346 -0.0668 -0.2629
19754TIP3    H180677   6.282   4.595   4.240  2.9928 -1.1037  1.9407
19754TIP3    H280678   6.320   4.635   4.099 -3.2298 -0.2512  0.2453
19755TIP3   OH280679   3.187   6.716  16.011 -0.2783  0.0767  0.2498
19755TIP3    H180680   3.257   6.724  15.945 -0.5966 -0.1362 -0.1190
19755TIP3    H280681   3.144   6.801  16.010 -0.6393 -0.1073 -0.2277
19756TIP3   OH280682   1.856   1.881  13.518  0.3736 -0.1184 -0.0992
19756TIP3    H180683   1.790   1.863  13.450  1.4115 -0.4695 -1.0588
19756TIP3    H280684   1.806   1.908  13.594 -0.7434  4.1997 -2.0991
19757TIP3   OH280685   3.663   6.027   5.231  0.2345 -0.1892 -0.0257
19757TIP3    H180686   3.576   5.992   5.214 -0.5035  1.4738  0.0688
19757TIP3    H280687   3.695   6.053   5.144 -0.5818  1.7911  0.2141
19758TIP3   OH280688   1.419   4.388   2.929  0.4304 -0.6811 -0.3024
19758TIP3    H180689   1.505   4.429   2.918 -0.3218  0.7416 -1.2893
19758TIP3    H280690   1.366   4.427   2.860 -0.4990 -3.0117 -0.9883
19759TIP3   OH280691   5.511   1.610  14.729 -0.1338  0.5030  0.2625
19759TIP3    H180692   5.515   1.598  14.824  0.8289 -1.2865  0.0353
19759TIP3    H280693   5.570   1.683  14.712  2.5438 -1.4066  0.7531
19760TIP3   OH280694   0.975   1.110  15.200  0.3689 -0.7021 -0.0208
19760TIP3    H180695   0.971   1.048  15.127  1.0153 -0.6959 -0.0660
19760TIP3    H280696   0.884   1.132  15.217  0.1902 -0.9430 -0.6264
19761TIP3   OH280697   1.929   6.087  16.774 -0.4074  0.3867  0.1286
19761TIP3    H180698   1.843   6.069  16.737 -0.0898 -2.3128  0.5168
19761TIP3    H280699   1.984   6.110  16.699 -1.9394  5.0965  0.0998
19762TIP3   OH280700   2.255   4.137  16.139  0.6496  0.4348 -0.1040
19762TIP3    H180701   2.266   4.219  16.186 -0.2369  0.2801  0.4090
19762TIP3    H280702   2.283   4.069  16.201  0.8341  0.3126 -0.3164
19763TIP3   OH280703   1.042   4.184  11.252 -0.2469 -0.0579  0.6174
19763TIP3    H180704   1.072   4.183  11.161  1.6347 -1.5202  1.1774
19763TIP3    H280705   1.092   4.114  11.294 -0.7529  0.8544  2.8816
19764TIP3   OH280706   3.368   5.690  12.400 -0.1556 -0.8044 -0.5862
19764TIP3    H180707   3.434   5.756  12.420  0.3346 -1.3979 -0.2146
19764TIP3    H280708   3.321   5.679  12.483  0.2128 -1.4192 -0.4597
19765TIP3   OH280709   2.461   2.050  13.927  0.1861 -0.3037 -0.7454
19765TIP3    H180710   2.463   2.115  13.998  0.2221 -0.8205 -0.2721
19765TIP3    H280711   2.368   2.037  13.910  0.1833  0.9199 -1.8164
19766TIP3   OH280712   2.452   3.860  12.443  0.0464 -0.0216  0.1497
19766TIP3    H180713   2.535   3.842  12.399  0.0424  0.3358 -0.0033
19766TIP3    H280714   2.425   3.946  12.411 -0.8601 -0.5400 -0.5420
19767TIP3   OH280715   1.149   1.752  14.227  0.3372 -0.1636 -0.4492
19767TIP3    H180716   1.185   1.699  14.298  0.5680  1.3740  0.6510
19767TIP3    H280717   1.159   1.842  14.258  0.5302  0.5644 -2.4882
19768TIP3   OH280718   1.464   1.992  16.669  0.4221 -0.6608  0.7263
19768TIP3    H180719   1.393   1.934  16.641 -2.0228  1.6821  1.6772
19768TIP3    H280720   1.518   2.004  16.591 -0.1419 -2.5483 -0.0116
19769TIP3   OH280721   2.858   2.689   0.718 -0.6428  0.2101 -0.2370
19769TIP3    H180722   2.830   2.608   0.762  0.9578 -0.1475  0.1861
19769TIP3    H280723   2.939   2.665   0.674 -0.3102  1.5131 -0.3725
19770TIP3   OH280724   2.898   5.882   2.562 -0.1378 -0.1141 -0.0205
19770TIP3    H180725   2.884   5.932   2.481 -1.0692  2.5530  1.6557
19770TIP3    H280726   2.973   5.825   2.542  0.3172  1.1798 -2.4276
19771TIP3   OH280727   3.226   6.780   3.785  0.1195 -0.2135 -0.0283
19771TIP3    H180728   3.145   6.818   3.820  0.0855 -1.6465  1.6519
19771TIP3    H280729   3.269   6.743   3.862  1.2742 -1.4369 -1.2165
19772TIP3   OH280730   0.749   4.043   5.121 -0.7180  0.1120 -0.1968
19772TIP3    H180731   0.764   4.109   5.054  0.9681 -1.0386 -1.0173
19772TIP3    H280732   0.654   4.028   5.118 -0.7114  0.1420 -2.2882
19773TIP3   OH280733   5.278   3.498   0.541 -0.3748  0.1937  0.0402
19773TIP3    H180734   5.191   3.513   0.505 -0.2673  1.0993  0.1294
19773TIP3    H280735   5.332   3.471   0.467 -1.1082 -2.1404  0.2696
19774TIP3   OH280736   1.702   2.805   0.266  0.1961 -0.2382  0.3995
19774TIP3    H180737   1.629   2.787   0.325 -0.3980 -1.1942 -0.5836
19774TIP3    H280738   1.660   2.831   0.184  1.0022  0.8832  0.3160
19775TIP3   OH280739   0.802   5.136  12.866  1.0958 -0.8481  0.2043
19775TIP3    H180740   0.822   5.066  12.804  1.5028  0.0197 -0.6672
19775TIP3    H280741   0.842   5.106  12.948 -1.2730 -3.0251  0.7065
19776TIP3   OH280742   5.187   4.672  11.539 -0.3934 -0.3450  0.4179
19776TIP3    H180743   5.185   4.654  11.445 -0.7485 -2.2518  0.7556
19776TIP3    H280744   5.274   4.709  11.554 -0.3988  0.1508 -0.6746
19777TIP3   OH280745   3.349   4.739   3.949  0.2815  0.3444 -0.6010
19777TIP3    H180746   3.314   4.776   4.030  1.5828 -1.8818  1.1061
19777TIP3    H280747   3.443   4.756   3.954  0.6437 -1.4742 -0.6615
19778TIP3   OH280748   4.184   5.114  14.573 -0.0253  0.0426  0.3678
19778TIP3    H180749   4.169   5.099  14.479  3.0669 -2.1344  0.0847
19778TIP3    H280750   4.262   5.170  14.576  0.4097 -0.5977  1.6318
19779TIP3   OH280751   2.818   3.657   2.613 -0.3113 -0.8143  0.6316
19779TIP3    H180752   2.801   3.748   2.637  0.9212 -0.6940  1.0879
19779TIP3    H280753   2.802   3.654   2.518  0.0741 -0.0205  0.5365
19780TIP3   OH280754   4.452   3.968  14.320  0.1540  0.7813  0.7371
19780TIP3    H180755   4.479   4.028  14.390  0.3706 -0.9433  2.1909
19780TIP3    H280756   4.516   3.984  14.250 -0.5077  3.0653  0.5675
19781TIP3   OH280757   5.231   6.571  14.379  0.1882  0.0349 -0.8344
19781TIP3    H180758   5.233   6.564  14.474  1.0504 -1.4950 -0.9425
19781TIP3    H280759   5.157   6.630  14.361 -0.1840  0.0979  0.7518
19782TIP3   OH280760   0.753   2.445  15.558 -0.0944  0.1060  0.1057
19782TIP3    H180761   0.745   2.350  15.559 -1.8200  0.2105 -0.7894
19782TIP3    H280762   0.843   2.461  15.527  0.1125 -1.2206 -0.0282
19783TIP3   OH280763   3.265   0.307  11.926 -0.3944  0.1527 -0.2398
19783TIP3    H180764   3.325   0.316  12.000 -1.1859 -0.6581  0.5245
19783TIP3    H280765   3.187   0.265  11.963 -0.7393 -0.4353 -1.5769
19784TIP3   OH280766   1.885   3.224  16.003  0.5727 -0.4104 -0.6022
19784TIP3    H180767   1.848   3.312  15.996 -0.6243 -0.8430 -0.1233
19784TIP3    H280768   1.814   3.167  15.974  1.3069 -1.2250 -0.8189
19785TIP3   OH280769   2.970   5.411  13.861  0.0927  0.5624 -0.0915
19785TIP3    H180770   2.974   5.406  13.766  0.7405 -2.2659  0.0174
19785TIP3    H280771   2.879   5.390  13.882  0.1163  0.5133 -0.0400
19786TIP3   OH280772   1.005   5.637  15.039  0.8695 -0.1079 -0.7188
19786TIP3    H180773   0.984   5.713  14.985 -2.1626 -0.9061 -0.8882
19786TIP3    H280774   0.984   5.562  14.984  0.5145 -0.9875  0.5532
19787TIP3   OH280775   2.725   5.832  15.632  0.3787 -0.2081  0.3608
19787TIP3    H180776   2.792   5.901  15.628  0.9115 -0.6928  0.8206
19787TIP3    H280777   2.726   5.793  15.544  0.4157  0.0527  0.2429
19788TIP3   OH280778   4.648   2.722  16.015  0.1401  0.2094 -0.2132
19788TIP3    H180779   4.725   2.766  16.050  0.0411 -1.3087  2.1129
19788TIP3    H280780   4.683   2.660  15.951  0.9523 -0.7456  1.1067
19789TIP3   OH280781   5.177   2.044  15.772  0.0357 -0.0238 -0.0784
19789TIP3    H180782   5.265   2.058  15.737 -0.3311  0.5165 -0.8343
19789TIP3    H280783   5.183   2.068  15.864  0.7666 -0.3620 -0.0295
19790TIP3   OH280784   3.028   3.504   4.275  0.1015 -0.3155  0.2375
19790TIP3    H180785   3.088   3.578   4.281  0.4327 -0.5892  0.3323
19790TIP3    H280786   3.020   3.473   4.366 -2.7508  1.7250  0.8472
19791TIP3   OH280787   5.240   3.495   3.695 -0.0040  0.5050  0.5920
19791TIP3    H180788   5.234   3.482   3.789 -0.9670  1.9712  0.7650
19791TIP3    H280789   5.160   3.542   3.671 -0.1886 -0.5807 -1.1110
19792TIP3   OH280790   3.397   6.835   2.675  0.1972 -0.1442 -0.4044
19792TIP3    H180791   3.377   6.917   2.629  0.1806 -1.3915 -2.7954
19792TIP3    H280792   3.311   6.798   2.696  0.1878  0.9958  1.9018
19793TIP3   OH280793   4.437   3.046   1.347 -0.3953 -0.0592 -0.0053
19793TIP3    H180794   4.395   3.128   1.321 -0.0440  0.1421  0.0560
19793TIP3    H280795   4.430   2.989   1.271  0.8458  0.6072 -0.6469
19794TIP3   OH280796   2.263   5.381   4.328  0.6609  0.2344 -0.2225
19794TIP3    H180797   2.211   5.307   4.297  0.2151  0.4406  0.0270
19794TIP3    H280798   2.315   5.408   4.252 -0.6261  0.9167 -0.8789
19795TIP3   OH280799   2.555   1.941   5.824  0.1807 -0.4048 -0.9628
19795TIP3    H180800   2.639   1.896   5.834 -0.2342 -0.8606  0.6272
19795TIP3    H280801   2.557   2.010   5.891 -0.8713 -0.6791 -0.6436
19796TIP3   OH280802   6.190   0.800  12.212 -0.0404  0.4132  0.3688
19796TIP3    H180803   6.215   0.889  12.237 -2.5514  0.9236  1.3853
19796TIP3    H280804   6.248   0.744  12.264  0.6597  1.4438  0.7438
19797TIP3   OH280805   6.530   0.613   3.428 -0.1943  0.5513 -0.4537
19797TIP3    H180806   6.518   0.634   3.335  1.8304 -0.8497 -1.1181
19797TIP3    H280807   6.547   0.697   3.470 -1.4693  1.2426 -1.2749
19798TIP3   OH280808   3.284   0.423  11.504  0.5514  0.7619  0.0076
19798TIP3    H180809   3.295   0.499  11.446  0.2761  1.1675  0.4744
19798TIP3    H280810   3.298   0.347  11.448  1.4023  1.1653 -0.3492
19799TIP3   OH280811   3.635   6.594  10.624  0.0909  0.1122 -0.3262
19799TIP3    H180812   3.541   6.577  10.620 -0.0388  0.4176  1.0355
19799TIP3    H280813   3.644   6.667  10.685  1.1031  1.1182 -1.6180
19800TIP3   OH280814   4.106   3.406   3.867  0.1842  0.4481 -0.0030
19800TIP3    H180815   4.086   3.366   3.952 -0.4166 -0.3099 -0.4935
19800TIP3    H280816   4.021   3.425   3.829  0.4558  2.0860  0.1475
19801TIP3   OH280817   0.683   4.634   1.213  0.2987  0.3070  0.1417
19801TIP3    H180818   0.639   4.705   1.260 -0.5172 -0.1590  0.0994
19801TIP3    H280819   0.776   4.657   1.216  0.3608 -0.0013  2.5467
19802TIP3   OH280820   6.112   1.403   5.442 -0.0629 -0.7800 -0.3746
19802TIP3    H180821   6.153   1.339   5.385  0.4275 -0.6198 -0.2031
19802TIP3    H280822   6.153   1.389   5.527  0.2835 -0.0275 -0.4100
19803TIP3   OH280823   5.184   5.804  11.813 -0.1853 -0.3645  0.4218
19803TIP3    H180824   5.227   5.883  11.782  2.3259 -2.2332 -1.3184
19803TIP3    H280825   5.092   5.828  11.822  0.5847  2.9159  0.8311
19804TIP3   OH280826   1.519   0.807  14.877  0.8747 -0.5196  0.0265
19804TIP3    H180827   1.587   0.859  14.835  2.6314 -2.9342 -0.2835
19804TIP3    H280828   1.453   0.794  14.809 -1.7689  4.4123  1.1022
19805TIP3   OH280829   1.302   1.376   3.956  0.2937 -0.2687 -0.3240
19805TIP3    H180830   1.342   1.460   3.977  0.9919 -0.3445 -1.2527
19805TIP3    H280831   1.356   1.342   3.884  0.2714 -1.6999  0.3132
19806TIP3   OH280832   0.356   5.501  13.466 -0.3612  0.6274 -0.4585
19806TIP3    H180833   0.336   5.438  13.396  1.6776  0.1515 -0.6855
19806TIP3    H280834   0.304   5.473  13.540  1.2480 -2.0514 -0.2170
19807TIP3   OH280835   6.786   5.478  16.470 -0.2016  0.4395 -0.0342
19807TIP3    H180836   6.732   5.449  16.544  1.3466 -0.6832  0.7142
19807TIP3    H280837   6.725   5.481  16.397 -1.8255  1.7597  1.2895
19808TIP3   OH280838   0.723   1.431  10.494  0.5607  0.2314 -0.3787
19808TIP3    H180839   0.742   1.525  10.495 -0.2433  0.4014 -0.0262
19808TIP3    H280840   0.780   1.394  10.561  0.6675  0.5227 -0.3065
19809TIP3   OH280841   0.119   0.340  14.090  1.0083 -0.2034  0.1704
19809TIP3    H180842   0.105   0.248  14.113 -0.8966  0.0077  0.0203
19809TIP3    H280843   0.172   0.375  14.162  2.5533 -1.5945 -0.2188
19810TIP3   OH280844   5.651   5.190  12.858 -0.7624 -0.0176 -0.1981
19810TIP3    H180845   5.608   5.265  12.816  0.2988 -0.2343 -1.7488
19810TIP3    H280846   5.729   5.174  12.805 -0.1477 -1.2704  1.0146
19811TIP3   OH280847   1.837   4.738  14.759  0.3671 -0.1832  0.0649
19811TIP3    H180848   1.902   4.768  14.695  0.7691 -0.8733  0.1413
19811TIP3    H280849   1.846   4.643  14.759 -0.4743 -0.2672  0.2607
19812TIP3   OH280850   2.278   5.120   2.373 -0.5960 -0.1776  0.2876
19812TIP3    H180851   2.270   5.214   2.356 -0.5952 -0.6421 -2.9311
19812TIP3    H280852   2.281   5.112   2.468 -0.7098  3.0562  0.6439
19813TIP3   OH280853   4.243   6.005  11.587 -0.2954  0.1952  0.4344
19813TIP3    H180854   4.149   5.997  11.605 -0.1280  1.4943  2.0807
19813TIP3    H280855   4.248   6.064  11.512 -0.7487  2.1227  1.8646
19814TIP3   OH280856   4.087   0.880   5.828 -0.7101 -0.2918 -0.1202
19814TIP3    H180857   4.180   0.896   5.814 -0.3398 -2.7217 -1.1151
19814TIP3    H280858   4.073   0.897   5.921  0.5464  0.8344 -0.1085
19815TIP3   OH280859   1.013   0.067  12.856 -0.3429 -0.1312  0.3481
19815TIP3    H180860   0.957   0.014  12.799  1.5750 -1.6107 -0.2537
19815TIP3    H280861   1.020   0.016  12.937 -3.3767  2.1313  2.2688
19816TIP3   OH280862   4.862   3.177   3.027 -0.2125 -0.0822 -0.2891
19816TIP3    H180863   4.950   3.142   3.038 -0.1914  0.5735  2.2387
19816TIP3    H280864   4.875   3.260   2.981  0.6211  0.4415  0.8493
19817TIP3   OH280865   2.130   0.773   0.340 -0.7660  0.7462 -0.4905
19817TIP3    H180866   2.073   0.698   0.321  0.8209 -0.2976 -1.3182
19817TIP3    H280867   2.136   0.775   0.435 -0.5499 -0.4062 -0.4703
19818TIP3   OH280868   2.082   6.699  12.332 -0.1259  0.4662 -0.0107
19818TIP3    H180869   2.123   6.733  12.254  0.2699  0.5338  0.2265
19818TIP3    H280870   1.998   6.744  12.337 -1.5696 -1.7267 -2.0778
19819TIP3   OH280871   4.313   3.141   6.808  0.3347 -0.2556 -0.0559
19819TIP3    H180872   4.364   3.217   6.835  1.3087 -0.7766 -0.3777
19819TIP3    H280873   4.299   3.153   6.714 -2.2755  1.1042  0.3962
19820TIP3   OH280874   0.044   3.666   0.239 -0.2243  1.0365  0.0260
19820TIP3    H180875   0.066   3.759   0.243 -1.7163  1.4121  0.3879
19820TIP3    H280876   0.064   3.633   0.327 -2.3649  1.7291  0.8568
19821TIP3   OH280877   5.973   6.355   4.579 -0.1478  0.5527  0.4566
19821TIP3    H180878   6.012   6.269   4.564  0.8891  1.2645 -1.3437
19821TIP3    H280879   6.005   6.381   4.665  1.4854  0.0974  0.0276
19822TIP3   OH280880   5.718   0.553  13.901 -0.8537  0.0265 -0.7359
19822TIP3    H180881   5.730   0.549  13.996 -2.2612 -0.7326 -0.5672
19822TIP3    H280882   5.774   0.483  13.867  1.0603  1.4392 -0.6622
19823TIP3   OH280883   1.739   2.874  12.550 -0.0420  0.0671  0.2387
19823TIP3    H180884   1.803   2.880  12.480  0.5508 -2.5108  0.4505
19823TIP3    H280885   1.654   2.875  12.506  0.2811 -0.1046 -0.3927
19824TIP3   OH280886   4.853   4.015  10.577 -0.0112 -0.1945 -0.1172
19824TIP3    H180887   4.818   3.950  10.639 -0.6313  2.2058  2.2242
19824TIP3    H280888   4.945   4.024  10.601 -0.3543  1.0582  0.8182
19825TIP3   OH280889   0.217   5.177  12.690  0.6085  0.0854 -0.1432
19825TIP3    H180890   0.292   5.228  12.721  1.8185 -0.9664 -1.2227
19825TIP3    H280891   0.250   5.131  12.612 -1.1403 -0.4655 -0.5999
19826TIP3   OH280892   2.852   6.770   2.434  0.0410  0.1960  0.1886
19826TIP3    H180893   2.854   6.683   2.473 -1.0737 -0.4334 -1.1049
19826TIP3    H280894   2.807   6.759   2.351 -0.7185  2.1347  0.2813
19827TIP3   OH280895   3.955   6.663  15.125 -0.5892 -0.1341  0.2069
19827TIP3    H180896   3.887   6.730  15.117 -1.6054 -1.2384 -0.6709
19827TIP3    H280897   3.990   6.676  15.214 -1.0491  1.2719  0.2118
19828TIP3   OH280898   0.104   3.901  11.716 -0.3958 -0.3623 -0.9184
19828TIP3    H180899   0.180   3.842  11.715 -0.0859 -0.1283  1.5570
19828TIP3    H280900   0.123   3.965  11.647  2.1614  0.2241  0.1899
19829TIP3   OH280901   0.296   0.166   3.895  0.6955  0.0319 -0.0551
19829TIP3    H180902   0.253   0.137   3.814  0.9131 -1.5352  0.3591
19829TIP3    H280903   0.376   0.115   3.899  0.4489 -0.2887  1.3991
19830TIP3   OH280904   0.056   0.294  10.950  0.1113  0.2797 -0.3892
19830TIP3    H180905   0.127   0.344  10.911  1.0042 -0.8124 -0.1993
19830TIP3    H280906   0.018   0.245  10.877 -0.9651  1.4431 -0.6339
19831TIP3   OH280907   1.781   3.106  13.885  0.1064 -0.3292 -0.3865
19831TIP3    H180908   1.700   3.136  13.927  0.2620  0.6854 -0.7903
19831TIP3    H280909   1.766   3.013  13.869 -0.6831 -0.3206  0.2283
19832TIP3   OH280910   0.691   4.381  15.116 -0.4896 -0.5400  0.4891
19832TIP3    H180911   0.680   4.472  15.087 -0.5055 -0.5638  0.4207
19832TIP3    H280912   0.757   4.345  15.057 -1.4174 -0.9480 -0.3273
19833TIP3   OH280913   1.402   5.848   3.092 -0.1454 -0.0410  0.3332
19833TIP3    H180914   1.341   5.903   3.139 -1.0375 -0.9749  0.3054
19833TIP3    H280915   1.489   5.880   3.117 -0.6362  1.0009  0.7241
19834TIP3   OH280916   2.659   3.958  14.439  0.7813  0.1134  0.1283
19834TIP3    H180917   2.625   4.043  14.467 -2.0638 -1.4857  2.0125
19834TIP3    H280918   2.677   3.911  14.520  2.5275 -1.0737 -0.8781
19835TIP3   OH280919   0.494   2.477  13.017 -0.3419 -0.3025  0.0581
19835TIP3    H180920   0.482   2.572  13.029  0.3751  0.1183 -2.1082
19835TIP3    H280921   0.494   2.442  13.105 -0.1673  1.7785  0.9515
19836TIP3   OH280922   0.547   2.332  11.874  0.3522  0.4588  0.2077
19836TIP3    H180923   0.563   2.398  11.806  0.0306  0.4167  0.0910
19836TIP3    H280924   0.467   2.288  11.846 -0.1141  0.8392  0.9275
19837TIP3   OH280925   3.055   2.830  16.839 -0.3810 -0.7567 -0.4694
19837TIP3    H180926   3.050   2.926  16.840 -0.6879 -0.6962 -2.6040
19837TIP3    H280927   3.001   2.802  16.913 -1.5376  0.6928 -0.7210
19838TIP3   OH280928   5.242   5.526   2.480  0.6412 -0.1496 -0.0003
19838TIP3    H180929   5.192   5.574   2.414 -1.1648  1.0027  2.0932
19838TIP3    H280930   5.181   5.462   2.516  1.3184 -0.1915  1.1289
19839TIP3   OH280931   6.233   4.435   2.417  0.9098 -0.2758 -0.2923
19839TIP3    H180932   6.149   4.400   2.447  1.2587 -0.4884  0.4586
19839TIP3    H280933   6.237   4.523   2.453  1.5264 -0.6889  0.6909
19840TIP3   OH280934   4.720   6.558  16.148  0.0295 -0.4656  0.0936
19840TIP3    H180935   4.662   6.633  16.165 -0.6514 -0.8930 -0.3102
19840TIP3    H280936   4.807   6.597  16.138 -0.2289  0.2141  0.4310
19841TIP3   OH280937   6.062   0.741   5.519 -0.1847 -0.8422 -0.4585
19841TIP3    H180938   5.974   0.780   5.519 -0.7088 -1.7344  2.6126
19841TIP3    H280939   6.090   0.746   5.610  2.4378 -1.8055 -1.1275
19842TIP3   OH280940   0.483   3.968   5.047  0.0415  0.4756  0.5066
19842TIP3    H180941   0.431   3.891   5.069  0.1331  0.3239  0.1895
19842TIP3    H280942   0.459   4.032   5.114 -0.0934  0.2004  0.7239
19843TIP3   OH280943   1.997   1.720  11.191 -0.0749 -0.5749  0.1650
19843TIP3    H180944   2.029   1.726  11.281 -1.5634 -0.6215  0.7165
19843TIP3    H280945   2.007   1.809  11.156  0.2390 -0.4938  0.4531
19844TIP3   OH280946   2.041   2.086  14.461 -0.0824 -0.3934 -0.1170
19844TIP3    H180947   1.978   2.154  14.485 -0.9740 -0.7471 -1.3746
19844TIP3    H280948   2.008   2.006  14.501 -2.2250 -1.2370 -3.2206
19845TIP3   OH280949   3.746   6.065  14.593 -0.0003  0.1968  0.2082
19845TIP3    H180950   3.761   6.000  14.524 -0.5600  0.6850 -0.3938
19845TIP3    H280951   3.656   6.050  14.620  0.1676  0.1150  0.7251
19846TIP3   OH280952   0.375   1.071   0.563 -0.3538 -0.6891 -0.2471
19846TIP3    H180953   0.325   1.149   0.588  1.2447  0.1677  0.4163
19846TIP3    H280954   0.327   0.998   0.605 -0.5386  0.1990  1.1620
19847TIP3   OH280955   6.792   2.941   0.125  0.0249  0.0060  0.0022
19847TIP3    H180956   6.863   2.877   0.121  1.8718  1.9328  0.2467
19847TIP3    H280957   6.762   2.948   0.034  0.2537 -0.6860 -0.1385
19848TIP3   OH280958   3.055   3.950   5.365 -0.4473 -0.2634 -0.1214
19848TIP3    H180959   3.137   3.902   5.371 -1.6670 -2.4863 -0.2787
19848TIP3    H280960   3.067   4.026   5.422  1.4060 -0.9925  0.5122
19849TIP3   OH280961   2.699   2.727  11.824  0.3044  0.6767 -0.5572
19849TIP3    H180962   2.633   2.746  11.890  1.4308  0.9010  0.5388
19849TIP3    H280963   2.669   2.645  11.783 -0.8700  1.0145 -0.4084
19850TIP3   OH280964   5.482   1.049   5.476 -0.2889 -0.2634 -0.3815
19850TIP3    H180965   5.520   0.968   5.443  1.1002 -0.9512  2.5448
19850TIP3    H280966   5.388   1.037   5.466 -0.1113 -2.2457 -0.1163
19851TIP3   OH280967   2.200   0.330  11.828  0.0375  0.3592 -0.1103
19851TIP3    H180968   2.108   0.311  11.814 -0.2611  1.8775 -0.3357
19851TIP3    H280969   2.214   0.319  11.922 -0.5570  0.8378  0.0394
19852TIP3   OH280970   2.713   0.255   3.010 -0.5438 -0.2413 -0.2310
19852TIP3    H180971   2.752   0.279   3.094  0.9407  0.4627 -1.0771
19852TIP3    H280972   2.623   0.229   3.031  0.0618 -0.9386  1.6744
19853TIP3   OH280973   6.569   3.056   3.120 -0.5445 -0.4850 -1.0202
19853TIP3    H180974   6.634   3.115   3.082 -1.0346 -1.0210 -2.7946
19853TIP3    H280975   6.617   2.975   3.138  0.0422  0.2699  1.0590
19854TIP3   OH280976   5.031   0.876  12.178 -0.4537 -0.4121  0.7670
19854TIP3    H180977   5.095   0.914  12.238 -1.3422 -0.6850  1.9183
19854TIP3    H280978   5.077   0.804  12.136  0.0246 -0.5672  1.5363
19855TIP3   OH280979   5.092   0.282   0.968 -0.1335 -0.4303 -0.0622
19855TIP3    H180980   5.037   0.357   0.989  0.2104 -0.3738  0.6350
19855TIP3    H280981   5.180   0.318   0.959 -0.3294 -0.3468 -2.1790
19856TIP3   OH280982   3.681   5.477   0.434 -0.2934  0.0625 -0.1388
19856TIP3    H180983   3.764   5.473   0.481  0.2041  0.3731 -0.9541
19856TIP3    H280984   3.706   5.472   0.341 -1.1915  0.0691 -0.3941
19857TIP3   OH280985   1.264   1.719   2.474  0.2137  0.5219 -0.1432
19857TIP3    H180986   1.170   1.731   2.459  0.4754  2.9651 -0.1278
19857TIP3    H280987   1.273   1.626   2.497 -1.9160 -0.2387 -2.0844
19858TIP3   OH280988   1.608   1.299  11.870 -0.0118 -0.1391 -0.2643
19858TIP3    H180989   1.533   1.243  11.849 -2.1733  2.1381  0.7098
19858TIP3    H280990   1.685   1.248  11.844 -1.8875 -2.4385 -1.7785
19859TIP3   OH280991   1.439   3.125   1.169 -0.4095 -0.3752  0.1521
19859TIP3    H180992   1.514   3.149   1.114 -0.8016 -2.7084 -1.5655
19859TIP3    H280993   1.477   3.109   1.256  0.5975  1.1703  0.0342
19860TIP3   OH280994   3.585   3.778   3.144 -0.5129  0.0685  0.1604
19860TIP3    H180995   3.585   3.802   3.052  0.0990  0.9666  0.3776
19860TIP3    H280996   3.673   3.743   3.160 -1.7006 -3.5332 -0.4113
19861TIP3   OH280997   1.517   6.471   3.053  0.1079 -0.1858  0.6370
19861TIP3    H180998   1.612   6.459   3.044  0.0153  0.1460 -1.2025
19861TIP3    H280999   1.481   6.383   3.042  0.1833 -0.2893  1.1884
19862TIP3   OH281000   1.955   2.612  10.672 -0.1740 -0.4679 -0.8469
19862TIP3    H181001   1.866   2.598  10.704  0.7247 -1.8873  1.2450
19862TIP3    H281002   1.984   2.692  10.717  0.1085 -0.8547 -0.3323
19863TIP3   OH281003   1.099   0.676   3.270 -0.4274 -0.0023 -0.4941
19863TIP3    H181004   1.065   0.592   3.301 -0.4213 -0.4430 -1.6127
19863TIP3    H281005   1.056   0.741   3.325 -1.7092 -0.6584 -0.6749
19864TIP3   OH281006   2.779   5.304   5.394  0.1912  0.3461 -0.0122
19864TIP3    H181007   2.864   5.282   5.355  0.2898  0.9291 -0.1286
19864TIP3    H281008   2.774   5.399   5.388 -0.5716  0.2982 -0.2180
19865TIP3   OH281009   5.491   3.240  12.934 -0.2542  0.2227  0.9715
19865TIP3    H181010   5.495   3.296  12.856 -0.0132  0.1005  0.8949
19865TIP3    H281011   5.405   3.257  12.972 -0.7388 -0.3735  0.1829
19866TIP3   OH281012   0.047   5.313  13.947  0.1378 -0.4286  0.1931
19866TIP3    H181013   0.126   5.363  13.971 -0.8542  1.2247  0.1729
19866TIP3    H281014   0.080   5.227  13.921  1.9381  0.2140  0.2016
19867TIP3   OH281015   2.817   5.902   4.024  0.3696  0.5908 -0.1410
19867TIP3    H181016   2.884   5.888   3.957 -1.4653  0.3825 -2.0472
19867TIP3    H281017   2.824   5.826   4.081  1.5237  0.4109 -0.4931
19868TIP3   OH281018   3.021   2.647   3.129 -0.1889  0.6354  0.0896
19868TIP3    H181019   2.985   2.563   3.156  1.7833 -0.1131  0.5904
19868TIP3    H281020   3.083   2.626   3.059  2.3846  1.1989  2.0057
19869TIP3   OH281021   4.769   1.778  12.399 -0.3544 -0.0991 -0.5764
19869TIP3    H181022   4.814   1.698  12.371  0.0850 -0.0008 -0.1659
19869TIP3    H281023   4.678   1.764  12.376 -0.7170 -1.6842  1.5012
19870TIP3   OH281024   0.909   2.231  13.743 -0.2038 -0.3459 -0.3984
19870TIP3    H181025   0.950   2.245  13.657 -0.2492 -0.2163 -0.3998
19870TIP3    H281026   0.978   2.249  13.806  0.0853 -1.3294 -0.4216
19871TIP3   OH281027   2.426   5.911  11.587  0.2074  0.0553 -0.1279
19871TIP3    H181028   2.405   5.834  11.640  1.5641  0.2314  0.7163
19871TIP3    H281029   2.480   5.966  11.645  0.0736  1.1830 -1.0425
19872TIP3   OH281030   3.941   6.378   1.939 -0.2407 -0.6036 -0.1472
19872TIP3    H181031   3.942   6.386   2.034  1.9094 -0.8831 -0.1147
19872TIP3    H281032   3.907   6.289   1.923  1.3133 -1.3529  0.4728
19873TIP3   OH281033   2.399   4.277   2.828 -0.3278  0.2331 -0.4257
19873TIP3    H181034   2.342   4.352   2.810 -0.2570 -0.0966 -2.2612
19873TIP3    H281035   2.449   4.265   2.747  0.7554 -0.8698  0.3618
19874TIP3   OH281036   2.146   1.701   0.898 -0.1397 -0.0236 -0.0240
19874TIP3    H181037   2.193   1.637   0.952  1.3795  0.3136 -0.8807
19874TIP3    H281038   2.062   1.659   0.879 -0.4879 -0.3841  2.0864
19875TIP3   OH281039   4.529   4.861   1.212 -0.4499  0.4849  0.1387
19875TIP3    H181040   4.534   4.816   1.297 -0.3803  3.1334  1.6361
19875TIP3    H281041   4.618   4.892   1.196  0.6321 -3.4303 -3.1095
19876TIP3   OH281042   2.205   1.740  14.822 -0.4921  0.1446 -0.1775
19876TIP3    H181043   2.149   1.743  14.899  0.4318 -0.7506  0.5664
19876TIP3    H281044   2.294   1.737  14.858  0.0539  1.6337 -1.3201
19877TIP3   OH281045   0.079   3.614  14.870 -0.0324 -0.7685 -0.0782
19877TIP3    H181046   0.022   3.599  14.945 -1.4040 -2.0840 -1.3145
19877TIP3    H281047   0.122   3.529  14.856  1.1292 -0.1998 -0.0697
19878TIP3   OH281048   1.039   2.558   4.025  0.0056 -0.3326  0.1857
19878TIP3    H181049   1.002   2.645   4.039  0.1602 -0.2802  0.2659
19878TIP3    H281050   1.122   2.573   3.980 -0.8838 -0.5385 -1.6287
19879TIP3   OH281051   3.972   6.372   2.230 -0.2544  0.3667 -0.4121
19879TIP3    H181052   3.909   6.325   2.285 -1.8593  1.2344 -1.4434
19879TIP3    H281053   4.057   6.353   2.270 -1.0584 -1.5505  0.5211
19880TIP3   OH281054   3.680   3.349  13.187 -0.3341  0.7111 -0.2786
19880TIP3    H181055   3.628   3.273  13.213 -0.5323  0.5956 -0.9715
19880TIP3    H281056   3.732   3.318  13.113 -1.7276  1.6860 -1.7615
19881TIP3   OH281057   2.220   3.465   4.161  0.0444 -0.0583  0.2591
19881TIP3    H181058   2.156   3.481   4.231  1.7478 -0.6417  2.0522
19881TIP3    H281059   2.288   3.531   4.175  0.5210 -0.3285 -0.7145
19882TIP3   OH281060   1.308   0.463   4.153 -0.6965 -0.6106 -0.2580
19882TIP3    H181061   1.336   0.378   4.118 -5.3178 -2.2223 -0.8721
19882TIP3    H281062   1.282   0.513   4.075  0.1973  0.6745  0.2414
19883TIP3   OH281063   1.662   4.095  12.008 -0.1619  0.7028  0.2312
19883TIP3    H181064   1.684   4.071  12.098 -0.5920  1.4195  0.5316
19883TIP3    H281065   1.704   4.027  11.954 -0.0953  0.1398  0.9779
19884TIP3   OH281066   5.283   2.449   2.691  0.1218  0.4610 -0.1785
19884TIP3    H181067   5.332   2.525   2.660  0.9081  0.2098  0.4254
19884TIP3    H281068   5.326   2.424   2.773  0.1402 -0.9037 -0.5841
19885TIP3   OH281069   4.813   0.800  14.004 -0.4303 -0.3156  0.4356
19885TIP3    H181070   4.869   0.877  13.992  0.0757 -0.3425  2.2973
19885TIP3    H281071   4.857   0.730  13.957 -0.5901  0.3610 -0.7836
19886TIP3   OH281072   6.672   6.500  16.967  0.1925  0.1557  0.4876
19886TIP3    H181073   6.606   6.570  16.964 -0.3536 -0.3595  0.3318
19886TIP3    H281074   6.756   6.546  16.969 -0.1817  0.8279  1.2936
19887TIP3   OH281075   5.988   3.904  15.895 -0.0903  0.2899 -0.1087
19887TIP3    H181076   5.974   3.945  15.810 -0.7959 -0.3471 -0.3069
19887TIP3    H281077   6.065   3.848  15.882  1.0810  1.7397  0.2497
19888TIP3   OH281078   1.038   0.380   0.229  0.2159  0.2989 -0.2569
19888TIP3    H181079   1.098   0.375   0.303  0.0272 -0.5660 -0.1468
19888TIP3    H281080   0.986   0.459   0.245 -0.2685 -0.2268  0.8866
19889TIP3   OH281081   0.951   4.753  13.397 -0.2622 -0.2178 -0.3840
19889TIP3    H181082   0.870   4.775  13.444  0.7572  0.2704  1.2115
19889TIP3    H281083   0.989   4.681  13.447  0.9076  0.3784 -0.3949
19890TIP3   OH281084   0.067   2.450  15.478 -0.1386 -0.2839 -0.4254
19890TIP3    H181085   0.034   2.363  15.501 -2.5306  0.9434  1.1936
19890TIP3    H281086   0.085   2.492  15.562 -1.5786  1.6581 -1.0179
19891TIP3   OH281087   2.096   3.915  13.281  0.1457 -0.3668 -0.2296
19891TIP3    H181088   2.180   3.939  13.243  1.6094 -0.4630  2.7102
19891TIP3    H281089   2.105   3.823  13.306 -1.7538 -1.1235 -2.0347
19892TIP3   OH281090   1.395   2.726  16.400 -0.0830  0.4194  0.1993
19892TIP3    H181091   1.449   2.790  16.355  0.6605 -2.6564 -3.8713
19892TIP3    H281092   1.458   2.671  16.448 -0.0846 -0.3069 -0.6083
19893TIP3   OH281093   4.079   5.742   1.786 -0.5661 -0.6191 -0.3450
19893TIP3    H181094   4.134   5.817   1.807 -1.2642 -0.1748 -0.1015
19893TIP3    H281095   4.045   5.761   1.699 -2.1140  0.1793  0.4008
19894TIP3   OH281096   1.574   0.140  13.956  0.1959  0.4406  0.7689
19894TIP3    H181097   1.520   0.150  13.878 -0.0633  1.5411  1.0728
19894TIP3    H281098   1.599   0.229  13.979  1.1887  0.0321  1.3024
19895TIP3   OH281099   1.228   0.741  14.273 -0.1480  0.3192  0.2124
19895TIP3    H181100   1.144   0.756  14.317 -0.3802  1.1942 -0.4957
19895TIP3    H281101   1.209   0.678  14.204 -0.1610  0.2698  0.2618
19896TIP3   OH281102   1.363   0.036   1.117 -0.5266  0.1501  0.0559
19896TIP3    H181103   1.357  -0.036   1.054 -0.2335 -0.6172  0.8797
19896TIP3    H281104   1.456   0.041   1.138 -0.3177  1.7814 -1.1100
19897TIP3   OH281105   0.336   5.140   2.750 -0.0990 -0.4031  0.3765
19897TIP3    H181106   0.341   5.230   2.716 -0.3744  0.0557  1.5045
19897TIP3    H281107   0.426   5.110   2.752 -0.0665 -0.4009 -0.6376
19898TIP3   OH281108   5.061   4.847   4.230 -0.0347 -0.7599 -0.3538
19898TIP3    H181109   4.998   4.894   4.284 -0.5877 -1.8269 -0.0368
19898TIP3    H281110   5.107   4.915   4.181 -0.7386  0.1004  0.1605
19899TIP3   OH281111   6.685   4.681  11.528  0.1769 -0.1970 -0.6434
19899TIP3    H181112   6.761   4.658  11.475  1.2544 -0.5109  0.9674
19899TIP3    H281113   6.623   4.609  11.513  1.6321 -1.8480  0.6731
19900TIP3   OH281114   2.012   0.289   5.154 -0.1212  0.0887  0.2252
19900TIP3    H181115   2.078   0.247   5.208  0.8837 -0.7269 -1.5357
19900TIP3    H281116   1.932   0.241   5.171  0.2279 -0.2943  0.8075
19901TIP3   OH281117   0.467   6.699   5.132 -0.4651 -0.1312 -0.3349
19901TIP3    H181118   0.502   6.776   5.176  0.5526 -0.1045 -1.1506
19901TIP3    H281119   0.374   6.717   5.120 -0.4715  0.4490  0.5429
19902TIP3   OH281120   0.588   2.608  10.887  0.2046  0.3844  0.2734
19902TIP3    H181121   0.506   2.577  10.927  0.7609 -2.4207 -0.5120
19902TIP3    H281122   0.559   2.661  10.813 -0.9184 -0.1314  0.3174
19903TIP3   OH281123   3.903   2.397  13.489 -0.5612 -0.0270  0.4006
19903TIP3    H181124   3.816   2.413  13.453 -0.2210  0.8671 -0.0510
19903TIP3    H281125   3.919   2.304  13.471 -2.2059 -0.7219  2.2539
19904TIP3   OH281126   3.085   4.230   2.486 -0.5071  0.7855 -0.6678
19904TIP3    H181127   3.150   4.284   2.531  0.0812 -0.4859  0.0742
19904TIP3    H281128   3.047   4.288   2.420  0.3020  1.9997 -0.1074
19905TIP3   OH281129   6.060   5.580  16.140 -0.8449 -0.1304 -0.1933
19905TIP3    H181130   6.091   5.670  16.134 -0.8270 -0.1295 -0.0726
19905TIP3    H281131   6.139   5.526  16.134 -1.0309 -0.2395 -2.9894
19906TIP3   OH281132   5.110   6.207   5.373  0.1795 -0.3190  0.3319
19906TIP3    H181133   5.022   6.233   5.343 -0.4711 -2.1510  0.5212
19906TIP3    H281134   5.158   6.191   5.292 -0.0782 -0.6061  0.2343
19907TIP3   OH281135   0.993   6.180  14.072 -0.0608 -0.0639 -0.1983
19907TIP3    H181136   1.003   6.145  13.983 -0.0888  0.8348 -0.5609
19907TIP3    H281137   1.019   6.272  14.065  3.4312 -0.7549  1.4606
19908TIP3   OH281138   3.257   2.034   1.889 -0.5920  0.5196 -0.3883
19908TIP3    H181139   3.236   2.036   1.796 -0.1679 -0.5046 -0.5181
19908TIP3    H281140   3.204   1.962   1.924 -0.7248  0.8746  0.1593
19909TIP3   OH281141   4.285   6.016   2.777  0.4620 -0.5644 -0.2133
19909TIP3    H181142   4.319   6.090   2.727  2.1563 -1.3388 -0.2911
19909TIP3    H281143   4.271   6.051   2.865  0.6551 -0.0052 -0.4004
19910TIP3   OH281144   6.744   6.307   5.801 -0.0416  0.3864 -0.5517
19910TIP3    H181145   6.759   6.376   5.865  0.4511 -0.7814  0.6353
19910TIP3    H281146   6.831   6.289   5.764 -0.0661 -0.0103 -0.4198
19911TIP3   OH281147   1.144   6.410   2.996 -0.0688 -0.0730  0.6454
19911TIP3    H181148   1.134   6.490   2.943 -0.1172  0.0222  0.7997
19911TIP3    H281149   1.232   6.379   2.975 -0.1290 -0.0956  0.4232
19912TIP3   OH281150   2.829   4.760  17.013 -0.1485 -0.4308 -0.2317
19912TIP3    H181151   2.806   4.763  17.106  1.0487 -0.8525  0.0876
19912TIP3    H281152   2.751   4.794  16.968 -0.7195 -0.1755  0.9192
19913TIP3   OH281153   6.734   1.606  14.903  1.1576  0.1273 -0.7185
19913TIP3    H181154   6.785   1.594  14.983  0.2851 -0.6419 -0.2618
19913TIP3    H281155   6.643   1.609  14.932  0.9090  1.7591 -1.4860
19914TIP3   OH281156   4.111   1.839  12.076 -0.5970  0.3414 -0.1265
19914TIP3    H181157   4.155   1.922  12.058 -2.6979  2.0754  2.0710
19914TIP3    H281158   4.034   1.841  12.019 -0.0004 -0.7865 -1.0205
19915TIP3   OH281159   4.005   1.674   3.364  0.0915  0.0410  0.1284
19915TIP3    H181160   3.961   1.589   3.368 -0.2037  0.1829 -0.0298
19915TIP3    H281161   4.079   1.666   3.424  1.2893 -1.0175 -1.4159
19916TIP3   OH281162   3.363   2.460   1.962 -0.7202 -0.4112  0.3541
19916TIP3    H181163   3.448   2.503   1.960 -1.0834  0.3184 -1.3243
19916TIP3    H281164   3.382   2.369   1.984  0.9255 -1.0346 -2.9633
19917TIP3   OH281165   5.354   1.605  11.484  0.1258  0.3591 -0.1026
19917TIP3    H181166   5.353   1.641  11.396 -0.4145  1.1234  0.2014
19917TIP3    H281167   5.323   1.677  11.540 -1.1311 -0.6140  0.5158
19918TIP3   OH281168   0.195   3.346  11.481 -0.3599 -0.0677  0.0089
19918TIP3    H181169   0.166   3.424  11.433  0.2443  0.0539 -0.1678
19918TIP3    H281170   0.268   3.311  11.430  2.4390  1.8294  2.3184
19919TIP3   OH281171   6.776   2.688   6.155 -0.4358  0.2525  0.4206
19919TIP3    H181172   6.861   2.732   6.153 -0.0647 -0.4441  0.6807
19919TIP3    H281173   6.789   2.608   6.104 -0.4319 -0.7190  1.8822
19920TIP3   OH281174   0.278   5.427  14.116 -0.2296 -0.5364 -0.5926
19920TIP3    H181175   0.290   5.492  14.048 -1.5196 -1.4213 -1.7317
19920TIP3    H281176   0.327   5.460  14.191 -1.5126  2.1472 -0.8433
19921TIP3   OH281177   4.674   0.607   0.912 -0.6755  0.2475 -0.2647
19921TIP3    H181178   4.718   0.580   0.831 -0.4293  0.1918 -0.1119
19921TIP3    H281179   4.586   0.571   0.904 -2.0995  3.6576 -2.4396
19922TIP3   OH281180   6.293   3.809  12.413 -0.2270  0.6225 -0.2555
19922TIP3    H181181   6.218   3.857  12.378  0.3527  1.4379 -0.4116
19922TIP3    H281182   6.365   3.829  12.353  0.1532 -0.0465 -0.0371
19923TIP3   OH281183   5.573   4.941  13.873  0.5014 -0.1166  0.1571
19923TIP3    H181184   5.537   4.855  13.850  1.1369 -0.4905  0.5527
19923TIP3    H281185   5.663   4.939  13.842  0.0436  1.0589 -1.4360
19924TIP3   OH281186   2.621   0.119   0.657  0.0380  0.3517 -0.1413
19924TIP3    H181187   2.570   0.129   0.737 -3.9136 -0.2047 -2.3434
19924TIP3    H281188   2.657   0.030   0.663 -0.6658  0.1073  0.7480
19925TIP3   OH281189   4.086   5.703   6.237 -0.0344  0.4070 -0.4887
19925TIP3    H181190   4.009   5.760   6.238  0.1433  0.6371  0.0558
19925TIP3    H281191   4.159   5.760   6.261  0.1885  0.0151 -0.2209
19926TIP3   OH281192   1.519   6.096   4.575 -0.0559  0.0252  0.5226
19926TIP3    H181193   1.536   6.164   4.510 -0.8296  0.5746  0.8792
19926TIP3    H281194   1.523   6.014   4.525  0.8906  0.3141  0.0928
19927TIP3   OH281195   6.510   6.657   2.019 -0.2583  0.4563  0.5648
19927TIP3    H181196   6.584   6.715   2.034  1.8986 -1.2453 -2.4610
19927TIP3    H281197   6.452   6.707   1.962 -0.3312  0.9600  1.0671
19928TIP3   OH281198   5.821   0.630  16.920  0.2771 -0.5237 -0.4452
19928TIP3    H181199   5.801   0.642  16.827  0.7989  0.4968 -0.4375
19928TIP3    H281200   5.780   0.546  16.943 -0.0336 -0.6824 -1.5398
19929TIP3   OH281201   1.896   2.721   2.560  0.5032 -0.0532 -0.2639
19929TIP3    H181202   1.941   2.660   2.501  1.5021  0.7972 -0.4156
19929TIP3    H281203   1.906   2.807   2.518 -0.8354  0.2348 -0.0320
19930TIP3   OH281204   4.501   3.309   5.036 -0.0763 -0.3494  0.0793
19930TIP3    H181205   4.567   3.300   4.967 -0.7228 -0.2781 -0.5543
19930TIP3    H281206   4.424   3.345   4.992  0.3781  2.4411  1.3014
19931TIP3   OH281207   5.654   3.211  15.299  0.1902  0.2366 -0.0262
19931TIP3    H181208   5.565   3.194  15.268  0.8375 -1.6143 -1.0377
19931TIP3    H281209   5.643   3.264  15.378 -1.8234 -0.4274  0.1869
19932TIP3   OH281210   6.520   1.191   4.639  0.0907  0.2127  0.3526
19932TIP3    H181211   6.560   1.109   4.667  0.1619 -0.0237 -0.4166
19932TIP3    H281212   6.427   1.181   4.659 -0.0271 -0.3715 -0.4263
19933TIP3   OH281213   6.004   4.010  14.165  0.5027 -0.1636  0.2324
19933TIP3    H181214   6.078   3.950  14.176  1.1107  0.2948 -1.1913
19933TIP3    H281215   5.929   3.953  14.149  1.1055 -0.5853 -1.2970
19934TIP3   OH281216   5.438   4.109  14.410  0.1479  0.4679 -0.3857
19934TIP3    H181217   5.524   4.113  14.369 -0.5580  0.8390 -1.9209
19934TIP3    H281218   5.445   4.163  14.489  1.1202  1.0709 -0.8732
19935TIP3   OH281219   2.110   6.585   0.760 -0.8441 -0.5438  0.1251
19935TIP3    H181220   2.085   6.526   0.830 -0.5060 -1.0967 -0.2139
19935TIP3    H281221   2.189   6.630   0.794 -2.5180  1.6400  1.4394
19936TIP3   OH281222   5.859   6.449   2.229 -0.5768 -0.3148  0.0333
19936TIP3    H181223   5.869   6.532   2.182  0.1726 -0.6372 -0.4064
19936TIP3    H281224   5.778   6.458   2.278 -0.0935  0.9876  0.6269
19937TIP3   OH281225   4.526   4.195  16.280  0.1943 -0.0967 -0.4141
19937TIP3    H181226   4.575   4.114  16.297 -0.7163 -0.4306  0.7820
19937TIP3    H281227   4.549   4.219  16.190  2.3558 -0.3576  0.0086
19938TIP3   OH281228   3.827   6.176  10.089  0.0163 -0.0324 -0.3791
19938TIP3    H181229   3.755   6.217  10.041  0.4817 -0.0264 -1.0895
19938TIP3    H281230   3.845   6.237  10.161 -1.5671 -0.6920  0.6204
19939TIP3   OH281231   6.219   2.588  16.272  0.2155  0.2864 -0.2736
19939TIP3    H181232   6.149   2.534  16.233  0.9242  0.2382 -1.5272
19939TIP3    H281233   6.175   2.668  16.299 -0.4691 -0.0589 -0.3273
19940TIP3   OH281234   3.415   4.489   6.304  0.3830 -0.1238 -0.1463
19940TIP3    H181235   3.443   4.398   6.298  0.1483 -0.2417  0.5250
19940TIP3    H281236   3.346   4.496   6.238  0.9019 -0.2344 -0.7097
19941TIP3   OH281237   1.213   4.803  12.005 -0.2765  0.5229  0.1013
19941TIP3    H181238   1.253   4.759  11.929 -0.2749  3.0999 -1.5402
19941TIP3    H281239   1.157   4.737  12.045  2.0612 -1.8536 -0.2742
19942TIP3   OH281240   3.814   4.163   5.174  0.2176  0.2838  0.3004
19942TIP3    H181241   3.879   4.180   5.242 -0.3293  2.2856  0.3909
19942TIP3    H281242   3.734   4.203   5.207 -0.6423 -0.6798 -0.5482
19943TIP3   OH281243   6.795   5.992  16.974 -0.2475 -0.1336  0.6744
19943TIP3    H181244   6.885   6.020  16.991 -0.5102  0.2181  1.5475
19943TIP3    H281245   6.744   6.073  16.976 -0.6056 -0.3406  0.2727
19944TIP3   OH281246   6.484   2.078  13.902  0.0458 -0.9898  0.2796
19944TIP3    H181247   6.574   2.049  13.891 -0.0696 -1.3206  0.1781
19944TIP3    H281248   6.462   2.122  13.820  0.7332  0.8158  1.0194
19945TIP3   OH281249   3.334   1.027  16.153 -0.0420  0.1437 -0.0840
19945TIP3    H181250   3.390   1.030  16.075  1.4539  1.5176  0.9703
19945TIP3    H281251   3.300   1.116  16.161 -0.8845 -0.2095  0.3526
19946TIP3   OH281252   6.724   1.599   1.735  0.1275 -0.1398 -0.1278
19946TIP3    H181253   6.788   1.595   1.664  1.2820 -0.7031  0.8981
19946TIP3    H281254   6.730   1.688   1.767  2.7896 -0.9514  1.9939
19947TIP3   OH281255   6.157   2.162   2.187 -0.6002 -0.2098 -0.8549
19947TIP3    H181256   6.181   2.162   2.280 -0.7080 -0.9169 -0.8175
19947TIP3    H281257   6.100   2.239   2.176 -3.4580 -1.9616  0.4544
19948TIP3   OH281258   1.668   5.033  11.999 -0.1665  0.6089 -0.4099
19948TIP3    H181259   1.648   5.010  12.090 -1.1774 -0.2270 -0.8261
19948TIP3    H281260   1.651   5.127  11.994 -0.5011  0.5869  0.1719
19949TIP3   OH281261   5.875   4.657  12.877  0.1183  0.3782 -0.0629
19949TIP3    H181262   5.859   4.593  12.946  0.8287  2.4104  2.0739
19949TIP3    H281263   5.789   4.697  12.861 -0.8040 -2.2747 -2.8453
19950TIP3   OH281264   2.420   4.718   2.838  0.2024 -0.1590  0.5241
19950TIP3    H181265   2.351   4.657   2.812 -1.0861  1.3832  0.1514
19950TIP3    H281266   2.482   4.716   2.764 -0.0516 -0.6614  0.3137
19951TIP3   OH281267   1.059   1.698  15.350  0.1870  0.0518  0.1622
19951TIP3    H181268   0.986   1.688  15.289  0.8801  0.3985 -0.7436
19951TIP3    H281269   1.019   1.731  15.430 -0.5664  0.9159 -0.5513
19952TIP3   OH281270   0.160   3.326   0.922  0.3372 -0.1055  0.3276
19952TIP3    H181271   0.202   3.412   0.925 -0.9189  0.5136  0.9633
19952TIP3    H281272   0.211   3.272   0.982  1.7850 -0.1393 -0.8756
19953TIP3   OH281273   5.620   2.856   5.239 -0.1600 -0.4386  0.3860
19953TIP3    H181274   5.684   2.843   5.169 -0.7564 -2.7915  0.2158
19953TIP3    H281275   5.660   2.820   5.317 -0.0870  0.8745  0.9912
19954TIP3   OH281276   5.960   1.157  13.694 -0.2213 -0.2850  0.2642
19954TIP3    H181277   6.014   1.134  13.769 -0.6452  1.5814  1.1980
19954TIP3    H281278   6.022   1.177  13.624  0.1884 -1.4394  0.2830
19955TIP3   OH281279   3.099   6.746  14.738 -0.0565 -0.1995 -0.7894
19955TIP3    H181280   3.016   6.794  14.744  0.0715 -0.1279  0.5581
19955TIP3    H281281   3.165   6.810  14.765  0.2245 -0.8444  0.0534
19956TIP3   OH281282   0.603   5.084   2.683  0.1954 -0.3035 -0.3415
19956TIP3    H181283   0.656   5.105   2.606  2.3746  0.7407  1.3153
19956TIP3    H281284   0.664   5.092   2.756 -2.2774  1.0643  1.7441
19957TIP3   OH281285   2.964   2.136   2.399  0.6220 -0.4921  0.0757
19957TIP3    H181286   2.963   2.181   2.484  1.2406 -2.3209  1.1293
19957TIP3    H281287   2.884   2.165   2.356  0.4679  0.7588  1.1313
19958TIP3   OH281288   0.838   6.242   5.748  0.4415  1.0043  0.2405
19958TIP3    H181289   0.748   6.250   5.717  0.0599 -0.4609  0.8781
19958TIP3    H281290   0.843   6.298   5.825  0.7078  2.7409 -0.9704
19959TIP3   OH281291   0.465   0.537   2.117 -0.0568 -0.1984 -0.8331
19959TIP3    H181292   0.450   0.632   2.118  1.4497  0.0546 -0.2917
19959TIP3    H281293   0.378   0.499   2.129 -0.8016  1.0918 -1.9128
19960TIP3   OH281294   3.071   4.451  16.125 -0.1318 -0.0185 -0.2042
19960TIP3    H181295   3.083   4.536  16.168  0.9677  0.1058 -0.7164
19960TIP3    H281296   3.052   4.390  16.196  1.1957  0.2669  0.4380
19961TIP3   OH281297   1.664   5.142   1.320 -0.6834  0.3585  0.0326
19961TIP3    H181298   1.641   5.116   1.409 -1.5851 -1.9782 -0.7993
19961TIP3    H281299   1.618   5.226   1.307 -0.2461  0.9130  1.8458
19962TIP3   OH281300   3.371   3.594   3.226  0.0953 -0.8962  0.2621
19962TIP3    H181301   3.379   3.528   3.157  0.1869  2.5025 -3.3602
19962TIP3    H281302   3.460   3.621   3.245  0.0063  1.2051 -1.7773
19963TIP3   OH281303   1.101   0.952  14.640 -0.2484  0.2354  0.1816
19963TIP3    H181304   1.105   1.047  14.653 -3.0233  0.4657 -0.1450
19963TIP3    H281305   1.059   0.918  14.719  2.3364 -1.0439  1.1410
19964TIP3   OH281306   4.396   1.105   0.835  0.4609  0.1438  0.7462
19964TIP3    H181307   4.488   1.092   0.812  0.0864 -1.4831  0.0047
19964TIP3    H281308   4.395   1.112   0.930  1.1782 -2.0117  0.9683
19965TIP3   OH281309   3.634   6.572  14.132 -0.2963 -0.4458  0.3755
19965TIP3    H181310   3.614   6.587  14.224  0.2240  2.9981  0.0480
19965TIP3    H281311   3.553   6.593  14.086 -0.0774 -0.5390 -0.0649
19966TIP3   OH281312   1.124   2.677  14.418 -0.0678  0.3186  0.6188
19966TIP3    H181313   1.044   2.635  14.448 -0.0737 -0.5108 -0.4932
19966TIP3    H281314   1.105   2.704  14.328 -0.0507  2.6973  1.2455
19967TIP3   OH281315   3.147   0.815  11.489 -0.2979  0.0083 -0.4420
19967TIP3    H181316   3.227   0.832  11.440 -0.8034 -2.7834 -2.5102
19967TIP3    H281317   3.174   0.756  11.560 -0.4318 -0.6752 -0.9470
19968LIG      O81318   3.303   3.514  10.384  0.0055 -0.8019 -0.2102
19968LIG      N81319   3.415   3.577  10.157  0.3963 -0.1871 -0.1887
19968LIG     C181320   3.158   3.654  10.507  0.2962 -0.1905 -0.1862
19968LIG     C281321   3.211   3.622  10.366  0.2627 -0.5223 -0.6590
19968LIG     C381322   3.094   3.533  10.577 -0.2709  0.0957  0.3097
19968LIG     C481323   3.266   3.697  10.607  0.2084 -0.5619 -0.9351
19968LIG     C581324   3.290   3.733  10.296  1.0540  0.4714 -0.7166
19968LIG     C681325   3.007   3.569  10.700 -0.0467  0.0708  0.0711
19968LIG     C781326   3.197   3.738  10.739  0.1898  0.8603 -0.1692
19968LIG     C881327   3.101   3.641  10.797 -0.1177  0.2062  0.0008
19968LIG     C981328   3.331   3.697  10.154  0.7458 -0.2221  0.0015
19968LIG    C1081329   3.086   3.585  10.278  0.5562 -0.6338  0.8405
19968LIG    C1181330   3.407   3.481  10.041  0.4579  0.1652 -0.1581
19968LIG    C1281331   3.558   3.605  10.203 -0.2677 -0.6371 -0.4091
19968LIG    C1381332   3.474   3.558   9.920 -0.2101 -0.2040 -0.0603
19968LIG    C1481333   3.634   3.673  10.081  0.7787 -0.0536  0.6004
19968LIG    C1581334   3.626   3.596   9.947  0.6527  0.0476  0.6111
19968LIG    C1681335   3.069   3.454  10.218  0.6486 -0.1197  0.1589
19968LIG    C1781336   2.989   3.683  10.243 -0.1061 -0.1281  0.1404
19968LIG    C1881337   2.952   3.422  10.149  0.0777 -0.1926 -0.4774
19968LIG    C1981338   2.865   3.647  10.184 -0.5433 -0.1331  0.0661
19968LIG    C2081339   2.849   3.510  10.136  0.0207 -0.6991  0.0865
19968LIG     H181340   3.096   3.745  10.491  0.2835 -0.2600 -0.5323
19968LIG     H281341   3.171   3.460  10.609  0.1769 -0.1019 -1.1307
19968LIG     H381342   3.022   3.488  10.506 -0.8025  1.2978  0.0612
19968LIG     H481343   3.327   3.781  10.566  1.2214 -1.0618 -0.4914
19968LIG     H581344   3.328   3.608  10.629 -0.5955 -0.9372 -0.1223
19968LIG     H681345   3.371   3.755  10.368 -0.4774  2.6140  0.4916
19968LIG     H781346   3.227   3.825  10.304  0.4835  0.1902 -1.7693
19968LIG     H881347   2.959   3.487  10.758 -2.0396  0.7645 -0.5125
19968LIG     H981348   2.923   3.633  10.666  0.6135  0.4309 -0.9522
19968LIG    H1081349   3.133   3.819  10.699 -1.1946 -0.5780 -0.9860
19968LIG    H1181350   3.267   3.786  10.810 -2.3338  0.2897  2.9186
19968LIG    H1281351   3.160   3.558  10.842 -3.5227 -1.5783  1.5575
19968LIG    H1381352   3.043   3.692  10.877  0.5570  0.4586  0.3383
19968LIG    H1481353   3.238   3.674  10.099  0.2245 -1.2551  1.2781
19968LIG    H1581354   3.362   3.782  10.090  1.6800 -0.2886  0.3455
19968LIG    H1681355   3.305   3.445  10.016  0.7099 -0.9025  0.3194
19968LIG    H1781356   3.470   3.390  10.039 -0.2310 -0.3222 -0.0997
19968LIG    H1881357   3.616   3.513  10.224 -0.5244 -0.8434 -0.5946
19968LIG    H1981358   3.560   3.669  10.294  0.2388  0.6125 -1.2639
19968LIG    H2081359   3.334   3.515  10.293  1.2262 -1.5406  0.1742
19968LIG    H2181360   3.408   3.647   9.907 -0.4663 -0.2023  1.0995
19968LIG    H2281361   3.464   3.501   9.826 -0.0294  3.0748 -2.2207
19968LIG    H2381362   3.744   3.672  10.098  1.1173 -2.2684 -1.2012
19968LIG    H2481363   3.592   3.776  10.076  0.9436  0.0513  1.2380
19968LIG    H2581364   3.669   3.655   9.863 -0.3569  0.7283  0.5558
19968LIG    H2681365   3.684   3.503   9.962  1.7257  0.5000 -0.5670
19968LIG    H2781366   3.141   3.377  10.239 -0.8629 -1.3400  1.0421
19968LIG    H2881367   3.003   3.780  10.290 -1.2660 -1.1846  2.8928
19968LIG    H2981368   2.955   3.325  10.103  0.3898 -0.5052  0.1910
19968LIG    H3081369   2.791   3.721  10.157  0.0326  0.4759  0.1275
19968LIG    H3181370   2.767   3.483  10.072 -0.9567 -1.1768  1.4803
   6.83793   6.83793  17.03323
